chitosan Film  in water:acetic acid 2%
15641
    1CHTO  H203    1   5.547   7.013   2.403 -0.2161  0.3558  1.0061
    1CHTO   O82    2   5.559   6.926   2.434 -0.3743  0.0896  0.3266
    1CHTO  C123    3   5.692   6.897   2.490  0.0495 -0.7800 -0.6138
    1CHTO  H227    4   5.722   6.977   2.560  0.4593  0.0519 -1.7272
    1CHTO   O77    5   5.662   6.770   2.556  0.2959  0.1779 -0.0884
    1CHTO  C118    6   5.771   6.709   2.630 -0.2151 -0.4098  0.0301
    1CHTO  H222    7   5.814   6.789   2.691  2.0607 -2.0376  0.6627
    1CHTO  C125    8   5.716   6.595   2.719 -0.3763  0.0843 -0.4297
    1CHTO   O84    9   5.668   6.481   2.646 -0.0551  0.8162 -0.2835
    1CHTO  H205   10   5.581   6.496   2.615  0.8959  0.4401 -3.3748
    1CHTO  C114   11   5.879   6.672   2.531 -0.0477 -0.0608  0.0889
    1CHTO  H218   12   5.833   6.599   2.464  0.7760 -1.0392  0.5529
    1CHTO  C116   13   5.925   6.798   2.439 -0.2535  0.1300 -0.2112
    1CHTO  H220   14   5.973   6.871   2.507  1.6100 -0.7621 -0.5499
    1CHTO   O79   15   6.019   6.755   2.334 -0.0738 -0.1172 -0.5136
    1CHTO  H201   16   6.107   6.742   2.362  0.2251  1.1618 -0.7978
    1CHTO  C120   17   5.795   6.875   2.378 -0.2147 -0.2004 -0.7920
    1CHTO  H224   18   5.749   6.808   2.302 -2.2329 -0.2444  0.4403
    1CHTO   N21   19   5.833   6.998   2.299 -0.2024  0.1683  0.4088
    1CHTO  H211   20   5.750   7.066   2.286 -0.3851 -0.3432 -1.1126
    1CHTO  H212   21   5.904   7.052   2.360 -1.0798  0.8059  0.8960
    1CHTO   O75   22   5.984   6.614   2.609 -0.1574  0.2033 -0.5905
    1CHTO  C112   23   6.047   6.458   2.549 -0.5810  0.0512  0.0179
    1CHTO  H216   24   6.017   6.449   2.443  1.9311 -0.1146 -0.7017
    1CHTO   O73   25   5.993   6.350   2.626 -0.1928  0.1009 -0.2207
    1CHTO  C113   26   6.033   6.216   2.585 -0.8030  0.0066 -0.1145
    1CHTO  H217   27   6.000   6.208   2.479 -1.2364  0.2799 -0.0050
    1CHTO  C124   28   5.960   6.126   2.682 -0.4617  0.0633 -0.2729
    1CHTO   O83   29   5.822   6.127   2.656 -0.1983 -0.6408 -0.0794
    1CHTO  H204   30   5.779   6.140   2.738 -1.1917  3.1366 -1.1099
    1CHTO  C109   31   6.190   6.195   2.598  0.2856 -0.0021 -0.0751
    1CHTO  H213   32   6.216   6.218   2.703  0.1091  3.1043 -0.6519
    1CHTO  C110   33   6.260   6.312   2.514  0.5715  0.0017 -0.1814
    1CHTO  H214   34   6.233   6.306   2.409 -0.3018  0.0255  0.0411
    1CHTO   O78   35   6.405   6.293   2.517 -0.2608 -0.1540  0.0564
    1CHTO  H200   36   6.422   6.201   2.522  1.8909  0.3396  3.5379
    1CHTO  C111   37   6.207   6.454   2.566  0.2031 -0.5219 -0.4643
    1CHTO  H215   38   6.231   6.474   2.671 -1.1602  1.3396 -0.4927
    1CHTO   N19   39   6.277   6.561   2.486 -0.1050  0.5704  0.4555
    1CHTO  H207   40   6.262   6.545   2.380 -1.6341  2.7264  0.3077
    1CHTO  H208   41   6.234   6.659   2.501 -0.4407  0.7562 -1.5778
    1CHTO   O74   42   6.236   6.065   2.564 -0.3989  0.0861  0.1353
    1CHTO  C115   43   6.353   6.013   2.658 -0.0897  0.1046 -0.2771
    1CHTO  H219   44   6.376   6.084   2.738 -0.9896  0.6409 -0.4888
    1CHTO   O76   45   6.312   5.881   2.731  0.0104  0.0091 -0.1573
    1CHTO  C122   46   6.257   5.779   2.646  0.3336  0.4966  0.8451
    1CHTO  H226   47   6.154   5.798   2.617  0.5709  0.9873  0.2982
    1CHTO  C126   48   6.257   5.649   2.730  0.0588  0.2743  0.2257
    1CHTO   O85   49   6.220   5.530   2.653 -0.4851  0.1295  0.0102
    1CHTO  H206   50   6.274   5.519   2.577 -0.3646  0.0479  0.1060
    1CHTO  C121   51   6.341   5.759   2.508 -0.4640 -0.8717  0.6531
    1CHTO  H225   52   6.365   5.650   2.503 -0.3422 -0.8285  0.3099
    1CHTO   O81   53   6.262   5.815   2.401  0.4679  0.4179  0.2212
    1CHTO  H202   54   6.224   5.892   2.439 -0.0832 -0.2957  1.1474
    1CHTO  C119   55   6.474   5.840   2.514  0.1805 -0.0643 -0.3148
    1CHTO  H223   56   6.530   5.797   2.598  0.2045 -0.6972 -0.6499
    1CHTO  C117   57   6.473   5.987   2.559  0.1746  0.0287 -0.1300
    1CHTO  H221   58   6.443   6.054   2.479 -1.0995 -0.4323 -0.0521
    1CHTO   N20   59   6.599   6.039   2.618  0.1500  0.4181  0.1631
    1CHTO  H209   60   6.628   5.966   2.692 -2.3911 -1.0696 -0.2751
    1CHTO  H210   61   6.678   6.049   2.545 -0.2838 -0.2432 -0.3961
    1CHTO   O80   62   6.561   5.804   2.396  0.1218 -0.2590  0.1145
    1CHTO  C103   63   6.686   5.719   2.418 -0.3052  0.4347 -0.1791
    1CHTO  H190   64   6.727   5.726   2.519  0.3848  0.3830 -0.4570
    1CHTO  C101   65   6.679   5.568   2.373  0.5195  0.7832 -0.1779
    1CHTO  H188   66   6.636   5.557   2.273  0.0372 -1.8082  0.2762
    1CHTO   O68   67   6.595   5.488   2.468 -0.0450 -0.0274 -0.4833
    1CHTO  H168   68   6.504   5.501   2.449 -0.0006  1.1293  0.0056
    1CHTO   C99   69   6.828   5.488   2.366  0.3119  0.2327 -0.1896
    1CHTO  H186   70   6.865   5.484   2.471  0.7674  0.6296 -0.3295
    1CHTO   N17   71   6.837   5.347   2.314  0.6095  0.3191 -0.7221
    1CHTO  H174   72   6.833   5.350   2.206 -0.7118  0.6974 -0.6705
    1CHTO  H175   73   6.931   5.310   2.353  0.9862  1.5485 -0.4492
    1CHTO   C97   74   6.925   5.582   2.285  0.0864  1.0406 -0.4714
    1CHTO  H184   75   6.899   5.579   2.179 -1.3779  1.3112 -0.1359
    1CHTO   O64   76   6.920   5.718   2.335  0.3595 -0.2721  0.1376
    1CHTO  C104   77   6.791   5.786   2.322 -0.1283 -0.2876 -0.3351
    1CHTO  H191   78   6.751   5.792   2.221  0.7144 -1.5628 -0.7614
    1CHTO  C108   79   6.831   5.927   2.366 -0.1920 -0.4231  0.2058
    1CHTO   O71   80   6.907   5.994   2.266  0.1535 -0.0850 -0.4368
    1CHTO  H171   81   6.935   6.080   2.291  1.4512 -0.8059  0.6907
    1CHTO   O62   82   7.060   5.535   2.320  0.4005  0.2203 -0.1291
    1CHTO   C91   83   7.148   5.512   2.213  0.1495 -0.6677  0.2558
    1CHTO  H178   84   7.090   5.498   2.122  0.4452 -0.1008 -0.0227
    1CHTO   C92   85   7.214   5.374   2.243 -0.0603  0.6515 -0.6228
    1CHTO  H179   86   7.245   5.373   2.348  1.5314 -2.4385 -1.0801
    1CHTO   O66   87   7.121   5.263   2.239  0.3133  0.1534  0.2406
    1CHTO  H166   88   7.160   5.180   2.259 -0.1695  0.3167  1.8926
    1CHTO   C93   89   7.349   5.352   2.162  0.3931  0.0212 -0.4935
    1CHTO  H180   90   7.322   5.344   2.056 -1.0687  0.7653 -0.1902
    1CHTO   N16   91   7.417   5.226   2.201  0.1506  0.2370  0.0202
    1CHTO  H172   92   7.353   5.141   2.223 -0.2190  0.5189  0.0356
    1CHTO  H173   93   7.516   5.192   2.174 -0.0377 -2.8842  2.8265
    1CHTO   C94   94   7.436   5.474   2.186  0.2430 -0.1096 -0.0868
    1CHTO  H181   95   7.445   5.494   2.293  0.5724 -0.7859  0.0204
    1CHTO   O61   96   7.377   5.586   2.124  0.6068 -0.0646  0.1559
    1CHTO   C95   97   7.254   5.632   2.182  0.8214  0.1493  0.0036
    1CHTO  H182   98   7.275   5.684   2.276  0.5902  0.1263  0.0675
    1CHTO  C106   99   7.181   5.737   2.083 -0.1038 -0.4120  0.3130
    1CHTO   O69  100   7.267   5.847   2.048  0.1261 -0.0925 -0.0776
    1CHTO  H169  101   7.277   5.834   1.956 -2.5240 -1.8699 -0.1691
    1CHTO   O63  102   7.592   5.452   2.133  0.2556  0.5227 -0.2419
    1CHTO   C96  103   7.702   5.511   2.240  0.2669  0.2199 -0.4237
    1CHTO  H183  104   7.654   5.591   2.296 -1.6082 -0.7521 -0.6000
    1CHTO   C98  105   7.826   5.576   2.167 -0.3657 -0.2926 -0.1216
    1CHTO  H185  106   7.789   5.655   2.099 -1.0571  0.5271  1.1779
    1CHTO   O67  107   7.910   5.640   2.264 -0.2170 -0.1216 -0.3124
    1CHTO  H167  108   7.860   5.714   2.293  0.2104 -0.4095  1.2113
    1CHTO  C102  109   7.910   5.463   2.081  0.0233  1.0272 -0.3264
    1CHTO  H189  110   8.011   5.504   2.072 -0.1274  1.7485  1.1783
    1CHTO   N18  111   7.864   5.448   1.944 -0.0100 -0.4117  0.0735
    1CHTO  H176  112   7.756   5.438   1.936  0.0845 -0.0091 -1.9105
    1CHTO  H177  113   7.903   5.523   1.877  1.3891 -0.6210  0.6384
    1CHTO  C105  114   7.909   5.331   2.167 -0.1371  0.3104  0.6560
    1CHTO  H192  115   7.832   5.261   2.134  0.5848  0.1371 -0.6988
    1CHTO   O65  116   7.884   5.355   2.311  0.3877  0.1921  0.1365
    1CHTO  C100  117   7.750   5.390   2.335  0.9338 -0.2947 -0.1246
    1CHTO  H187  118   7.685   5.304   2.313 -0.3362  0.7367 -0.4828
    1CHTO  C107  119   7.736   5.425   2.488  0.2228 -0.6376 -0.1097
    1CHTO   O70  120   7.814   5.542   2.525 -0.4205 -0.1974 -0.3455
    1CHTO  H170  121   7.759   5.618   2.529 -1.2077 -0.7819  0.2711
    1CHTO   O57  122   8.051   5.268   2.142  0.0776 -0.1636  0.1916
    1CHTO   C85  123   8.069   5.130   2.096  0.8053 -0.8939  0.0788
    1CHTO  H157  124   7.971   5.099   2.053  0.8471 -2.1855  0.8957
    1CHTO   C83  125   8.092   5.028   2.212  0.6376  0.3993 -0.6938
    1CHTO  H155  126   8.011   5.049   2.282 -0.1823  0.3054 -1.6014
    1CHTO   O56  127   8.219   5.054   2.278  0.2253 -0.1096  0.1894
    1CHTO  H135  128   8.223   5.128   2.335  2.0805  0.5448 -0.7558
    1CHTO   C81  129   8.075   4.886   2.158 -0.6117 -0.5480 -0.6121
    1CHTO  H153  130   7.975   4.878   2.117 -1.6604  1.0098  1.5622
    1CHTO   N14  131   8.072   4.791   2.275 -0.3516  0.4821  0.1207
    1CHTO  H141  132   8.165   4.773   2.323 -1.4317 -0.8817  1.7912
    1CHTO  H142  133   8.043   4.695   2.235  1.2006  0.0979 -0.1071
    1CHTO   C79  134   8.184   4.859   2.046  0.1755  0.3190 -0.0255
    1CHTO  H151  135   8.148   4.769   1.995 -3.1997  0.1969  2.4270
    1CHTO   O52  136   8.172   4.963   1.941 -0.1482 -1.0317 -0.4105
    1CHTO   C86  137   8.182   5.100   1.992  0.3731 -0.3558  0.0707
    1CHTO  H158  138   8.284   5.105   2.036 -0.5331  0.9343  2.0885
    1CHTO   C90  139   8.180   5.203   1.873 -0.1449  0.3694 -0.3484
    1CHTO   O60  140   8.199   5.345   1.913  0.0440  0.2491  0.6572
    1CHTO  H138  141   8.256   5.360   1.986  0.5360 -0.2047  0.3685
    1CHTO   O50  142   8.322   4.856   2.096  0.4089  0.2252  0.6931
    1CHTO   C73  143   8.428   4.791   2.035 -0.5945 -0.2474  0.4999
    1CHTO  H145  144   8.410   4.807   1.928 -0.7929 -0.8444  0.4442
    1CHTO   C74  145   8.433   4.644   2.080 -0.2771  0.3008  0.6146
    1CHTO  H146  146   8.335   4.603   2.052 -0.6900  1.6909  0.0185
    1CHTO   O54  147   8.533   4.569   2.003 -0.4406 -0.1476 -0.1380
    1CHTO  H133  148   8.517   4.479   2.023 -0.7421 -0.0489  0.0646
    1CHTO   C75  149   8.457   4.640   2.237  0.0559  0.3010 -0.8437
    1CHTO  H147  150   8.375   4.696   2.284  0.3623  0.9081 -1.0154
    1CHTO   N13  151   8.472   4.502   2.286 -0.8520 -0.2579  0.3366
    1CHTO  H139  152   8.484   4.439   2.200 -1.3797  0.9702 -0.6594
    1CHTO  H140  153   8.389   4.468   2.346 -0.6731 -0.6527  0.3597
    1CHTO   C76  154   8.578   4.733   2.277  0.2013  0.0819 -0.1199
    1CHTO  H148  155   8.664   4.675   2.244  0.0333 -0.3846  0.2601
    1CHTO   O49  156   8.576   4.871   2.218  0.3825 -0.1762 -0.3809
    1CHTO   C77  157   8.562   4.872   2.077 -0.0130  0.1572  0.3413
    1CHTO  H149  158   8.654   4.824   2.044 -0.6953 -1.3438  0.6051
    1CHTO   C88  159   8.562   5.013   2.020 -0.0033  0.1475  0.0363
    1CHTO   O58  160   8.678   5.111   2.057 -0.3147  0.1866 -0.0063
    1CHTO  H136  161   8.740   5.116   1.987 -0.9692 -0.3936 -0.6378
    1CHTO   O51  162   8.580   4.737   2.452 -0.1154 -0.0102  0.2771
    1CHTO   C78  163   8.531   4.877   2.520 -0.6718 -0.2127 -0.4364
    1CHTO  H150  164   8.484   4.943   2.445 -1.5279  0.5238  0.7329
    1CHTO   C80  165   8.654   4.952   2.588  0.0724  0.0206 -0.0740
    1CHTO  H152  166   8.713   4.881   2.649  0.0664  0.2127  0.1567
    1CHTO   O55  167   8.737   4.991   2.479  0.3319  0.6131 -0.5291
    1CHTO  H134  168   8.818   5.032   2.502 -1.0556  1.6488  2.7604
    1CHTO   C84  169   8.612   5.076   2.677 -0.5434  0.4517  0.8713
    1CHTO  H156  170   8.566   5.142   2.604  0.1245  0.3757  0.3726
    1CHTO   N15  171   8.725   5.150   2.747  0.1050 -0.3276  0.6888
    1CHTO  H143  172   8.786   5.081   2.801  1.0350 -2.0093 -2.3951
    1CHTO  H144  173   8.782   5.204   2.674 -4.0006  0.3722 -2.2320
    1CHTO   C87  174   8.493   5.031   2.772 -0.3307 -0.0165  1.1724
    1CHTO  H159  175   8.542   4.969   2.847  1.6285  2.0402  1.6768
    1CHTO   O53  176   8.397   4.965   2.708 -0.4121  0.3357 -0.0052
    1CHTO   C82  177   8.433   4.849   2.628 -0.3373  0.4380 -0.1291
    1CHTO  H154  178   8.476   4.773   2.694 -2.5481 -0.7555 -0.0245
    1CHTO   C89  179   8.303   4.789   2.562  0.2401 -0.3832  1.2314
    1CHTO   O59  180   8.217   4.749   2.664 -0.1092  0.1548  0.0187
    1CHTO  H137  181   8.135   4.725   2.624  0.2757 -0.8951 -0.1609
    1CHTO   O45  182   8.424   5.152   2.858 -0.1595  0.5947  0.0029
    1CHTO   C67  183   8.402   5.274   2.794  0.8857  0.1811 -0.9911
    1CHTO  H124  184   8.494   5.322   2.763  0.7233  1.6419  0.7244
    1CHTO   C65  185   8.302   5.264   2.676  0.0753 -0.0334  0.7668
    1CHTO  H122  186   8.335   5.185   2.609 -0.7950 -0.4782  0.8565
    1CHTO   O44  187   8.321   5.393   2.611 -0.0093 -0.0010  0.4133
    1CHTO  H102  188   8.324   5.380   2.518  0.7827 -0.4961  0.4985
    1CHTO   C63  189   8.162   5.225   2.734  0.1879  0.8630  0.1576
    1CHTO  H120  190   8.173   5.138   2.799 -1.0707  1.2326  0.8846
    1CHTO   N11  191   8.061   5.182   2.633 -0.7545  0.3044 -0.2013
    1CHTO  H108  192   8.102   5.111   2.565 -1.1536 -0.2771  0.1603
    1CHTO  H109  193   7.964   5.150   2.667 -0.1170 -0.9097  0.5383
    1CHTO   C61  194   8.114   5.346   2.827 -0.2989  0.3020 -0.3510
    1CHTO  H118  195   8.019   5.314   2.873  0.5711  0.2515  1.4275
    1CHTO   O40  196   8.199   5.367   2.934  0.3297 -0.4885  0.2406
    1CHTO   C68  197   8.342   5.371   2.913 -0.3205  0.0982  0.0725
    1CHTO  H125  198   8.389   5.336   3.008  0.4485  2.7728  0.7141
    1CHTO   C72  199   8.392   5.517   2.893 -0.4473  0.4584 -0.6991
    1CHTO   O48  200   8.367   5.593   3.011  0.3960 -0.2791  0.2019
    1CHTO  H105  201   8.409   5.677   3.011  1.1177 -0.6344  0.3119
    1CHTO   O38  202   8.098   5.469   2.752  0.4412  0.5045 -0.2534
    1CHTO   C55  203   8.034   5.583   2.819  0.7742 -0.0510 -0.9536
    1CHTO  H112  204   8.090   5.612   2.909  0.2424 -0.5526 -0.4566
    1CHTO   C56  205   7.876   5.558   2.858 -0.4321 -0.2764  0.1765
    1CHTO  H113  206   7.830   5.509   2.772  0.5594 -2.1926  0.7115
    1CHTO   O42  207   7.870   5.461   2.960  0.4877 -0.4737 -0.0853
    1CHTO  H100  208   7.913   5.490   3.039 -1.0211 -1.6942  1.2130
    1CHTO   C57  209   7.798   5.691   2.897 -0.3292  0.1600 -0.5905
    1CHTO  H114  210   7.833   5.710   2.999 -2.2927 -0.1348  0.1467
    1CHTO   N10  211   7.652   5.670   2.912  0.3104  0.1062 -0.4497
    1CHTO  H106  212   7.631   5.632   3.011  0.8642 -1.6284 -0.9768
    1CHTO  H107  213   7.624   5.591   2.844  2.7457 -0.6983 -0.5606
    1CHTO   C58  214   7.834   5.813   2.809 -0.3992 -0.4337 -0.2925
    1CHTO  H115  215   7.787   5.805   2.709 -1.3662  0.5875  0.0760
    1CHTO   O37  216   7.976   5.821   2.802 -0.1484  0.3255 -0.0442
    1CHTO   C59  217   8.028   5.710   2.734  0.4840  0.3044  0.2469
    1CHTO  H116  218   7.964   5.675   2.653  0.7652 -2.4612  1.1546
    1CHTO   C70  219   8.171   5.739   2.682 -0.1459  0.1435 -0.0669
    1CHTO   O46  220   8.257   5.807   2.775  0.2697  0.3736  0.2420
    1CHTO  H103  221   8.213   5.881   2.812 -0.2827 -0.9663  2.3931
    1CHTO   O39  222   7.807   5.937   2.876  0.5324 -0.0943  0.1507
    1CHTO   C60  223   7.794   6.048   2.793  0.0385 -0.1579  0.6214
    1CHTO  H117  224   7.849   6.040   2.700  0.8312  0.4572  1.0248
    1CHTO   C62  225   7.650   6.073   2.742  0.4346 -0.0163 -0.2671
    1CHTO  H119  226   7.628   5.994   2.667  2.1265 -0.5584 -0.2057
    1CHTO   O43  227   7.569   6.076   2.864 -0.5794 -0.7745  0.0718
    1CHTO  H101  228   7.516   6.000   2.850 -0.2244 -0.6257 -2.2095
    1CHTO   C66  229   7.640   6.210   2.665  0.0040  0.1722 -0.0274
    1CHTO  H123  230   7.711   6.209   2.582  0.3674 -0.5769  0.2886
    1CHTO   N12  231   7.514   6.241   2.597  0.1980  0.5700 -0.8408
    1CHTO  H110  232   7.525   6.342   2.561  1.1916  0.7882  0.0521
    1CHTO  H111  233   7.432   6.230   2.667  0.4563 -1.4930 -0.8462
    1CHTO   C69  234   7.696   6.331   2.746  0.3895 -0.4046  0.0831
    1CHTO  H126  235   7.638   6.347   2.839  0.5412 -2.1481  0.4781
    1CHTO   O41  236   7.843   6.291   2.785  0.2747  0.6130 -0.3212
    1CHTO   C64  237   7.856   6.172   2.870  0.3456  0.4715  0.3710
    1CHTO  H121  238   7.797   6.196   2.961 -1.1352 -0.9270 -0.1949
    1CHTO   C71  239   8.002   6.147   2.910 -0.1333 -0.4700  0.3359
    1CHTO   O47  240   8.082   6.134   2.796 -0.0621  0.5480 -0.1953
    1CHTO  H104  241   8.084   6.217   2.752  1.6480  0.2072 -0.7925
    1CHTO   O34  242   7.702   6.467   2.675 -0.2710  0.2966 -0.4539
    1CHTO   C49  243   7.633   6.599   2.754  0.6220  0.5752 -0.8176
    1CHTO   H91  244   7.576   6.567   2.840  0.2835  0.8682 -0.9301
    1CHTO   C47  245   7.542   6.674   2.647 -0.0276  0.3949 -0.5758
    1CHTO   H89  246   7.488   6.751   2.706 -0.2878 -0.7956  0.7737
    1CHTO   O33  247   7.452   6.577   2.607 -0.2578 -0.3783 -0.4070
    1CHTO   H70  248   7.400   6.547   2.679 -0.1309  0.3879  0.0115
    1CHTO   C45  249   7.629   6.739   2.532 -0.3896  0.0983 -0.6148
    1CHTO   H87  250   7.694   6.658   2.497  0.1036  0.0010  0.4844
    1CHTO    N8  251   7.547   6.784   2.417  0.1990  0.0317  0.0198
    1CHTO   H75  252   7.600   6.865   2.368 -0.0325  0.2534  0.1354
    1CHTO   H76  253   7.534   6.702   2.348  0.5551  1.9397 -2.4035
    1CHTO   C43  254   7.722   6.850   2.601  0.7741 -0.2678  0.5632
    1CHTO   H85  255   7.790   6.890   2.526 -0.3815 -0.7148 -0.7414
    1CHTO   O29  256   7.797   6.799   2.714 -0.0549  0.3682  0.3936
    1CHTO   C50  257   7.745   6.699   2.808  0.1168 -0.0603  0.0696
    1CHTO   H92  258   7.824   6.632   2.846 -1.0555 -0.7027  1.4059
    1CHTO   C54  259   7.706   6.771   2.940  0.2513  1.0726 -0.2930
    1CHTO   O36  260   7.648   6.693   3.051 -0.3115  0.0993  0.1166
    1CHTO   H72  261   7.603   6.619   3.015  1.1729 -1.8432  2.0883
    1CHTO   O27  262   7.651   6.964   2.652  0.1552 -0.5362 -0.1114
    1CHTO   C37  263   7.567   7.080   2.663 -0.1531 -0.6091 -0.6014
    1CHTO   H79  264   7.542   7.121   2.563  2.5978  1.0460 -0.6742
    1CHTO   C38  265   7.434   7.034   2.722 -0.0280  0.0915 -0.1766
    1CHTO   H80  266   7.455   6.963   2.803  0.9993  0.5698 -0.0172
    1CHTO   O31  267   7.348   6.969   2.626 -0.1188  0.3011  0.4071
    1CHTO   H68  268   7.299   6.900   2.667 -0.3252  0.5794  0.6345
    1CHTO   C39  269   7.356   7.157   2.784 -0.6091 -0.3585 -0.0190
    1CHTO   H81  270   7.299   7.197   2.700 -1.3584  0.1481  0.7152
    1CHTO    N7  271   7.255   7.116   2.890  0.6453 -0.1156  0.4499
    1CHTO   H73  272   7.251   7.008   2.887  0.3197 -0.0634 -1.5247
    1CHTO   H74  273   7.154   7.139   2.861  0.8875  0.4684  0.0529
    1CHTO   C40  274   7.445   7.284   2.839  0.0321 -0.1785  0.0664
    1CHTO   H82  275   7.472   7.278   2.944 -2.7006  2.9349  1.0182
    1CHTO   O26  276   7.560   7.311   2.751 -0.3714  0.5393  0.1204
    1CHTO   C41  277   7.644   7.197   2.737 -0.0185 -0.3869 -0.8190
    1CHTO   H83  278   7.684   7.159   2.832 -1.0478 -2.2618 -1.1244
    1CHTO   C52  279   7.765   7.235   2.649 -0.4495 -1.0405 -0.1043
    1CHTO   O35  280   7.854   7.327   2.692 -0.5471 -0.6292  0.5951
    1CHTO   H71  281   7.887   7.307   2.777 -0.3820  1.3661  1.0291
    1CHTO   O28  282   7.356   7.399   2.852  0.3077  0.5253  0.4694
    1CHTO   C42  283   7.352   7.508   2.756 -0.2902 -0.5497  0.4488
    1CHTO   H84  284   7.405   7.466   2.670 -0.2033 -0.8821  0.6653
    1CHTO   C44  285   7.431   7.642   2.799  0.1065 -1.0591 -0.9478
    1CHTO   H86  286   7.371   7.694   2.874  0.7933 -0.7473 -0.6146
    1CHTO   O32  287   7.555   7.611   2.863 -0.2012  0.4898  0.4506
    1CHTO   H69  288   7.579   7.684   2.916 -2.1872  1.5296 -0.0379
    1CHTO   C48  289   7.444   7.740   2.677 -0.1569  0.6153  0.8215
    1CHTO   H90  290   7.514   7.693   2.608  0.2360 -0.2660  1.8042
    1CHTO    N9  291   7.506   7.867   2.711  0.0250 -0.0466 -0.4564
    1CHTO   H77  292   7.436   7.918   2.775 -0.0961  0.3484 -0.9073
    1CHTO   H78  293   7.599   7.852   2.765 -0.7436 -2.0492  0.3773
    1CHTO   C51  294   7.305   7.764   2.600  0.5187  0.2222 -0.3831
    1CHTO   H93  295   7.257   7.847   2.652  1.2827 -0.5200  1.5732
    1CHTO   O30  296   7.230   7.644   2.595 -0.0032 -0.1642 -0.3030
    1CHTO   C46  297   7.214   7.546   2.709  0.0169  0.0808 -0.1554
    1CHTO   H88  298   7.171   7.597   2.796  0.6124 -0.3530  0.3932
    1CHTO   C53  299   7.129   7.424   2.665 -0.4246  0.3221 -0.1292
    1CHTO   O72  300   7.001   7.463   2.627 -0.2084  0.4343 -0.8899
    1CHTO  H199  301   6.984   7.486   2.537  2.2669  0.7565 -1.2913
    1CHTO   O22  302   7.331   7.799   2.462  0.4075  0.7321 -0.4168
    1CHTO   C31  303   7.220   7.850   2.370  0.2411 -0.4100  0.2354
    1CHTO   H59  304   7.132   7.864   2.435  0.7537 -0.5154  0.9684
    1CHTO   C29  305   7.250   7.988   2.307 -0.0407 -0.6992  0.0237
    1CHTO   H57  306   7.341   7.976   2.247  0.2244  0.7672  0.1131
    1CHTO   O21  307   7.268   8.078   2.413 -0.0950  0.3869 -0.1971
    1CHTO   H37  308   7.355   8.059   2.443 -0.2635  1.1346  0.7986
    1CHTO   C27  309   7.138   8.031   2.210 -0.7124  0.1192 -0.0938
    1CHTO   H55  310   7.043   8.034   2.266 -0.6222 -2.2623  0.2575
    1CHTO    N5  311   7.162   8.156   2.133  0.5190  0.2945  0.3696
    1CHTO   H43  312   7.203   8.238   2.189  1.5908 -1.1790  1.8065
    1CHTO   H44  313   7.219   8.142   2.042 -1.6490  1.0774 -1.1698
    1CHTO   C25  314   7.103   7.914   2.112 -0.5869  0.3972 -0.2292
    1CHTO   H53  315   7.182   7.883   2.042 -1.5041 -2.5166 -0.0169
    1CHTO   O17  316   7.078   7.797   2.181  0.3076 -0.0256  0.0797
    1CHTO   C32  317   7.185   7.743   2.258  0.0440  0.0495 -0.0042
    1CHTO   H60  318   7.271   7.723   2.194 -1.3652  0.0070 -1.9529
    1CHTO   C36  319   7.143   7.608   2.317  0.7411  0.3806 -0.0004
    1CHTO   O25  320   7.091   7.523   2.215  0.3229 -0.1822  0.3686
    1CHTO   H40  321   6.997   7.526   2.221  0.3246  0.5524  0.1036
    1CHTO   O15  322   6.970   7.933   2.028  0.3018 -0.4012  0.2412
    1CHTO   C19  323   6.924   7.884   1.903 -0.4200 -0.2298  0.7872
    1CHTO   H47  324   6.831   7.940   1.885 -1.2092 -1.9568 -0.7260
    1CHTO   C20  325   7.016   7.923   1.784 -0.4186 -0.3021  0.4948
    1CHTO   H48  326   7.121   7.897   1.804 -0.8356 -0.8865  2.0137
    1CHTO   O19  327   7.011   8.063   1.767 -0.0411  0.0365 -0.2597
    1CHTO   H35  328   7.083   8.103   1.722  1.7205 -0.8695  1.6309
    1CHTO   C21  329   6.966   7.849   1.649  0.1107 -0.2842 -0.3427
    1CHTO   H49  330   6.867   7.882   1.618 -0.4154 -1.3312  0.2007
    1CHTO    N4  331   7.057   7.876   1.532 -0.3956  0.1070 -0.5925
    1CHTO   H41  332   7.037   7.818   1.443 -0.2952 -0.5182 -0.2170
    1CHTO   H42  333   7.045   7.981   1.510  3.3600  0.7416  0.0948
    1CHTO   C22  334   6.945   7.698   1.671 -0.0993  0.0705 -0.1289
    1CHTO   H50  335   7.033   7.648   1.710 -0.3046 -1.2636 -1.3567
    1CHTO   O14  336   6.848   7.677   1.778  0.5335 -1.0133 -0.1751
    1CHTO   C23  337   6.887   7.731   1.907 -0.0320 -0.4039  0.7475
    1CHTO   H51  338   6.973   7.670   1.937  0.2044 -0.4976 -0.1153
    1CHTO   C34  339   6.772   7.706   2.004 -0.2195  0.3271  0.6174
    1CHTO   O23  340   6.750   7.564   2.007  0.5576  0.0840  0.5566
    1CHTO   H38  341   6.659   7.540   2.004  0.8846 -1.0553 -2.1342
    1CHTO   O16  342   6.891   7.620   1.563 -0.2696  0.2907  0.5596
    1CHTO   C24  343   6.987   7.488   1.521  0.2406  0.0452 -0.7847
    1CHTO   H52  344   7.086   7.494   1.567 -0.5188  1.3248  0.7389
    1CHTO   C26  345   6.994   7.490   1.370 -0.8763 -0.2277  0.2244
    1CHTO   H54  346   6.893   7.473   1.328 -0.8577 -0.2265  0.1782
    1CHTO   O20  347   7.048   7.622   1.339  0.0885 -0.2644  0.0034
    1CHTO   H36  348   6.983   7.689   1.333 -1.3065 -1.6367 -0.6747
    1CHTO   C30  349   7.096   7.378   1.325  0.0462  0.3945 -0.4112
    1CHTO   H58  350   7.190   7.403   1.377  0.6099 -1.2075 -0.6508
    1CHTO    N6  351   7.119   7.376   1.178  0.7826  0.1067  0.1522
    1CHTO   H45  352   7.087   7.474   1.145  2.7454  0.4666 -0.7899
    1CHTO   H46  353   7.050   7.300   1.146  0.6201 -0.1743  1.1511
    1CHTO   C33  354   7.045   7.244   1.386 -0.5221 -0.3266 -0.0697
    1CHTO   H61  355   6.948   7.218   1.339 -1.5464  0.7893  1.3776
    1CHTO   O18  356   7.025   7.256   1.528 -0.7652  0.6085 -0.0527
    1CHTO   C28  357   6.926   7.353   1.570  0.2037  0.2072 -0.5912
    1CHTO   H56  358   6.836   7.334   1.512  0.1769  0.8121 -0.7442
    1CHTO   C35  359   6.894   7.343   1.718 -0.4457  0.2377 -0.3532
    1CHTO   O24  360   6.815   7.233   1.756 -0.1970 -0.6592 -0.8008
    1CHTO   H39  361   6.878   7.163   1.756  0.5729  0.0166 -0.0763
    1CHTO    O9  362   7.140   7.138   1.355  0.8053  0.3447  0.5211
    1CHTO   C13  363   7.074   6.987   1.319  0.8190  0.4737  0.7482
    1CHTO   H26  364   6.973   7.005   1.275  0.8082  0.8324  0.9146
    1CHTO   C11  365   7.065   6.895   1.444  0.4162  0.1541  0.1851
    1CHTO   H24  366   6.979   6.935   1.501 -0.8463  0.5461 -1.9389
    1CHTO    O8  367   7.177   6.899   1.532  0.3040  0.4980 -0.0877
    1CHTO    H3  368   7.246   6.848   1.495 -0.0547 -0.0915  0.0460
    1CHTO    C9  369   7.022   6.754   1.394  0.6602 -0.1474 -0.0473
    1CHTO   H22  370   6.934   6.765   1.328 -0.1921 -0.9755  0.9502
    1CHTO    N2  371   6.975   6.661   1.502 -0.0411 -0.5099  0.0049
    1CHTO   H10  372   7.051   6.634   1.574 -1.0171  1.2389  1.7443
    1CHTO   H11  373   6.895   6.707   1.557  0.7068 -0.2228  0.8687
    1CHTO    C7  374   7.136   6.698   1.306  0.5842  0.0951  0.4182
    1CHTO   H20  375   7.108   6.595   1.275  1.0429  0.3571 -0.9042
    1CHTO    O4  376   7.154   6.784   1.192  0.3014 -0.7769 -0.3732
    1CHTO   C14  377   7.167   6.927   1.208  0.1490  0.0180 -0.2073
    1CHTO   H27  378   7.142   6.986   1.117 -0.1438  2.2096  1.2423
    1CHTO   C18  379   7.321   6.946   1.231  0.4490 -0.7661  0.3808
    1CHTO   O13  380   7.348   7.087   1.201 -0.0743 -0.7483  0.7065
    1CHTO    H7  381   7.421   7.114   1.255 -0.4584  0.3401  0.6929
    1CHTO    O2  382   7.284   6.682   1.391  0.1445 -0.1791 -0.3022
    1CHTO    C1  383   7.361   6.563   1.391 -0.2493 -0.0272  0.0197
    1CHTO   H14  384   7.288   6.485   1.362  0.5888 -1.5184  1.8421
    1CHTO    C2  385   7.416   6.522   1.543  0.1644  0.0527 -0.2578
    1CHTO   H15  386   7.454   6.613   1.591  1.3529 -1.7174  2.2924
    1CHTO    O6  387   7.306   6.481   1.619  0.4412 -0.4639  0.6549
    1CHTO    H1  388   7.312   6.388   1.634 -2.3230 -0.8855 -0.5773
    1CHTO    C3  389   7.532   6.411   1.536 -0.2216 -0.8234  0.5186
    1CHTO   H16  390   7.481   6.318   1.507 -1.2448 -0.1044  0.0011
    1CHTO    N1  391   7.589   6.386   1.675 -0.0765  0.0029  0.3409
    1CHTO    H8  392   7.614   6.480   1.722 -1.1864  0.9408 -0.8830
    1CHTO    H9  393   7.512   6.339   1.734  1.0056 -2.0294  0.1782
    1CHTO    C4  394   7.628   6.439   1.422  0.3992 -0.2708  0.0025
    1CHTO   H17  395   7.677   6.535   1.435  0.3137 -0.1092 -0.8954
    1CHTO    O1  396   7.549   6.441   1.304  0.5849 -0.5138 -0.1482
    1CHTO    C5  397   7.479   6.565   1.283  0.3594 -0.0217  0.0837
    1CHTO   H18  398   7.544   6.650   1.305 -0.7138  0.5161  1.2298
    1CHTO   C16  399   7.425   6.569   1.141  0.4700 -0.3801  0.1633
    1CHTO   O11  400   7.526   6.561   1.043  0.0182 -0.0608 -0.4370
    1CHTO    H5  401   7.593   6.627   1.046  1.6565 -1.6551 -0.8086
    1CHTO    O3  402   7.724   6.335   1.394 -0.1042  0.0646  0.3140
    1CHTO    C6  403   7.861   6.384   1.363  0.0917 -0.8321 -0.2680
    1CHTO   H19  404   7.864   6.493   1.355 -0.6715 -0.7510  0.4236
    1CHTO    C8  405   7.968   6.331   1.471 -0.2568  0.2998 -0.4695
    1CHTO   H21  406   7.947   6.227   1.493  1.7644 -0.2074 -0.8478
    1CHTO    O7  407   7.946   6.412   1.593  0.2651 -0.1413 -0.5262
    1CHTO    H2  408   7.963   6.359   1.669  2.1197  0.4503 -0.5100
    1CHTO   C12  409   8.124   6.348   1.426 -0.0978  0.5159 -0.2075
    1CHTO   H25  410   8.148   6.457   1.426  0.0916  0.4868  0.7533
    1CHTO    N3  411   8.216   6.278   1.522  0.1792 -0.4330  0.4081
    1CHTO   H12  412   8.188   6.176   1.543  0.7392 -0.6394  0.1603
    1CHTO   H13  413   8.215   6.341   1.611 -2.3907 -1.0810  0.8752
    1CHTO   C15  414   8.133   6.297   1.285  0.3118  0.1957 -0.4296
    1CHTO   H28  415   8.120   6.189   1.281  0.5755  0.1747 -0.7505
    1CHTO   O10  416   8.283   6.329   1.224  0.1043 -0.1833  0.2744
    1CHTO    H4  417   8.355   6.277   1.254  0.8214 -0.7969 -2.3444
    1CHTO    O5  418   8.046   6.358   1.190  0.2929  0.4752 -0.2051
    1CHTO   C10  419   7.907   6.332   1.229  0.0801  0.1893  0.0997
    1CHTO   H23  420   7.897   6.224   1.218  0.0148  0.0665  1.2678
    1CHTO   C17  421   7.835   6.391   1.112 -0.1660 -0.1276 -0.3346
    1CHTO   O12  422   7.872   6.325   0.988 -0.0778  0.1492 -0.6800
    1CHTO    H6  423   7.818   6.249   0.992 -0.8786  0.6764 -1.1175
    2CHTO  H203  424   6.820   4.823   2.605  0.8175  0.2078  0.0385
    2CHTO   O82  425   6.774   4.763   2.661 -0.1801  0.2001 -0.7867
    2CHTO  C123  426   6.640   4.809   2.684  0.1836 -0.3719  0.0465
    2CHTO  H227  427   6.637   4.916   2.659 -1.1784  0.2458  2.6162
    2CHTO   O77  428   6.556   4.725   2.601 -0.3182  0.6134  0.4208
    2CHTO  C118  429   6.426   4.779   2.591  0.1259 -0.0268  0.1401
    2CHTO  H222  430   6.436   4.885   2.564 -0.3929  0.2903  1.1601
    2CHTO  C125  431   6.359   4.689   2.476 -0.0566  0.0990 -0.1332
    2CHTO   O84  432   6.232   4.733   2.425  0.0097  0.4288  0.5149
    2CHTO  H205  433   6.247   4.769   2.339  0.4083 -0.2091  0.3148
    2CHTO  C114  434   6.360   4.750   2.730  0.3501  0.5712  0.4192
    2CHTO  H218  435   6.353   4.642   2.741 -1.4121  0.2027 -3.4325
    2CHTO  C116  436   6.443   4.800   2.846  0.1935  0.5541  0.1419
    2CHTO  H220  437   6.409   4.903   2.870 -0.0661  0.2994  0.8832
    2CHTO   O79  438   6.414   4.727   2.962  0.2986 -0.3472  0.1393
    2CHTO  H201  439   6.328   4.739   2.998  0.5950  0.8050  0.4878
    2CHTO  C120  440   6.598   4.795   2.832  0.6257  0.1444 -0.0228
    2CHTO  H224  441   6.638   4.701   2.877 -0.5275 -0.3140  0.0638
    2CHTO   N21  442   6.653   4.896   2.921 -0.2438 -0.1922  0.2516
    2CHTO  H211  443   6.690   4.856   3.015  0.6996  1.4103  0.5865
    2CHTO  H212  444   6.731   4.950   2.869  0.1998 -0.7246  0.3598
    2CHTO   O75  445   6.219   4.798   2.719  0.0360  0.1461 -0.2954
    2CHTO  C112  446   6.115   4.695   2.773  0.7662 -0.2855 -0.1763
    2CHTO  H216  447   6.167   4.613   2.825 -0.4381 -0.3337  0.9842
    2CHTO   O73  448   6.048   4.647   2.657 -0.8484 -0.3454 -0.2758
    2CHTO  C113  449   5.929   4.570   2.687 -1.0229 -0.1085  0.2891
    2CHTO  H217  450   5.960   4.487   2.754  2.0773  0.3566 -0.4533
    2CHTO  C124  451   5.894   4.506   2.555 -0.0824  0.1356  0.2164
    2CHTO   O83  452   5.973   4.395   2.506  0.0186  0.7639  0.4450
    2CHTO  H204  453   6.065   4.411   2.492  0.0978 -0.3152 -0.3528
    2CHTO  C109  454   5.820   4.662   2.753  0.4050  0.5571  0.0862
    2CHTO  H213  455   5.807   4.746   2.684 -0.8669 -0.4551 -0.9341
    2CHTO  C110  456   5.878   4.713   2.888 -0.1696  0.4748  0.1811
    2CHTO  H214  457   5.885   4.622   2.947 -1.1584  0.2894  0.0231
    2CHTO   O78  458   5.787   4.812   2.944 -0.1559 -0.0344  0.1199
    2CHTO  H200  459   5.699   4.786   2.923  0.5648 -1.7950 -0.8430
    2CHTO  C111  460   6.012   4.785   2.862  0.3456 -0.0208  0.2381
    2CHTO  H215  461   5.992   4.879   2.808  2.4668  1.8894  2.6686
    2CHTO   N19  462   6.083   4.822   2.988  0.1191  0.6947 -0.1448
    2CHTO  H207  463   6.116   4.923   2.971 -2.0247  1.1503 -1.8264
    2CHTO  H208  464   6.021   4.807   3.076  1.2146 -0.7462  0.4096
    2CHTO   O74  465   5.688   4.585   2.757 -0.1188 -0.1222 -0.2902
    2CHTO  C115  466   5.569   4.630   2.650 -0.2353 -0.5333  0.2958
    2CHTO  H219  467   5.569   4.738   2.632 -0.0032 -0.6162 -0.1957
    2CHTO   O76  468   5.587   4.557   2.507 -0.0780  0.3418 -0.0454
    2CHTO  C122  469   5.498   4.597   2.409  0.0726  0.1483  0.1615
    2CHTO  H226  470   5.519   4.527   2.329  3.3257 -1.2334  2.1330
    2CHTO  C126  471   5.555   4.742   2.353 -0.1064 -0.1122 -0.6476
    2CHTO   O85  472   5.682   4.726   2.286  0.1445 -0.3154 -0.3985
    2CHTO  H206  473   5.721   4.802   2.247  0.1125 -0.2859 -0.3719
    2CHTO  C121  474   5.342   4.600   2.456 -0.1876 -0.6178  0.5360
    2CHTO  H225  475   5.288   4.660   2.380 -0.3158 -0.7080  0.5558
    2CHTO   O81  476   5.286   4.469   2.442 -0.4092 -0.2743  0.4108
    2CHTO  H202  477   5.194   4.480   2.453 -0.5083 -1.2465  0.6227
    2CHTO  C119  478   5.330   4.673   2.591 -0.3091 -0.1954 -0.4950
    2CHTO  H223  479   5.363   4.776   2.584 -0.0663 -0.0481  2.2101
    2CHTO  C117  480   5.426   4.599   2.699 -1.0078 -0.3371 -0.0264
    2CHTO  H221  481   5.411   4.494   2.725  0.3425 -0.6916 -0.6391
    2CHTO   N20  482   5.409   4.676   2.829  0.2128 -0.7580 -0.2999
    2CHTO  H209  483   5.399   4.623   2.923 -0.4209 -0.0858  0.0116
    2CHTO  H210  484   5.326   4.744   2.828  0.1085 -0.8503  0.8091
    2CHTO   O80  485   5.174   4.695   2.638  0.2311 -0.2974  0.1428
    2CHTO  C103  486   5.070   4.785   2.538  0.1740 -0.7384 -0.0597
    2CHTO  H190  487   5.112   4.817   2.442 -1.3119  0.0813 -0.4572
    2CHTO  C101  488   4.943   4.710   2.489 -0.1092  0.4351 -0.3339
    2CHTO  H188  489   4.901   4.661   2.576  0.4880  1.2450  0.4208
    2CHTO   O68  490   5.006   4.595   2.391  0.3319 -0.5577 -0.3650
    2CHTO  H168  491   4.948   4.536   2.348 -1.9977  2.0888 -0.9792
    2CHTO   C99  492   4.833   4.802   2.413 -0.1967 -0.0899 -0.0925
    2CHTO  H186  493   4.889   4.845   2.327  2.8531 -4.3122 -0.3611
    2CHTO   N17  494   4.710   4.721   2.361  0.4175  0.5234  0.7629
    2CHTO  H174  495   4.612   4.748   2.397  0.0020 -0.9089  0.7533
    2CHTO  H175  496   4.721   4.614   2.352  2.0410  0.7156  0.3468
    2CHTO   C97  497   4.803   4.925   2.502 -0.3641 -0.2366 -0.2652
    2CHTO  H184  498   4.751   4.896   2.595 -0.7848 -0.2817 -0.5121
    2CHTO   O64  499   4.927   4.991   2.535 -0.8991  0.1975 -0.3086
    2CHTO  C104  500   5.020   4.914   2.617  0.2526  0.1903 -0.1644
    2CHTO  H191  501   4.960   4.886   2.705  1.0584  0.0393  0.3376
    2CHTO  C108  502   5.135   5.010   2.667 -1.0157 -0.9088 -0.0866
    2CHTO   O71  503   5.083   5.121   2.744 -0.0059 -0.3027  0.1548
    2CHTO  H171  504   5.013   5.165   2.700 -1.3605 -1.7830  0.7868
    2CHTO   O62  505   4.709   5.026   2.454 -0.2423 -0.0049  0.1594
    2CHTO   C91  506   4.748   5.108   2.341 -0.6617 -0.0600  0.2572
    2CHTO  H178  507   4.830   5.056   2.292 -1.8704 -1.4573 -0.3052
    2CHTO   C92  508   4.797   5.250   2.393  0.4715  0.8574  0.3335
    2CHTO  H179  509   4.872   5.243   2.474 -0.3156 -1.7180  0.8686
    2CHTO   O66  510   4.864   5.313   2.279 -0.3816  0.6767 -0.2753
    2CHTO  H166  511   4.916   5.387   2.306  1.0537  0.2557 -1.8255
    2CHTO   C93  512   4.680   5.346   2.442  0.1655  0.2408 -0.0889
    2CHTO  H180  513   4.722   5.447   2.434  3.4567 -0.7160  3.5635
    2CHTO   N16  514   4.627   5.315   2.580  0.3912 -0.0666 -0.0138
    2CHTO  H172  515   4.520   5.328   2.585  0.3549 -1.0292  1.9453
    2CHTO  H173  516   4.665   5.229   2.633  1.1228  0.3797  0.2048
    2CHTO   C94  517   4.565   5.341   2.338 -0.2515  0.0490  0.3753
    2CHTO  H181  518   4.474   5.385   2.378 -0.7381 -1.3737  0.8926
    2CHTO   O61  519   4.527   5.211   2.286 -0.4167 -0.1746  0.0225
    2CHTO   C95  520   4.630   5.125   2.237 -0.1863 -0.0136  0.3747
    2CHTO  H182  521   4.585   5.027   2.220 -0.6408  0.0566  1.1917
    2CHTO  C106  522   4.682   5.163   2.094 -0.0059 -0.3590  0.0823
    2CHTO   O69  523   4.766   5.068   2.029  0.5320 -0.0975  0.1114
    2CHTO  H169  524   4.850   5.073   2.071  0.2608 -0.4019  0.7031
    2CHTO   O63  525   4.612   5.437   2.216 -0.5399  0.5122 -0.0610
    2CHTO   C96  526   4.566   5.605   2.234  0.6490  0.0230 -0.1502
    2CHTO  H183  527   4.618   5.656   2.316 -0.9190 -0.8514  1.4376
    2CHTO   C98  528   4.417   5.640   2.262 -0.0017  0.7026  0.0532
    2CHTO  H185  529   4.353   5.584   2.191  0.2553  2.4699 -1.6235
    2CHTO   O67  530   4.380   5.597   2.395 -0.5878  0.5153 -0.1695
    2CHTO  H167  531   4.295   5.557   2.388 -0.4207 -0.0071  0.6586
    2CHTO  C102  532   4.372   5.800   2.247 -0.3060 -0.1529 -0.1145
    2CHTO  H189  533   4.412   5.849   2.338  0.7502  0.0829 -0.7000
    2CHTO   N18  534   4.229   5.830   2.247  0.3739 -0.6714 -0.4218
    2CHTO  H176  535   4.201   5.803   2.348  1.1924  0.7019  0.1825
    2CHTO  H177  536   4.213   5.934   2.222 -1.4631 -0.5289  1.2909
    2CHTO  C105  537   4.454   5.867   2.136  0.0009 -0.3183  0.4834
    2CHTO  H192  538   4.389   5.875   2.050  1.5467  0.6502 -0.6369
    2CHTO   O65  539   4.582   5.810   2.099 -0.1539 -0.3232  0.1678
    2CHTO  C100  540   4.606   5.667   2.095 -0.5724  0.1939  0.4544
    2CHTO  H187  541   4.548   5.618   2.015  0.7036 -3.5408  1.6972
    2CHTO  C107  542   4.758   5.647   2.069 -0.0599 -0.6794 -0.7728
    2CHTO   O70  543   4.842   5.695   2.172  0.4798 -0.4140  0.0022
    2CHTO  H170  544   4.830   5.787   2.181 -0.0785 -0.4700 -0.1556
    2CHTO   O57  545   4.471   6.016   2.195 -0.2394  0.1313  1.0955
    2CHTO   C85  546   4.398   6.124   2.139  0.3289  0.1883 -0.5487
    2CHTO  H157  547   4.297   6.089   2.111 -0.3309  1.4163  0.2513
    2CHTO   C83  548   4.476   6.174   2.008  0.4577 -0.4016 -0.2296
    2CHTO  H155  549   4.462   6.099   1.931  0.7951 -1.5217  0.7915
    2CHTO   O56  550   4.618   6.182   2.026 -0.0515  0.3302 -0.1615
    2CHTO  H135  551   4.646   6.116   2.085 -2.1032  0.2598  0.7897
    2CHTO   C81  552   4.403   6.304   1.959  0.3941  0.1735 -0.0296
    2CHTO  H153  553   4.299   6.278   1.941  0.4786 -0.2975  0.1546
    2CHTO   N14  554   4.449   6.357   1.830 -0.1554 -0.2297  0.0272
    2CHTO  H141  555   4.383   6.432   1.790  0.4984 -0.7726 -2.1612
    2CHTO  H142  556   4.545   6.402   1.845  0.2588 -0.1123 -2.6222
    2CHTO   C79  557   4.412   6.422   2.069  0.6433 -0.5727 -0.8062
    2CHTO  H151  558   4.352   6.504   2.029 -0.9642 -1.4749 -0.3108
    2CHTO   O52  559   4.353   6.376   2.196 -0.0979  0.3252  0.2390
    2CHTO   C86  560   4.387   6.247   2.247 -0.0637  0.5890  0.5015
    2CHTO  H158  561   4.478   6.266   2.309 -1.2565  0.9675  2.1602
    2CHTO   C90  562   4.282   6.202   2.351 -0.6506 -0.2104 -0.0473
    2CHTO   O60  563   4.300   6.276   2.466  0.6792 -0.0085 -0.4727
    2CHTO  H138  564   4.220   6.314   2.495  1.3707  1.0696  0.0321
    2CHTO   O50  565   4.544   6.473   2.093  0.0319 -0.3771 -0.3869
    2CHTO   C73  566   4.636   6.569   2.147  0.5293 -0.9509 -0.1252
    2CHTO  H145  567   4.574   6.656   2.174  0.5405 -1.0121  0.0912
    2CHTO   C74  568   4.738   6.620   2.039 -0.1513  0.7831 -0.5155
    2CHTO  H146  569   4.680   6.652   1.951 -1.7340  0.7216  0.4780
    2CHTO   O54  570   4.802   6.736   2.099  1.1130  0.3184  0.2370
    2CHTO  H133  571   4.887   6.759   2.066  1.9401 -0.6700  1.6541
    2CHTO   C75  572   4.829   6.493   2.004 -0.1217 -0.6550 -0.5054
    2CHTO  H147  573   4.763   6.417   1.959 -1.4526  0.5428 -0.6291
    2CHTO   N13  574   4.939   6.526   1.908 -0.1338  0.7945  0.1467
    2CHTO  H139  575   4.914   6.588   1.824 -0.6302  1.5285  0.8235
    2CHTO  H140  576   4.995   6.447   1.861  1.2584 -0.0460  3.0878
    2CHTO   C76  577   4.890   6.432   2.132  0.3361 -0.5446  0.5599
    2CHTO  H148  578   4.954   6.508   2.177 -0.3630  1.7514 -2.1528
    2CHTO   O49  579   4.786   6.400   2.233 -0.1511  0.0286  0.4791
    2CHTO   C77  580   4.706   6.514   2.276  0.3483  0.2626 -0.5234
    2CHTO  H149  581   4.780   6.587   2.311  0.4416  0.0011 -0.1738
    2CHTO   C88  582   4.622   6.473   2.398  0.5324 -0.2831  0.7367
    2CHTO   O58  583   4.550   6.590   2.440  0.1471 -0.3351  0.4868
    2CHTO  H136  584   4.611   6.660   2.450 -1.2202  1.0109 -0.3047
    2CHTO   O51  585   4.968   6.289   2.097 -0.0775  0.1597 -0.0405
    2CHTO   C78  586   5.037   6.205   2.199  0.7409  0.2432 -0.5479
    2CHTO  H150  587   5.030   6.253   2.299 -0.7869 -0.6868 -0.1856
    2CHTO   C80  588   5.184   6.181   2.166  0.3122 -0.1934  0.3235
    2CHTO  H152  589   5.184   6.143   2.062 -0.6951  0.1823  0.1810
    2CHTO   O55  590   5.251   6.310   2.160  0.5806  0.2433 -0.1298
    2CHTO  H134  591   5.218   6.359   2.087 -2.4878 -2.2183 -0.4939
    2CHTO   C84  592   5.257   6.075   2.259 -0.0096  0.2854 -1.0519
    2CHTO  H156  593   5.276   6.128   2.352 -0.9005  0.3570 -0.9066
    2CHTO   N15  594   5.393   6.042   2.202  0.3101 -0.0999 -0.3763
    2CHTO  H143  595   5.459   6.127   2.206  0.5469 -0.2642 -0.7631
    2CHTO  H144  596   5.433   5.965   2.264  1.4304  0.8850  0.1590
    2CHTO   C87  597   5.175   5.947   2.277  0.4529 -0.0496 -0.1412
    2CHTO  H159  598   5.166   5.873   2.198 -1.1339 -0.9525  0.8801
    2CHTO   O53  599   5.032   5.986   2.309 -0.7739 -0.5758 -0.3734
    2CHTO   C82  600   4.975   6.061   2.205  0.0938 -0.4260  0.9592
    2CHTO  H154  601   4.990   6.012   2.109  0.5082  0.6162  0.4832
    2CHTO   C89  602   4.822   6.063   2.236  0.6783  0.6664 -0.3780
    2CHTO   O59  603   4.759   5.941   2.282 -0.6504 -0.8111  0.0221
    2CHTO  H137  604   4.816   5.867   2.271  0.9190  0.3533  0.1946
    2CHTO   O45  605   5.254   5.856   2.402 -0.6264  0.1051  0.1930
    2CHTO   C67  606   5.168   5.802   2.502 -0.3118 -0.2023  0.4803
    2CHTO  H124  607   5.071   5.850   2.491 -0.6977 -1.1966 -0.5422
    2CHTO   C65  608   5.151   5.660   2.466  0.1262  0.4788  0.3488
    2CHTO  H122  609   5.235   5.630   2.403 -2.4411 -1.7496 -2.1213
    2CHTO   O44  610   5.029   5.638   2.399 -0.0555 -0.7296 -0.0325
    2CHTO  H102  611   4.962   5.638   2.464 -0.3709  1.5015 -0.3004
    2CHTO   C63  612   5.163   5.564   2.596 -0.2190  0.1694 -0.6110
    2CHTO  H120  613   5.263   5.575   2.638 -0.4968  1.4082 -0.2658
    2CHTO   N11  614   5.149   5.414   2.575 -0.0711 -0.0241 -0.4832
    2CHTO  H108  615   5.134   5.390   2.472  2.0635 -0.2813 -0.7510
    2CHTO  H109  616   5.078   5.375   2.645  2.3745  0.5034  2.3994
    2CHTO   C61  617   5.074   5.627   2.711  0.0449  0.2241  0.1967
    2CHTO  H118  618   5.103   5.565   2.797  3.2522 -1.0121 -1.7196
    2CHTO   O40  619   5.108   5.764   2.740 -0.0431  0.0712 -0.7139
    2CHTO   C68  620   5.209   5.827   2.654  0.3116 -0.8582 -0.2078
    2CHTO  H125  621   5.309   5.780   2.667  1.7471  1.8685 -0.9261
    2CHTO   C72  622   5.230   5.978   2.681 -0.3803 -0.1989  0.4129
    2CHTO   O48  623   5.263   6.017   2.816  0.0821 -0.4719 -0.5148
    2CHTO  H105  624   5.349   5.990   2.842  0.1930  0.2399 -0.1300
    2CHTO   O38  625   4.935   5.615   2.672 -0.1660  0.3285 -0.2845
    2CHTO   C55  626   4.832   5.629   2.776 -0.2916  0.0205  0.3786
    2CHTO  H112  627   4.856   5.713   2.844 -0.1671 -0.2522  0.6716
    2CHTO   C56  628   4.814   5.495   2.859  0.1063 -0.1007  0.6221
    2CHTO  H113  629   4.818   5.412   2.787 -0.2424 -1.6056  2.2807
    2CHTO   O42  630   4.923   5.469   2.944  0.0394  0.6295 -0.2318
    2CHTO  H100  631   4.961   5.550   2.971  0.6174  0.0734  0.6675
    2CHTO   C57  632   4.678   5.487   2.944 -0.6282  0.3301 -0.2069
    2CHTO  H114  633   4.708   5.525   3.041  0.8914  0.2023 -0.6135
    2CHTO   N10  634   4.624   5.353   2.961 -0.2447  0.3288 -0.5398
    2CHTO  H106  635   4.519   5.365   2.981 -0.3042  0.1827 -0.7694
    2CHTO  H107  636   4.634   5.303   2.866 -1.3425 -0.3763 -0.2850
    2CHTO   C58  637   4.566   5.584   2.890  0.0402 -0.3650 -0.1449
    2CHTO  H115  638   4.495   5.529   2.825 -0.6018  0.1697  0.1085
    2CHTO   O37  639   4.608   5.704   2.820 -0.1813 -0.2212 -0.0379
    2CHTO   C59  640   4.699   5.676   2.715  0.5838  0.5529 -0.0620
    2CHTO  H116  641   4.662   5.600   2.647  0.6352 -0.0810  0.6194
    2CHTO   C70  642   4.707   5.801   2.629  0.2155  0.2106 -0.0339
    2CHTO   O46  643   4.586   5.826   2.554  0.1508 -0.3339 -1.0427
    2CHTO  H103  644   4.572   5.747   2.505  0.9651 -0.3591 -1.2451
    2CHTO   O39  645   4.474   5.647   3.025  0.3349 -0.2580  0.5657
    2CHTO   C60  646   4.355   5.708   2.979  0.4532  0.2820 -0.1692
    2CHTO  H117  647   4.351   5.733   2.872  1.1890 -1.0040 -0.5053
    2CHTO   C62  648   4.235   5.608   3.015  0.0544  0.3354 -0.3560
    2CHTO  H119  649   4.255   5.521   2.949  1.1324  1.3976 -1.4558
    2CHTO   O43  650   4.247   5.563   3.151 -0.0457 -0.0946 -0.5035
    2CHTO  H101  651   4.182   5.495   3.157  1.6531 -1.6669  0.7639
    2CHTO   C66  652   4.094   5.673   2.980 -0.1483 -0.1152 -0.3282
    2CHTO  H123  653   4.093   5.698   2.874  2.3864 -0.9590 -0.5893
    2CHTO   N12  654   3.983   5.586   3.010  0.3622 -0.1824 -0.1225
    2CHTO  H110  655   3.958   5.523   2.926 -3.6832  0.8268  0.2341
    2CHTO  H111  656   3.901   5.648   3.043 -0.4614 -1.1530 -0.3291
    2CHTO   C69  657   4.089   5.803   3.063  0.5338  0.0325  0.3749
    2CHTO  H126  658   4.077   5.779   3.171 -3.5067  1.6714  0.3708
    2CHTO   O41  659   4.209   5.889   3.034  0.2755  0.1855  0.6180
    2CHTO   C64  660   4.328   5.837   3.055  0.2735 -0.2174 -0.2951
    2CHTO  H121  661   4.340   5.814   3.163  3.0926  0.7640 -0.3739
    2CHTO   C71  662   4.448   5.930   3.037  0.1348 -0.1280 -0.4006
    2CHTO   O47  663   4.445   5.993   2.905 -0.7401 -0.3735  0.3136
    2CHTO  H104  664   4.384   6.064   2.908  0.0589  0.6850 -4.2042
    2CHTO   O34  665   3.963   5.889   3.029 -0.4035 -0.2620  0.4463
    2CHTO   C49  666   3.867   5.989   2.998 -0.5270 -0.3345  0.5073
    2CHTO   H91  667   3.774   5.939   3.026 -0.6713  1.2105  2.9665
    2CHTO   C47  668   3.866   6.000   2.842 -0.9462 -0.3811  0.5471
    2CHTO   H89  669   3.778   6.066   2.824  0.9556  2.5791  1.5603
    2CHTO   O33  670   3.852   5.868   2.782 -0.5412 -0.2176 -0.3052
    2CHTO   H70  671   3.762   5.846   2.765 -0.3122 -0.7588 -0.8164
    2CHTO   C45  672   4.006   6.077   2.796 -0.0204  0.4324 -0.4849
    2CHTO   H87  673   4.088   6.015   2.835 -0.4290  0.8395  1.0675
    2CHTO    N8  674   4.016   6.097   2.651  0.0104 -0.6131  0.9173
    2CHTO   H75  675   4.116   6.125   2.624  0.0037 -2.1760 -0.8359
    2CHTO   H76  676   4.007   6.006   2.594 -1.0161  0.2736 -0.3750
    2CHTO   C43  677   4.011   6.218   2.876 -0.1859  0.8307 -0.2904
    2CHTO   H85  678   4.103   6.270   2.849  0.2729  0.2455  0.1431
    2CHTO   O29  679   3.999   6.203   3.018  0.5085 -0.1927  0.0736
    2CHTO   C50  680   3.891   6.125   3.072 -0.0147 -0.4441  0.1445
    2CHTO   H92  681   3.916   6.109   3.178 -0.1122  2.1845  0.6082
    2CHTO   C54  682   3.755   6.200   3.082  0.3108  0.1701 -0.1007
    2CHTO   O36  683   3.650   6.137   3.160  0.0220  0.2138 -0.4529
    2CHTO   H72  684   3.588   6.198   3.193  0.5419 -0.4333  1.8282
    2CHTO   O27  685   3.901   6.298   2.826 -0.0046 -0.1749 -0.1313
    2CHTO   C37  686   3.867   6.428   2.776  1.0029 -0.0450 -0.3731
    2CHTO   H79  687   3.920   6.449   2.681 -1.6211 -0.0819 -1.8889
    2CHTO   C38  688   3.720   6.438   2.730 -0.2079 -0.6340 -0.7845
    2CHTO   H80  689   3.661   6.403   2.816  3.4222 -0.6025  1.8348
    2CHTO   O31  690   3.705   6.342   2.624  0.0136  0.4557 -0.1303
    2CHTO   H68  691   3.620   6.303   2.626  0.4816 -0.5670  1.1040
    2CHTO   C39  692   3.667   6.584   2.681  0.2123 -0.3929 -0.3922
    2CHTO   H81  693   3.726   6.609   2.593 -0.7097 -1.5644 -1.3544
    2CHTO    N7  694   3.518   6.602   2.632  0.4646 -0.3039 -0.0843
    2CHTO   H73  695   3.452   6.530   2.676  0.4479 -0.5798 -0.5540
    2CHTO   H74  696   3.483   6.703   2.650 -1.1980 -0.6778 -1.1237
    2CHTO   C40  697   3.715   6.689   2.785 -0.4976 -0.4765 -0.2120
    2CHTO   H82  698   3.664   6.667   2.879  2.0333  1.6250  1.7503
    2CHTO   O26  699   3.859   6.674   2.796 -0.1901  0.1262  0.3172
    2CHTO   C41  700   3.888   6.547   2.863  0.2984 -0.1918  0.0939
    2CHTO   H83  701   3.828   6.537   2.954 -1.7398 -1.7014 -1.3693
    2CHTO   C52  702   4.037   6.556   2.893 -0.6065 -0.3454 -0.4892
    2CHTO   O35  703   4.063   6.700   2.976  0.0558  0.6209 -0.3438
    2CHTO   H71  704   4.140   6.685   3.028 -0.9680  0.3569  1.1360
    2CHTO   O28  705   3.688   6.823   2.738 -0.2096 -0.0270 -0.0470
    2CHTO   C42  706   3.700   6.936   2.829 -0.5068 -0.3672 -0.1508
    2CHTO   H84  707   3.672   7.021   2.768  1.0136 -0.8842 -1.6406
    2CHTO   C44  708   3.848   6.965   2.876  0.0537 -0.3583 -0.4909
    2CHTO   H86  709   3.897   6.876   2.914 -2.1599 -1.2004  0.5067
    2CHTO   O32  710   3.916   6.989   2.757  0.0353  0.1328 -0.3252
    2CHTO   H69  711   4.008   6.970   2.749  0.5761  1.1731  2.7219
    2CHTO   C48  712   3.853   7.085   2.983 -0.5303 -0.2386 -0.5833
    2CHTO   H90  713   3.816   7.174   2.932 -1.8918  0.0492  0.8544
    2CHTO    N9  714   3.991   7.116   3.032  0.0604  0.2914  0.0001
    2CHTO   H77  715   3.986   7.209   3.087 -0.1239 -0.1564  0.7544
    2CHTO   H78  716   4.073   7.112   2.963 -2.1105 -1.4438 -2.5893
    2CHTO   C51  717   3.742   7.054   3.092 -0.5131  0.5939 -0.1576
    2CHTO   H93  718   3.767   6.959   3.139  0.5062  0.7864 -0.3045
    2CHTO   O30  719   3.609   7.054   3.038 -0.1404  0.5885 -0.0513
    2CHTO   C46  720   3.599   6.930   2.948 -0.1758 -0.5781  0.2574
    2CHTO   H88  721   3.614   6.849   3.019  0.2077  1.0036  2.0273
    2CHTO   C53  722   3.451   6.929   2.902  0.0609  0.4051 -0.0596
    2CHTO   O72  723   3.389   7.063   2.875 -1.0951 -0.9048 -0.3168
    2CHTO  H199  724   3.296   7.051   2.886 -0.7844 -3.8823 -0.5091
    2CHTO   O22  725   3.719   7.158   3.183  0.6659  0.2468  0.1221
    2CHTO   C31  726   3.687   7.138   3.322 -0.5180  0.1319 -0.2462
    2CHTO   H59  727   3.671   7.239   3.365 -0.9593 -0.3326  0.6951
    2CHTO   C29  728   3.564   7.052   3.352  0.3452 -0.6620  0.0084
    2CHTO   H57  729   3.574   6.954   3.303  1.2319 -1.2368  1.3084
    2CHTO   O21  730   3.451   7.124   3.303  0.1882  0.1532 -0.3471
    2CHTO   H37  731   3.380   7.068   3.328  0.5602 -0.8037 -1.4089
    2CHTO   C27  732   3.541   7.026   3.509 -0.4274 -0.0777 -0.1463
    2CHTO   H55  733   3.498   7.117   3.552  1.0689  1.2879 -1.4639
    2CHTO    N5  734   3.440   6.922   3.529  0.6831 -0.1511 -0.0981
    2CHTO   H43  735   3.485   6.830   3.496  1.0992  0.8769 -2.5370
    2CHTO   H44  736   3.379   6.930   3.618 -0.6093  1.1543 -1.0675
    2CHTO   C25  737   3.675   6.997   3.577  0.0329  0.0325  0.7202
    2CHTO   H53  738   3.705   6.891   3.563 -0.2296 -0.2177  1.9981
    2CHTO   O17  739   3.784   7.078   3.540 -0.0920  0.6291  0.7303
    2CHTO   C32  740   3.814   7.086   3.402 -0.5663 -0.7920  0.0362
    2CHTO   H60  741   3.837   6.986   3.364  1.1432 -0.7147  0.8195
    2CHTO   C36  742   3.940   7.171   3.398 -0.2198  0.1287 -0.0989
    2CHTO   O25  743   3.909   7.309   3.406 -0.3536  0.2450 -0.8174
    2CHTO   H40  744   3.842   7.333   3.468  0.4274  1.3370 -0.3799
    2CHTO   O15  745   3.662   7.015   3.736  0.2887  0.1815 -0.0743
    2CHTO   C19  746   3.617   6.942   3.857  0.6618  0.8579 -0.6130
    2CHTO   H47  747   3.508   6.946   3.846  0.2482 -2.5844  1.6093
    2CHTO   C20  748   3.660   6.792   3.852 -0.2441  0.1989  0.1317
    2CHTO   H48  749   3.770   6.781   3.850 -0.4300 -2.6579  2.3520
    2CHTO   O19  750   3.620   6.732   3.730 -0.4016 -0.2901 -0.3586
    2CHTO   H35  751   3.588   6.645   3.745  1.7467 -0.9098  0.7338
    2CHTO   C21  752   3.605   6.718   3.979 -0.1577  0.3257 -0.2095
    2CHTO   H49  753   3.497   6.717   3.971 -0.3832  1.9222  2.0982
    2CHTO    N4  754   3.658   6.577   3.985  0.0683 -0.0619 -0.5617
    2CHTO   H41  755   3.635   6.540   4.084 -2.0801  0.0550 -0.9853
    2CHTO   H42  756   3.765   6.569   3.969  0.2012 -3.4286  1.5331
    2CHTO   C22  757   3.632   6.797   4.112  0.6081  0.5161 -0.1478
    2CHTO   H50  758   3.738   6.791   4.139 -0.2200 -4.1296  2.6305
    2CHTO   O14  759   3.595   6.936   4.095 -0.9872  0.4566 -0.3221
    2CHTO   C23  760   3.658   7.010   3.989 -0.6391 -0.9286 -0.2678
    2CHTO   H51  761   3.767   7.015   4.002 -0.7731 -2.3754  1.6500
    2CHTO   C34  762   3.594   7.150   3.992  0.2946 -0.0293  0.2333
    2CHTO   O23  763   3.616   7.208   4.116 -0.0300 -0.0994 -0.2677
    2CHTO   H38  764   3.668   7.286   4.111 -0.0727 -0.0849 -0.4965
    2CHTO   O16  765   3.548   6.740   4.215 -0.0914 -0.1891 -0.5294
    2CHTO   C24  766   3.603   6.742   4.358  0.2343 -1.0067  0.0514
    2CHTO   H52  767   3.674   6.823   4.374  0.4827 -1.0585 -0.7647
    2CHTO   C26  768   3.669   6.609   4.398  0.2537  0.1323  0.3973
    2CHTO   H54  769   3.589   6.534   4.384 -0.0601  1.2727 -5.0618
    2CHTO   O20  770   3.778   6.575   4.317  0.4267 -0.5094  0.5809
    2CHTO   H36  771   3.812   6.650   4.271  1.1266 -2.6874 -2.6924
    2CHTO   C30  772   3.708   6.613   4.550  0.3273 -0.7570 -0.1844
    2CHTO   H58  773   3.789   6.683   4.576 -1.0060  1.3857 -1.6617
    2CHTO    N6  774   3.758   6.483   4.602 -0.3027 -0.2729 -0.2507
    2CHTO   H45  775   3.688   6.407   4.571  1.2557 -1.1929 -1.6366
    2CHTO   H46  776   3.763   6.490   4.710  1.5272 -2.4836 -0.1386
    2CHTO   C33  777   3.589   6.668   4.634  0.6004 -0.1501 -0.0604
    2CHTO   H61  778   3.501   6.602   4.638  1.4883 -1.2315  2.7585
    2CHTO   O18  779   3.543   6.792   4.575 -0.4551 -0.0865  0.0771
    2CHTO   C28  780   3.478   6.769   4.453  0.2417  0.0070  0.3517
    2CHTO   H56  781   3.411   6.684   4.460  0.2210 -0.1085 -1.1406
    2CHTO   C35  782   3.407   6.898   4.427  0.1606  0.4232  0.2344
    2CHTO   O24  783   3.306   6.922   4.521  0.3262  0.0897  1.0505
    2CHTO   H39  784   3.345   6.974   4.588  1.1019 -1.4112  1.7694
    2CHTO    O9  785   3.626   6.687   4.775  0.2694  0.2494  0.2461
    2CHTO   C13  786   3.512   6.770   4.879  0.1815 -0.2414  0.7817
    2CHTO   H26  787   3.412   6.727   4.859  0.7440 -0.5163 -1.6095
    2CHTO   C11  788   3.516   6.925   4.850 -0.8639  0.0075  0.3593
    2CHTO   H24  789   3.467   6.941   4.753 -3.1683 -0.4917  1.3908
    2CHTO    O8  790   3.653   6.980   4.855 -0.1052 -0.3113  0.0617
    2CHTO    H3  791   3.680   7.026   4.778  0.0045  1.9126  1.3885
    2CHTO    C9  792   3.422   7.004   4.950 -0.3950  0.0602 -0.8651
    2CHTO   H22  793   3.325   6.953   4.941 -1.7203  2.7316 -2.1529
    2CHTO    N2  794   3.399   7.149   4.925 -0.2608 -0.1331 -0.3239
    2CHTO   H10  795   3.448   7.178   4.833  2.2082  0.9784  1.2935
    2CHTO   H11  796   3.293   7.168   4.928  0.0090  1.4171 -0.2321
    2CHTO    C7  797   3.465   6.974   5.099  0.7544  0.4050  0.0045
    2CHTO   H20  798   3.380   7.017   5.156  0.4604  1.0182 -0.8921
    2CHTO    O4  799   3.475   6.830   5.114 -0.4461  0.3966 -0.0651
    2CHTO   C14  800   3.547   6.739   5.025 -0.7653 -0.3369 -0.7285
    2CHTO   H27  801   3.519   6.634   5.047  1.9089 -0.9961 -0.3604
    2CHTO   C18  802   3.705   6.746   5.049 -0.1742  0.3337  0.1720
    2CHTO   O13  803   3.751   6.677   5.168 -0.5312 -0.2790  0.3600
    2CHTO    H7  804   3.710   6.723   5.239 -1.3044 -1.8277  0.9499
    2CHTO    O2  805   3.602   7.042   5.136 -0.4494 -0.1605  0.1166
    2CHTO    C1  806   3.629   7.089   5.271 -0.4504  0.2143  0.3997
    2CHTO   H14  807   3.651   6.999   5.333 -1.4325  1.2057  2.2274
    2CHTO    C2  808   3.509   7.165   5.339  1.0909  0.0136 -0.7731
    2CHTO   H15  809   3.464   7.221   5.256 -0.9805 -1.1286 -0.4456
    2CHTO    O6  810   3.406   7.081   5.392 -0.3099 -0.0170 -0.1880
    2CHTO    H1  811   3.377   7.024   5.323  1.6992  0.7424 -1.7004
    2CHTO    C3  812   3.557   7.263   5.460 -0.0663  0.2410 -0.0930
    2CHTO   H16  813   3.593   7.217   5.552  3.1125 -0.5588 -1.6536
    2CHTO    N1  814   3.446   7.364   5.490 -0.5421  0.2065 -0.2753
    2CHTO    H8  815   3.438   7.441   5.415 -0.7122  2.2407  1.8038
    2CHTO    H9  816   3.469   7.404   5.587  0.9616 -1.8970  0.2792
    2CHTO    C4  817   3.687   7.339   5.411 -0.3753 -0.3096  0.5356
    2CHTO   H17  818   3.666   7.400   5.323  3.7190 -1.1591 -1.1327
    2CHTO    O1  819   3.786   7.239   5.378 -0.5268 -0.4226 -0.4524
    2CHTO    C5  820   3.763   7.172   5.254  0.1572 -0.4863  0.6022
    2CHTO   H18  821   3.753   7.240   5.170 -2.0921 -0.9251  0.4705
    2CHTO   C16  822   3.879   7.087   5.226  0.5608 -0.2124 -0.1550
    2CHTO   O11  823   3.876   7.029   5.096 -0.6799  0.2648 -0.1075
    2CHTO    H5  824   3.966   7.039   5.071 -0.7909 -1.0247 -1.0415
    2CHTO    O3  825   3.746   7.408   5.519  0.6414  0.2808 -0.1980
    2CHTO    C6  826   3.818   7.531   5.483  0.1489 -0.3877  0.0271
    2CHTO   H19  827   3.839   7.544   5.377 -0.2127  1.1312  0.1318
    2CHTO    C8  828   3.739   7.658   5.519  0.1050 -0.0696 -0.0838
    2CHTO   H21  829   3.711   7.646   5.624  1.3837 -0.3551  0.2391
    2CHTO    O7  830   3.619   7.652   5.433 -0.0687  0.6739  0.2553
    2CHTO    H2  831   3.559   7.719   5.460 -0.0357  0.6473  0.3972
    2CHTO   C12  832   3.823   7.790   5.511  0.0798 -0.3628 -0.6954
    2CHTO   H25  833   3.830   7.820   5.404 -1.0666  0.4884 -0.5326
    2CHTO    N3  834   3.749   7.906   5.566  0.3197  0.0355  0.0630
    2CHTO   H12  835   3.647   7.906   5.530 -0.0567 -0.9426  1.0803
    2CHTO   H13  836   3.739   7.888   5.672  0.2086 -0.3282 -0.0083
    2CHTO   C15  837   3.969   7.764   5.570 -0.2934  0.6395  0.4184
    2CHTO   H28  838   3.961   7.767   5.679  1.1722 -0.4736  0.5825
    2CHTO   O10  839   4.057   7.865   5.528 -0.1349 -0.1423  0.4740
    2CHTO    H4  840   4.044   7.948   5.570 -0.5110  0.1378 -0.1788
    2CHTO    O5  841   4.038   7.643   5.528  0.8222 -0.0228  0.2606
    2CHTO   C10  842   3.961   7.531   5.552 -0.3582  0.0492 -0.3441
    2CHTO   H23  843   3.957   7.534   5.661  0.3908 -1.0212 -0.2809
    2CHTO   C17  844   4.039   7.401   5.536  0.0569  0.2879  0.0938
    2CHTO   O12  845   4.107   7.379   5.415 -0.6323  0.4623  0.3310
    2CHTO    H6  846   4.060   7.321   5.359  0.7648  1.0681 -1.5554
    3CHTO  H203  847   7.781   1.593   1.488  1.1696 -0.3296 -0.8864
    3CHTO   O82  848   7.826   1.586   1.570 -0.5362  0.8543  0.1990
    3CHTO  C123  849   7.756   1.505   1.665 -0.1877 -0.2934 -0.3012
    3CHTO  H227  850   7.805   1.509   1.763 -0.3366 -1.6445 -0.1644
    3CHTO   O77  851   7.633   1.586   1.672 -0.0187 -0.5865 -0.1155
    3CHTO  C118  852   7.531   1.546   1.762 -0.1105 -0.1151  0.7530
    3CHTO  H222  853   7.569   1.550   1.865  0.4925  1.9568  0.4770
    3CHTO  C125  854   7.423   1.656   1.741 -0.2438 -0.0045 -0.4193
    3CHTO   O84  855   7.304   1.644   1.820  0.1330  0.1138 -0.2423
    3CHTO  H205  856   7.222   1.654   1.775 -0.1796 -0.3177  0.2270
    3CHTO  C114  857   7.484   1.404   1.725 -0.1375  0.6191 -0.2715
    3CHTO  H218  858   7.455   1.408   1.620  1.6423 -1.7293 -0.9127
    3CHTO  C116  859   7.602   1.305   1.725 -0.0181 -0.2266  0.8578
    3CHTO  H220  860   7.643   1.287   1.826 -1.2054 -0.1991  1.3608
    3CHTO   O79  861   7.549   1.181   1.678  0.5009 -0.3480 -0.2852
    3CHTO  H201  862   7.546   1.177   1.584 -1.4465  0.9045 -0.3067
    3CHTO  C120  863   7.719   1.358   1.626  0.0247 -0.4742  0.0518
    3CHTO  H224  864   7.681   1.366   1.522  1.4655  0.5790 -0.4205
    3CHTO   N21  865   7.840   1.278   1.635 -0.2660  0.3059  0.3889
    3CHTO  H211  866   7.827   1.178   1.674 -1.5991 -0.3672 -1.6465
    3CHTO  H212  867   7.888   1.274   1.538 -2.0625 -1.1694 -0.4712
    3CHTO   O75  868   7.388   1.364   1.822 -0.0362 -0.4409 -0.5215
    3CHTO  C112  869   7.252   1.286   1.766  0.3199  0.6763  0.0200
    3CHTO  H216  870   7.272   1.212   1.687  1.4586 -0.5649  1.4249
    3CHTO   O73  871   7.158   1.390   1.728  0.4884 -0.5042  0.4597
    3CHTO  C113  872   7.038   1.339   1.669  0.0524  0.1386  0.7603
    3CHTO  H217  873   7.060   1.276   1.580  1.4273  3.4795 -1.3479
    3CHTO  C124  874   6.950   1.455   1.625 -0.2730 -0.0874  0.4065
    3CHTO   O83  875   7.000   1.535   1.518 -0.3418  0.4301 -0.4504
    3CHTO  H204  876   6.974   1.494   1.437 -0.8486 -2.5335  1.1527
    3CHTO  C109  877   6.963   1.253   1.768  0.0184 -0.6320  0.2749
    3CHTO  H213  878   6.922   1.317   1.848 -0.6494 -1.2477  0.4320
    3CHTO  C110  879   7.058   1.143   1.822  0.0075  0.6800 -0.0500
    3CHTO  H214  880   7.079   1.067   1.746 -0.7770 -0.1009  0.4993
    3CHTO   O78  881   6.974   1.079   1.920  1.1897  0.0946 -0.1030
    3CHTO  H200  882   7.016   1.013   1.971 -0.3936 -1.0604 -0.2407
    3CHTO  C111  883   7.186   1.203   1.884 -0.3821  0.4373 -0.0163
    3CHTO  H215  884   7.164   1.266   1.970  2.0532  0.7913  0.3938
    3CHTO   N19  885   7.285   1.102   1.932 -0.0289  0.4744 -0.3099
    3CHTO  H207  886   7.381   1.145   1.954 -0.4681  0.3821  1.8989
    3CHTO  H208  887   7.246   1.054   2.021 -1.7542 -1.7107 -2.1770
    3CHTO   O74  888   6.850   1.186   1.701 -0.2938 -0.4954 -0.9073
    3CHTO  C115  889   6.699   1.218   1.776  1.1174 -0.0471  0.3883
    3CHTO  H219  890   6.704   1.208   1.884  0.7862  2.0812  0.6213
    3CHTO   O76  891   6.653   1.357   1.753 -0.2240  0.0538  0.2276
    3CHTO  C122  892   6.538   1.392   1.838 -0.7791  0.1121  0.2206
    3CHTO  H226  893   6.511   1.486   1.790  0.4168  1.4262  2.0701
    3CHTO  C126  894   6.569   1.425   1.994  0.1121 -0.5096 -0.1433
    3CHTO   O85  895   6.668   1.528   2.006  0.4664 -0.3860  0.0326
    3CHTO  H206  896   6.748   1.504   1.963  0.8879  0.3919  0.3784
    3CHTO  C121  897   6.418   1.291   1.819 -0.1430  0.6124  0.2334
    3CHTO  H225  898   6.346   1.301   1.903 -1.3489  2.7519 -1.0131
    3CHTO   O81  899   6.345   1.323   1.701 -0.4327  0.0744  0.3825
    3CHTO  H202  900   6.302   1.403   1.724  1.1171  1.1789 -0.4641
    3CHTO  C119  901   6.459   1.137   1.817  0.0825  0.6478 -0.2953
    3CHTO  H223  902   6.489   1.121   1.920 -1.9291 -2.0290 -0.0618
    3CHTO  C117  903   6.591   1.111   1.731 -0.4401  0.0931 -0.3062
    3CHTO  H221  904   6.586   1.125   1.623 -1.7833 -2.6841 -0.6532
    3CHTO   N20  905   6.635   0.974   1.755  0.2511  0.3241 -0.1597
    3CHTO  H209  906   6.648   0.917   1.664 -0.9109  1.7385 -1.2356
    3CHTO  H210  907   6.573   0.919   1.824  1.6742 -2.8418 -1.2740
    3CHTO   O80  908   6.344   1.029   1.799  0.0005  0.0260  0.0464
    3CHTO  C103  909   6.243   1.010   1.899  0.3431  0.0203  0.6022
    3CHTO  H190  910   6.283   1.053   1.991  2.8826  3.5001 -1.9787
    3CHTO  C101  911   6.106   1.070   1.856  0.6817 -0.1570 -0.3236
    3CHTO  H188  912   6.105   1.054   1.748 -1.2685 -1.6038 -0.1194
    3CHTO   O68  913   6.108   1.212   1.893  0.5926 -0.4934 -0.3525
    3CHTO  H168  914   6.033   1.261   1.864 -0.8902 -2.5837 -0.1683
    3CHTO   C99  915   5.985   0.994   1.922 -0.9596 -0.7127  0.1581
    3CHTO  H186  916   5.991   1.001   2.033 -0.5933 -0.5204  0.1261
    3CHTO   N17  917   5.857   1.061   1.881  0.4238 -0.5202  0.3632
    3CHTO  H174  918   5.826   1.028   1.783  3.0910  0.2336 -0.7735
    3CHTO  H175  919   5.862   1.168   1.894  1.2620 -0.7280  1.9058
    3CHTO   C97  920   5.993   0.845   1.898  0.2541 -0.4932 -0.4884
    3CHTO  H184  921   6.000   0.831   1.789  0.4896 -0.8317 -0.4274
    3CHTO   O64  922   6.115   0.805   1.971  0.8193 -0.0580 -0.0137
    3CHTO  C104  923   6.239   0.849   1.919 -0.2933  0.2835 -0.1652
    3CHTO  H191  924   6.250   0.806   1.819 -0.2813 -0.4235  0.1344
    3CHTO  C108  925   6.346   0.792   2.005 -0.8516 -0.2167  0.3656
    3CHTO   O71  926   6.322   0.653   2.010  0.1454  0.1062 -0.1142
    3CHTO  H171  927   6.375   0.617   2.079  0.3210 -0.8232 -0.7302
    3CHTO   O62  928   5.881   0.772   1.945  0.5235  0.0121 -0.4409
    3CHTO   C91  929   5.826   0.669   1.860  0.8153  0.0686  0.1827
    3CHTO  H178  930   5.872   0.678   1.762 -1.3530  3.3588 -0.6111
    3CHTO   C92  931   5.681   0.697   1.833 -0.1242 -0.0710  0.5211
    3CHTO  H179  932   5.626   0.703   1.928 -0.7812  0.4561  0.1077
    3CHTO   O66  933   5.665   0.830   1.786 -0.2803  0.1979 -0.5230
    3CHTO  H166  934   5.690   0.898   1.847 -0.1887 -0.7682  0.5413
    3CHTO   C93  935   5.614   0.591   1.732 -0.3402 -0.4468 -0.0244
    3CHTO  H180  936   5.651   0.620   1.632 -1.3138 -1.8278 -0.8099
    3CHTO   N16  937   5.465   0.605   1.728  0.2872 -0.3663 -0.8225
    3CHTO  H172  938   5.432   0.697   1.774 -2.7621 -1.8420  0.1029
    3CHTO  H173  939   5.430   0.607   1.625  0.4327  0.7553 -0.8519
    3CHTO   C94  940   5.654   0.440   1.746 -0.4213 -0.8362  0.0011
    3CHTO  H181  941   5.594   0.390   1.822 -0.4104  0.8911  1.1833
    3CHTO   O61  942   5.792   0.423   1.788  0.2834 -0.0441 -0.7051
    3CHTO   C95  943   5.838   0.512   1.893 -0.3128 -0.5081  0.0539
    3CHTO  H182  944   5.784   0.494   1.986  0.1785  1.3412  0.7361
    3CHTO  C106  945   5.978   0.466   1.935  0.0478  0.3322  0.3055
    3CHTO   O69  946   6.081   0.484   1.836  0.6244 -0.1383 -0.1438
    3CHTO  H169  947   6.166   0.453   1.862  1.7857  1.4975 -1.8689
    3CHTO   O63  948   5.638   0.356   1.589  0.3090  0.1321 -0.1711
    3CHTO   C96  949   5.570   0.238   1.594 -0.0997  0.7216  0.3179
    3CHTO  H183  950   5.576   0.193   1.494 -0.9991 -1.3803  1.1695
    3CHTO   C98  951   5.419   0.243   1.622  1.1312  0.3357  0.4783
    3CHTO  H185  952   5.407   0.302   1.714  1.1437  2.2560 -0.7376
    3CHTO   O67  953   5.363   0.326   1.518 -0.4150  0.3096  0.3062
    3CHTO  H167  954   5.288   0.281   1.484 -0.2495 -1.1086  1.7575
    3CHTO  C102  955   5.355   0.100   1.646 -0.0601 -0.3893 -0.1237
    3CHTO  H189  956   5.373   0.051   1.549  0.1934 -1.2157  0.3378
    3CHTO   N18  957   5.207   0.086   1.672  0.5775  0.6948 -0.0214
    3CHTO  H176  958   5.178   0.156   1.749  1.1380  0.6751  0.2129
    3CHTO  H177  959   5.146   0.112   1.587 -1.8052 -0.7911  1.1885
    3CHTO  C105  960   5.436   0.023   1.751 -0.5701  0.2911 -0.6494
    3CHTO  H192  961   5.438   0.079   1.844  1.2356 -1.4252  0.3764
    3CHTO   O65  962   5.566   0.009   1.690  0.1869  0.1370 -0.5879
    3CHTO  C100  963   5.639   0.132   1.690 -0.5611  0.3525 -0.3555
    3CHTO  H187  964   5.641   0.168   1.794 -0.3964  4.2527 -1.6537
    3CHTO  C107  965   5.784   0.110   1.643  0.0736 -0.0992  0.2760
    3CHTO   O70  966   5.873   0.061   1.744 -0.6112  0.2125 -0.7516
    3CHTO  H170  967   5.872  -0.033   1.740  2.1741  0.2472 -4.2208
    3CHTO   O57  968   5.364  -0.131   1.761  0.3918  0.5905  1.0341
    3CHTO   C85  969   5.340  -0.206   1.884 -0.4516 -0.5152 -0.1030
    3CHTO  H157  970   5.307  -0.306   1.849 -0.9743 -1.4305  2.8715
    3CHTO   C83  971   5.219  -0.152   1.963  0.1447  0.2332 -0.6312
    3CHTO  H155  972   5.128  -0.171   1.907  0.4324 -1.3156 -0.5878
    3CHTO   O56  973   5.230  -0.009   1.972 -0.0984  0.0694  0.4154
    3CHTO  H135  974   5.315   0.007   2.009 -0.0113  0.9266 -0.1400
    3CHTO   C81  975   5.210  -0.219   2.105 -0.1782  0.1633  0.0951
    3CHTO  H153  976   5.191  -0.324   2.083 -0.4064  0.1321  0.4290
    3CHTO   N14  977   5.088  -0.188   2.179  0.5102  0.0699 -0.0469
    3CHTO  H141  978   5.085  -0.235   2.275  0.5471 -0.5609 -0.3528
    3CHTO  H142  979   5.081  -0.084   2.201 -1.6771 -0.6330  2.9185
    3CHTO   C79  980   5.344  -0.204   2.183 -0.0020 -0.8539 -0.2093
    3CHTO  H151  981   5.332  -0.258   2.277  0.5766 -2.1645 -0.8684
    3CHTO   O52  982   5.457  -0.263   2.111 -0.3978  0.0997  0.1519
    3CHTO   C86  983   5.479  -0.217   1.972 -0.0146  0.3328  0.5278
    3CHTO  H158  984   5.532  -0.120   1.976  1.1704 -0.2753 -0.1092
    3CHTO   C90  985   5.568  -0.312   1.889  0.3192  0.3059  0.4286
    3CHTO   O60  986   5.671  -0.364   1.960 -0.0342  0.2155 -0.5256
    3CHTO  H138  987   5.698  -0.449   1.929 -1.0945  0.4114 -2.0563
    3CHTO   O50  988   5.382  -0.070   2.203  0.4181  0.1916  0.0856
    3CHTO   C73  989   5.445   0.009   2.303  0.9860 -0.3396 -0.4441
    3CHTO  H145  990   5.537  -0.045   2.329  0.5696 -1.0016 -0.3260
    3CHTO   C74  991   5.352   0.020   2.428  0.6504 -0.4301 -0.1632
    3CHTO  H146  992   5.322  -0.081   2.459 -0.0514 -0.8688 -2.1900
    3CHTO   O54  993   5.422   0.084   2.534 -0.4911 -0.5595  0.2741
    3CHTO  H133  994   5.494   0.034   2.569 -0.1966  1.3076  2.5123
    3CHTO   C75  995   5.224   0.102   2.387 -0.0948 -0.7035  0.4810
    3CHTO  H147  996   5.170   0.047   2.309  2.4986 -0.8129 -1.3335
    3CHTO   N13  997   5.123   0.123   2.499  0.0504  0.0364 -0.7121
    3CHTO  H139  998   5.157   0.196   2.571 -1.9795  1.1186 -0.8186
    3CHTO  H140  999   5.118   0.026   2.547  2.1046  0.7976  1.1259
    3CHTO   C76 1000   5.256   0.241   2.316 -0.4635  0.0478  0.5566
    3CHTO  H148 1001   5.300   0.306   2.391  1.2289  0.5571 -0.8444
    3CHTO   O49 1002   5.351   0.229   2.201  0.6248 -0.0395 -0.4409
    3CHTO   C77 1003   5.473   0.153   2.234 -0.1562  0.1400 -0.4880
    3CHTO  H149 1004   5.529   0.211   2.307  1.7685 -2.2265  0.0149
    3CHTO   C88 1005   5.570   0.131   2.113 -0.0154 -0.8523  0.1433
    3CHTO   O58 1006   5.688   0.083   2.141  0.4071  0.1053  0.0159
    3CHTO  H136 1007   5.749   0.154   2.146  1.1488 -0.6264  1.6358
    3CHTO   O51 1008   5.124   0.297   2.243 -0.4977 -0.6171 -0.0795
    3CHTO   C78 1009   5.130   0.445   2.225 -1.2970 -1.1481  0.0597
    3CHTO  H150 1010   5.229   0.486   2.255 -0.3871 -2.6729 -0.8077
    3CHTO   C80 1011   5.017   0.512   2.308 -0.0506 -0.3166 -0.4244
    3CHTO  H152 1012   4.920   0.476   2.266 -1.0183 -0.8270  2.1498
    3CHTO   O55 1013   5.041   0.472   2.444 -0.4433  0.4639  0.2282
    3CHTO  H134 1014   5.005   0.390   2.470  0.9473 -0.5355 -0.8980
    3CHTO   C84 1015   5.013   0.675   2.297  0.2283 -0.4171  0.0566
    3CHTO  H156 1016   5.088   0.710   2.367  0.8254 -0.1487 -0.7081
    3CHTO   N15 1017   4.884   0.719   2.368 -0.1609 -0.3174  0.3973
    3CHTO  H143 1018   4.884   0.682   2.468  3.0670 -1.4424  0.0393
    3CHTO  H144 1019   4.794   0.685   2.320 -1.4079  0.6196  2.0237
    3CHTO   C87 1020   5.037   0.723   2.155  0.3832 -0.0480 -0.1756
    3CHTO  H159 1021   4.945   0.726   2.096  1.8420 -0.3131 -2.5170
    3CHTO   O53 1022   5.133   0.622   2.071 -0.6939 -0.6972  0.2688
    3CHTO   C82 1023   5.102   0.486   2.077 -0.5137  0.7595  0.1613
    3CHTO  H154 1024   5.000   0.465   2.044  0.3441  0.2957 -2.3324
    3CHTO   C89 1025   5.203   0.404   1.982  0.2312 -1.0044 -0.3335
    3CHTO   O59 1026   5.183   0.443   1.847 -0.2604  0.1069  0.4323
    3CHTO  H137 1027   5.117   0.389   1.809  2.1177 -2.6424 -0.0266
    3CHTO   O45 1028   5.096   0.881   2.176 -0.4660  0.1279 -0.2258
    3CHTO   C67 1029   5.240   0.889   2.168 -0.3661 -0.0901 -0.8612
    3CHTO  H124 1030   5.283   0.794   2.202  1.4768  1.1621  0.4359
    3CHTO   C65 1031   5.282   0.915   2.023  0.1887  0.3354  0.5803
    3CHTO  H122 1032   5.194   0.949   1.969  0.8959 -1.0319 -1.5194
    3CHTO   O44 1033   5.326   0.794   1.962  0.3430  0.2373 -0.3210
    3CHTO  H102 1034   5.300   0.795   1.872 -0.2707  2.1378 -0.1357
    3CHTO   C63 1035   5.383   1.035   2.024  0.5777 -0.3889 -0.2450
    3CHTO  H120 1036   5.322   1.122   2.046  0.8214 -0.2302 -0.2007
    3CHTO   N11 1037   5.449   1.066   1.890  0.3345 -0.0340  0.5557
    3CHTO  H108 1038   5.450   1.169   1.860 -0.4658 -0.2823 -0.3336
    3CHTO  H109 1039   5.537   1.004   1.888 -1.4514 -2.6003 -1.0986
    3CHTO   C61 1040   5.500   1.012   2.135 -0.1311 -0.0426  1.2094
    3CHTO  H118 1041   5.564   1.101   2.129  1.6460 -1.3133  0.7551
    3CHTO   O40 1042   5.437   1.015   2.268  0.5862  0.1938  0.0584
    3CHTO   C68 1043   5.291   0.991   2.279  0.0968 -0.1479 -0.0927
    3CHTO  H125 1044   5.233   1.085   2.264 -1.7696 -1.2592 -0.0221
    3CHTO   C72 1045   5.266   0.948   2.429  0.8842  0.4388 -0.2602
    3CHTO   O48 1046   5.129   0.928   2.460  0.1321  0.2632 -0.2590
    3CHTO  H105 1047   5.091   0.865   2.402  0.4792 -0.3586  0.1700
    3CHTO   O38 1048   5.574   0.886   2.113  0.2996 -0.2338  1.0099
    3CHTO   C55 1049   5.646   0.838   2.226  0.3147 -0.5405 -0.6351
    3CHTO  H112 1050   5.580   0.845   2.314  0.0806 -1.6521 -0.7063
    3CHTO   C56 1051   5.785   0.916   2.246  0.6871 -0.4032 -0.1649
    3CHTO  H113 1052   5.816   0.926   2.142 -1.3345 -2.7887 -1.0505
    3CHTO   O42 1053   5.755   1.047   2.299  0.1217 -0.3078 -0.6016
    3CHTO  H100 1054   5.714   1.041   2.383  0.8153  1.5829 -0.0938
    3CHTO   C57 1055   5.887   0.833   2.336  0.7023  0.9707  0.5177
    3CHTO  H114 1056   5.840   0.825   2.434 -2.4619 -1.3353 -1.0987
    3CHTO   N10 1057   6.024   0.897   2.336  0.2203  0.0206 -0.0161
    3CHTO  H106 1058   6.080   0.875   2.426  0.0468  1.7591  0.5309
    3CHTO  H107 1059   6.079   0.878   2.245 -1.1077  1.9883 -1.2662
    3CHTO   C58 1060   5.893   0.686   2.281 -0.4434 -0.6731  0.4436
    3CHTO  H115 1061   5.921   0.689   2.173 -1.7661  1.3096  0.1238
    3CHTO   O37 1062   5.764   0.624   2.287  0.0300  0.1611  0.6729
    3CHTO   C59 1063   5.666   0.684   2.202 -0.1107  0.1720 -0.0740
    3CHTO  H116 1064   5.700   0.666   2.099  2.1808  0.7014  0.5599
    3CHTO   C70 1065   5.529   0.609   2.221  0.2435 -0.5173 -0.1993
    3CHTO   O46 1066   5.525   0.475   2.167  0.3450 -0.2464 -0.1680
    3CHTO  H103 1067   5.437   0.450   2.189 -0.1012  0.7110 -0.8218
    3CHTO   O39 1068   5.996   0.595   2.368  0.4792  0.6004  0.4900
    3CHTO   C60 1069   6.029   0.463   2.317 -0.7276 -0.0987  0.2535
    3CHTO  H117 1070   5.981   0.431   2.224 -0.2167 -1.5635  0.4760
    3CHTO   C62 1071   6.185   0.460   2.284 -0.1682 -0.2861 -0.3702
    3CHTO  H119 1072   6.200   0.526   2.196 -0.8319 -0.5058 -0.6477
    3CHTO   O43 1073   6.270   0.494   2.397  0.1943 -0.8898  0.2695
    3CHTO  H101 1074   6.295   0.584   2.391 -1.7453 -0.3236  0.4451
    3CHTO   C66 1075   6.229   0.306   2.241  0.3760  0.5237 -0.4889
    3CHTO  H123 1076   6.173   0.274   2.154  1.0162  0.0934 -0.7510
    3CHTO   N12 1077   6.367   0.296   2.183 -0.2096 -0.4596  0.0458
    3CHTO  H110 1078   6.446   0.312   2.254  1.1709  0.8311 -1.7553
    3CHTO  H111 1079   6.376   0.213   2.115  0.2585  0.2511 -0.7661
    3CHTO   C69 1080   6.200   0.216   2.362 -0.2193 -0.2953  0.6702
    3CHTO  H126 1081   6.254   0.247   2.454  1.8511 -1.7362 -0.0134
    3CHTO   O41 1082   6.053   0.212   2.390  0.0168  0.3005  0.3846
    3CHTO   C64 1083   5.990   0.353   2.421  0.1719 -0.4146  0.4369
    3CHTO  H121 1084   6.027   0.389   2.519  2.0733 -1.2135  0.0324
    3CHTO   C71 1085   5.834   0.334   2.420 -0.7242 -0.2900 -0.1960
    3CHTO   O47 1086   5.801   0.237   2.513 -0.4387  0.5339 -0.1151
    3CHTO  H104 1087   5.823   0.154   2.474  2.2812  0.4287  1.4861
    3CHTO   O34 1088   6.247   0.061   2.339 -0.3738  0.3722  0.7023
    3CHTO   C49 1089   6.255  -0.035   2.224 -0.3177 -0.3096 -0.3433
    3CHTO   H91 1090   6.335   0.002   2.160  0.5091 -2.8048 -0.8080
    3CHTO   C47 1091   6.128  -0.045   2.144 -0.4108 -0.2032  0.5762
    3CHTO   H89 1092   6.142   0.036   2.068  0.6348 -2.1236 -1.3407
    3CHTO   O33 1093   6.012  -0.017   2.223  1.0326  0.3139  0.3184
    3CHTO   H70 1094   6.006   0.076   2.234 -1.1623  0.2839 -0.3775
    3CHTO   C45 1095   6.118  -0.197   2.077 -0.2953  0.1117 -0.1594
    3CHTO   H87 1096   6.073  -0.267   2.150 -1.4635  0.7574 -0.2403
    3CHTO    N8 1097   6.028  -0.192   1.961  0.1816  0.4118 -0.0898
    3CHTO   H75 1098   6.044  -0.092   1.924  1.7398  0.3216  0.3161
    3CHTO   H76 1099   5.923  -0.214   1.968  0.2175  0.1811 -0.2941
    3CHTO   C43 1100   6.267  -0.262   2.050  0.2842  0.4172 -0.4132
    3CHTO   H85 1101   6.247  -0.362   2.014  0.8738 -0.5966  1.9635
    3CHTO   O29 1102   6.329  -0.273   2.182  0.4243 -0.0159 -0.2674
    3CHTO   C50 1103   6.307  -0.173   2.281  0.0503  0.7602  1.2257
    3CHTO   H92 1104   6.237  -0.201   2.360 -1.3589  2.1887  0.5040
    3CHTO   C54 1105   6.438  -0.160   2.359  0.1880 -0.2635  1.0274
    3CHTO   O36 1106   6.457  -0.262   2.462 -0.4741 -0.5137 -0.0750
    3CHTO   H72 1107   6.517  -0.232   2.528  0.2628 -0.8915 -0.5714
    3CHTO   O27 1108   6.356  -0.194   1.952 -0.0398 -0.6919 -0.7308
    3CHTO   C37 1109   6.474  -0.111   1.938  0.6129  0.0005  0.0601
    3CHTO   H79 1110   6.481  -0.058   2.034  1.5249  0.6695 -0.3749
    3CHTO   C38 1111   6.600  -0.191   1.917  0.1402 -0.4232  0.3566
    3CHTO   H80 1112   6.577  -0.249   1.826 -0.6509 -1.1132  0.9886
    3CHTO   O31 1113   6.608  -0.280   2.030  0.1053  0.0810 -0.0731
    3CHTO   H68 1114   6.560  -0.263   2.109 -0.6515 -2.8348  0.1597
    3CHTO   C39 1115   6.735  -0.109   1.892  0.8812  0.1128 -0.8045
    3CHTO   H81 1116   6.756  -0.057   1.986 -0.4639 -0.6707 -0.0503
    3CHTO    N7 1117   6.852  -0.192   1.859 -0.0538  0.2926  0.0778
    3CHTO   H73 1118   6.942  -0.135   1.873 -0.8559  1.4930  0.4426
    3CHTO   H74 1119   6.853  -0.289   1.906  2.4152  0.7328  0.9815
    3CHTO   C40 1120   6.707   0.000   1.785  0.6093  0.1044 -0.2745
    3CHTO   H82 1121   6.695  -0.060   1.695 -0.5888 -0.3127  0.1510
    3CHTO   O26 1122   6.582   0.070   1.811 -0.2064  0.0538  0.0504
    3CHTO   C41 1123   6.458  -0.010   1.824  0.2713 -0.0909 -0.2447
    3CHTO   H83 1124   6.437  -0.069   1.733  0.2240 -0.3916 -0.0401
    3CHTO   C52 1125   6.342   0.083   1.846 -0.5259  0.3130 -0.1347
    3CHTO   O35 1126   6.337   0.161   1.740 -0.4588 -0.0861 -0.0020
    3CHTO   H71 1127   6.380   0.243   1.758 -0.9213  0.4487 -1.2981
    3CHTO   O28 1128   6.818   0.098   1.791  0.2536  0.6279  0.0399
    3CHTO   C42 1129   6.810   0.246   1.770  0.1043  0.8435  0.0886
    3CHTO   H84 1130   6.910   0.284   1.788  0.2722  0.1274  0.6843
    3CHTO   C44 1131   6.722   0.324   1.873  0.1355  0.0903  0.2911
    3CHTO   H86 1132   6.619   0.289   1.863 -0.1844  1.2918 -0.7647
    3CHTO   O32 1133   6.767   0.305   2.007  0.1333  0.4414 -0.1013
    3CHTO   H69 1134   6.775   0.387   2.051  1.7859 -0.1799  0.8171
    3CHTO   C48 1135   6.709   0.473   1.839  0.2850 -0.8073  0.4524
    3CHTO   H90 1136   6.811   0.512   1.835 -0.5895  1.5004 -0.5169
    3CHTO    N9 1137   6.626   0.550   1.940 -0.6001 -0.6861  0.0334
    3CHTO   H77 1138   6.568   0.626   1.890  0.4233  0.8915  1.1851
    3CHTO   H78 1139   6.566   0.471   1.984  0.9891 -0.4890  2.6858
    3CHTO   C51 1140   6.651   0.486   1.690 -0.0369  0.1515  0.0118
    3CHTO   H93 1141   6.557   0.431   1.691  0.5649 -1.0043 -2.4980
    3CHTO   O30 1142   6.747   0.424   1.599 -0.4437 -0.2533 -0.7407
    3CHTO   C46 1143   6.767   0.280   1.632 -0.3708  0.0574 -0.4398
    3CHTO   H88 1144   6.670   0.233   1.612 -0.4032 -0.2112  0.3245
    3CHTO   C53 1145   6.866   0.221   1.518 -0.6134  0.4855  0.8694
    3CHTO   O72 1146   6.902   0.080   1.535 -0.5410  0.1771  0.3069
    3CHTO  H199 1147   6.832   0.018   1.548  1.3511 -1.9787  0.6283
    3CHTO   O22 1148   6.638   0.616   1.636  0.3295 -0.6141  0.1526
    3CHTO   C31 1149   6.535   0.638   1.528  0.0891  0.4647  0.6108
    3CHTO   H59 1150   6.521   0.545   1.469  0.6798  0.9898 -0.3775
    3CHTO   C29 1151   6.402   0.681   1.577 -0.3263  0.2455  0.0097
    3CHTO   H57 1152   6.419   0.777   1.629  2.4104 -0.3326  0.2817
    3CHTO   O21 1153   6.358   0.579   1.664 -0.3662 -0.7795 -0.3683
    3CHTO   H37 1154   6.411   0.581   1.742 -3.1514 -0.4196  1.5985
    3CHTO   C27 1155   6.300   0.704   1.455 -0.6968 -0.5617  0.0730
    3CHTO   H55 1156   6.293   0.612   1.397 -1.2243  0.1303 -0.9792
    3CHTO    N5 1157   6.165   0.744   1.505  0.0972  0.1374  0.1445
    3CHTO   H43 1158   6.149   0.748   1.612 -3.6906 -1.6770 -0.2665
    3CHTO   H44 1159   6.104   0.661   1.473 -0.7188  1.0093 -0.6118
    3CHTO   C25 1160   6.356   0.817   1.360 -0.1225 -0.1124 -0.0081
    3CHTO   H53 1161   6.384   0.908   1.415  1.3608  0.2136 -1.2726
    3CHTO   O17 1162   6.483   0.763   1.318  0.0049 -0.8095 -0.1041
    3CHTO   C32 1163   6.577   0.740   1.421 -0.3093  0.2481 -0.6011
    3CHTO   H60 1164   6.595   0.834   1.473 -3.5606  0.8020 -0.4072
    3CHTO   C36 1165   6.697   0.690   1.356  0.2670  0.5529 -0.3745
    3CHTO   O25 1166   6.821   0.712   1.436 -0.3191 -0.4260 -0.1478
    3CHTO   H40 1167   6.868   0.785   1.400 -0.1594 -0.5975 -0.2827
    3CHTO   O15 1168   6.267   0.830   1.223 -0.0095  0.1321 -0.3140
    3CHTO   C19 1169   6.268   0.941   1.128 -0.1984  0.4963 -0.5235
    3CHTO   H47 1170   6.189   0.920   1.055 -0.9269 -0.7268  0.5913
    3CHTO   C20 1171   6.229   1.082   1.178 -0.5015  0.9843  0.7931
    3CHTO   H48 1172   6.304   1.126   1.245  0.5678 -0.4444  0.5356
    3CHTO   O19 1173   6.105   1.063   1.246 -0.4500  0.2809 -0.1923
    3CHTO   H35 1174   6.060   1.145   1.254  0.5210  1.0397 -2.1493
    3CHTO   C21 1175   6.220   1.176   1.050  0.2319 -0.1477 -0.6319
    3CHTO   H49 1176   6.134   1.144   0.991 -0.5775 -0.9642  0.9765
    3CHTO    N4 1177   6.185   1.316   1.088 -0.3523 -0.3724  0.1739
    3CHTO   H41 1178   6.188   1.375   0.997 -0.0982  1.4697  1.3414
    3CHTO   H42 1179   6.267   1.352   1.148 -1.5506  2.4501  0.2177
    3CHTO   C22 1180   6.349   1.172   0.971  0.0102 -0.1610  0.6167
    3CHTO   H50 1181   6.430   1.224   1.022  0.9359  0.4808 -1.4804
    3CHTO   O14 1182   6.377   1.036   0.933 -0.0756  0.0600 -0.1238
    3CHTO   C23 1183   6.402   0.951   1.047  0.1190 -0.0260  0.4237
    3CHTO   H51 1184   6.478   1.006   1.105  0.1429 -0.7881  1.1362
    3CHTO   C34 1185   6.463   0.817   1.006  0.1514 -0.2057  1.2357
    3CHTO   O23 1186   6.587   0.830   0.937 -0.0589  0.1127 -0.2228
    3CHTO   H38 1187   6.639   0.889   0.988  1.7789 -1.9772  0.3970
    3CHTO   O16 1188   6.344   1.225   0.839 -0.0903 -0.1581  0.0731
    3CHTO   C24 1189   6.424   1.356   0.809 -0.5623  0.0627 -0.0690
    3CHTO   H52 1190   6.446   1.411   0.901 -1.5217 -0.9809  0.8118
    3CHTO   C26 1191   6.337   1.444   0.722 -0.0111  0.0548  0.0248
    3CHTO   H54 1192   6.291   1.380   0.644  1.6250  1.3145 -2.0454
    3CHTO   O20 1193   6.216   1.478   0.800  0.4369  0.0455  0.0928
    3CHTO   H36 1194   6.176   1.545   0.749 -0.2022 -0.1287  0.3637
    3CHTO   C30 1195   6.391   1.577   0.662 -0.3964  0.4631 -0.0413
    3CHTO   H58 1196   6.407   1.655   0.738 -0.6820  3.1495 -2.6298
    3CHTO    N6 1197   6.303   1.645   0.562  0.1940 -0.1419  0.2252
    3CHTO   H45 1198   6.336   1.745   0.539  1.8770 -1.1779 -2.0807
    3CHTO   H46 1199   6.202   1.649   0.600  0.5849 -1.6961  1.4979
    3CHTO   C33 1200   6.532   1.536   0.601 -0.1677 -0.3364  0.0757
    3CHTO   H61 1201   6.518   1.469   0.514 -0.9618  1.7388 -1.4385
    3CHTO   O18 1202   6.610   1.466   0.697 -0.1876 -0.4456  0.0345
    3CHTO   C28 1203   6.560   1.338   0.734 -0.6697 -0.1430  0.7559
    3CHTO   H56 1204   6.540   1.282   0.642  0.7086  0.5259  0.0324
    3CHTO   C35 1205   6.670   1.265   0.819  0.4291  0.2192 -0.0839
    3CHTO   O24 1206   6.711   1.346   0.931 -0.5744 -0.6551  0.2363
    3CHTO   H39 1207   6.641   1.394   0.970 -1.0084  0.3562 -1.7321
    3CHTO    O9 1208   6.598   1.652   0.550 -0.3851  0.2016  0.6247
    3CHTO   C13 1209   6.692   1.729   0.676 -0.2859 -0.7827  0.1650
    3CHTO   H26 1210   6.645   1.707   0.775  1.1995  2.4258  1.6590
    3CHTO   C11 1211   6.697   1.884   0.642 -0.6732 -0.5218 -0.4608
    3CHTO   H24 1212   6.599   1.929   0.664 -0.1860  0.6661 -0.6834
    3CHTO    O8 1213   6.718   1.903   0.504 -0.2774  0.0673 -0.2638
    3CHTO    H3 1214   6.734   1.994   0.488 -0.5961  0.0106 -0.9278
    3CHTO    C9 1215   6.805   1.953   0.737 -0.0253 -0.2706  0.1111
    3CHTO   H22 1216   6.772   1.927   0.839 -1.6381 -0.0701 -0.3434
    3CHTO    N2 1217   6.813   2.098   0.738 -0.6219  0.0163  0.0289
    3CHTO   H10 1218   6.864   2.130   0.648  1.8597  1.6201  1.9264
    3CHTO   H11 1219   6.872   2.138   0.819 -0.6386  1.4164 -0.6265
    3CHTO    C7 1220   6.947   1.886   0.714  0.7434  0.9649  0.0986
    3CHTO   H20 1221   7.021   1.935   0.781  0.5143 -0.4126  1.3862
    3CHTO    O4 1222   6.943   1.747   0.739  0.1571  0.1324  0.0206
    3CHTO   C14 1223   6.841   1.662   0.681 -0.0816 -0.2862  0.1214
    3CHTO   H27 1224   6.837   1.578   0.753 -0.8763 -0.1649  0.2301
    3CHTO   C18 1225   6.892   1.606   0.548 -0.4689 -0.1136 -0.1415
    3CHTO   O13 1226   7.011   1.530   0.573 -0.0155 -0.3704 -0.4033
    3CHTO    H7 1227   7.071   1.559   0.506 -0.9685  1.8862 -0.3361
    3CHTO    O2 1228   6.991   1.903   0.560 -0.7748 -0.3263 -0.0310
    3CHTO    C1 1229   7.118   1.864   0.506 -0.1271 -0.1592  0.2198
    3CHTO   H14 1230   7.116   1.757   0.474  1.0587 -0.0948 -0.0766
    3CHTO    C2 1231   7.240   1.885   0.610  0.2480 -0.6879 -0.0903
    3CHTO   H15 1232   7.229   1.989   0.644  1.2895 -0.9242  1.0055
    3CHTO    O6 1233   7.222   1.794   0.719  0.2966 -0.3878 -0.0268
    3CHTO    H1 1234   7.225   1.704   0.694 -0.0166 -0.8960  1.7160
    3CHTO    C3 1235   7.386   1.866   0.539 -0.7671 -0.3978 -0.2141
    3CHTO   H16 1236   7.402   1.757   0.538  1.1264 -0.1265 -0.8556
    3CHTO    N1 1237   7.489   1.923   0.624 -0.5533 -0.2955 -0.7191
    3CHTO    H8 1238   7.511   1.854   0.704 -0.3038  1.0908  0.4175
    3CHTO    H9 1239   7.582   1.950   0.575 -1.3223  1.3892 -1.2916
    3CHTO    C4 1240   7.392   1.912   0.392  0.1831 -0.1918  0.1612
    3CHTO   H17 1241   7.419   2.017   0.390 -0.4003 -0.0342  0.4027
    3CHTO    O1 1242   7.268   1.892   0.317 -0.2375 -0.0668 -0.2235
    3CHTO    C5 1243   7.149   1.943   0.373 -0.2433 -0.5703 -0.1797
    3CHTO   H18 1244   7.167   2.049   0.392  2.0483 -0.3850 -3.0673
    3CHTO   C16 1245   7.044   1.925   0.262  0.0354  0.0220 -0.0612
    3CHTO   O11 1246   6.917   1.990   0.273  0.3016 -0.0591  0.5987
    3CHTO    H5 1247   6.873   1.946   0.204  2.4012 -0.7517 -0.3235
    3CHTO    O3 1248   7.495   1.835   0.324 -0.3923 -0.4792  0.5425
    3CHTO    C6 1249   7.566   1.891   0.218  0.7194  0.0906  0.3956
    3CHTO   H19 1250   7.513   1.978   0.180  0.9072  0.4156  0.8883
    3CHTO    C8 1251   7.707   1.947   0.264  0.3766  0.8229  0.2976
    3CHTO   H21 1252   7.749   1.865   0.322 -1.6912  0.9617  2.0291
    3CHTO    O7 1253   7.701   2.061   0.350 -0.2774 -0.7991 -0.0683
    3CHTO    H2 1254   7.622   2.111   0.342  0.3918  0.2442 -0.1196
    3CHTO   C12 1255   7.794   1.978   0.138  0.2163  0.2478  0.7789
    3CHTO   H25 1256   7.750   2.066   0.085 -0.9762 -0.3483  0.7666
    3CHTO    N3 1257   7.933   2.021   0.181 -0.4924  0.5840 -0.5444
    3CHTO   H12 1258   7.930   2.094   0.260  0.8439  0.1125 -0.0523
    3CHTO   H13 1259   7.995   2.052   0.098 -1.4021  1.9468 -0.7249
    3CHTO   C15 1260   7.791   1.861   0.032  0.1969 -0.3539 -0.0703
    3CHTO   H28 1261   7.847   1.774   0.065 -1.2771 -0.8187  1.2829
    3CHTO   O10 1262   7.851   1.890  -0.103  0.0262 -0.4800 -0.0618
    3CHTO    H4 1263   7.915   1.958  -0.092  0.0905 -0.4962 -0.3415
    3CHTO    O5 1264   7.656   1.832  -0.006  0.0178 -0.3339  0.4141
    3CHTO   C10 1265   7.579   1.783   0.104  0.2053  0.2160  0.1648
    3CHTO   H23 1266   7.628   1.692   0.139 -0.2104 -0.3520 -0.7156
    3CHTO   C17 1267   7.453   1.747   0.033  0.4882 -0.3716  0.2003
    3CHTO   O12 1268   7.365   1.687   0.125  0.1546  0.1663  0.2654
    3CHTO    H6 1269   7.366   1.597   0.100 -0.0908 -0.5548  2.6837
    4CHTO  H203 1270   6.540   7.140   2.372  0.1871  1.4764  1.1180
    4CHTO   O82 1271   6.455   7.170   2.345 -0.1647 -0.4236  0.0333
    4CHTO  C123 1272   6.423   7.308   2.380  0.0133  0.6705 -0.6513
    4CHTO  H227 1273   6.363   7.311   2.472  0.9406  0.2535 -0.0252
    4CHTO   O77 1274   6.557   7.363   2.408 -0.1731 -0.6894 -0.6530
    4CHTO  C118 1275   6.556   7.498   2.465 -0.2204  0.0688  0.3114
    4CHTO  H222 1276   6.482   7.497   2.546 -0.7815  0.4081 -0.1949
    4CHTO  C125 1277   6.696   7.537   2.519  0.1143 -0.2276 -0.2629
    4CHTO   O84 1278   6.801   7.565   2.431  0.2909 -0.1063  0.1136
    4CHTO  H205 1279   6.825   7.655   2.430 -0.4580  0.0964  0.0402
    4CHTO  C114 1280   6.505   7.591   2.361 -0.3955 -0.6618 -0.3049
    4CHTO  H218 1281   6.566   7.585   2.271  0.3910 -1.4197  0.2679
    4CHTO  C116 1282   6.362   7.549   2.314 -0.0081  0.0924  0.5610
    4CHTO  H220 1283   6.295   7.560   2.402 -0.4078 -0.8522  0.3775
    4CHTO   O79 1284   6.323   7.636   2.210 -0.3940  0.1311  0.4937
    4CHTO  H201 1285   6.277   7.709   2.245  0.9231  0.6380  1.2086
    4CHTO  C120 1286   6.363   7.400   2.271  0.6484  0.3660  0.2030
    4CHTO  H224 1287   6.420   7.399   2.176  0.0659 -1.3511 -0.1495
    4CHTO   N21 1288   6.229   7.349   2.222  0.2260  0.5065 -0.3497
    4CHTO  H211 1289   6.148   7.402   2.271 -0.1426  1.6016 -2.0723
    4CHTO  H212 1290   6.221   7.355   2.114  1.1718 -1.7765 -0.5899
    4CHTO   O75 1291   6.501   7.721   2.418 -0.0750  0.1639 -0.2442
    4CHTO  C112 1292   6.598   7.818   2.365  0.0516  0.1171 -0.0592
    4CHTO  H216 1293   6.641   7.782   2.271  1.3592  1.8384 -0.1460
    4CHTO   O73 1294   6.705   7.848   2.460  0.1533  0.1567 -0.1254
    4CHTO  C113 1295   6.793   7.955   2.434  0.3980 -0.1564  0.2905
    4CHTO  H217 1296   6.851   7.932   2.342  1.7303 -0.0639  1.0949
    4CHTO  C124 1297   6.897   7.962   2.548  0.2566  0.1204 -0.2474
    4CHTO   O83 1298   6.999   8.063   2.542 -0.1239 -0.4820 -0.3476
    4CHTO  H204 1299   7.021   8.094   2.628  1.0491 -0.0890 -0.7845
    4CHTO  C109 1300   6.710   8.089   2.416 -0.3536  0.4189 -0.3312
    4CHTO  H213 1301   6.666   8.109   2.515  1.3562  0.6161  0.4234
    4CHTO  C110 1302   6.608   8.072   2.306 -0.2184 -0.6213 -0.6193
    4CHTO  H214 1303   6.655   8.057   2.208 -1.4158 -0.8677 -1.1730
    4CHTO   O78 1304   6.536   8.190   2.285  0.2988  0.1165 -0.3106
    4CHTO  H200 1305   6.577   8.244   2.220  0.9897  1.5293  1.2483
    4CHTO  C111 1306   6.518   7.951   2.335 -0.6200  0.6186  0.7343
    4CHTO  H215 1307   6.462   7.972   2.427 -0.0363 -2.3531  1.8192
    4CHTO   N19 1308   6.413   7.935   2.226 -0.2892  0.6714 -0.4474
    4CHTO  H207 1309   6.455   7.904   2.132 -2.7334 -0.5653 -1.1773
    4CHTO  H208 1310   6.364   8.030   2.208 -0.6538  0.5817  0.0463
    4CHTO   O74 1311   6.805   8.197   2.386 -0.2544  1.1108 -0.3798
    4CHTO  C115 1312   6.795   8.329   2.481  0.4163  0.2670  0.2684
    4CHTO  H219 1313   6.738   8.312   2.573  1.4725  0.6408  0.9997
    4CHTO   O76 1314   6.950   8.376   2.534  0.2669  0.5453  0.2295
    4CHTO  C122 1315   7.036   8.397   2.421 -0.4774 -0.0361  0.4000
    4CHTO  H226 1316   7.067   8.301   2.378 -1.5697  0.2992 -1.1765
    4CHTO  C126 1317   7.166   8.470   2.482 -0.3686 -0.1680  0.5656
    4CHTO   O85 1318   7.278   8.485   2.399 -0.0253  0.5917 -0.3471
    4CHTO  H206 1319   7.345   8.541   2.434  1.0040 -0.9404  0.1855
    4CHTO  C121 1320   6.975   8.500   2.312 -0.6445  0.6286 -0.5067
    4CHTO  H225 1321   7.046   8.586   2.316 -0.3648  0.3972 -0.5000
    4CHTO   O81 1322   6.947   8.438   2.187  0.1886 -0.5001  0.1503
    4CHTO  H202 1323   7.030   8.421   2.148 -0.6610 -1.5360 -1.2822
    4CHTO  C119 1324   6.844   8.559   2.367 -0.8434 -1.1701 -0.0778
    4CHTO  H223 1325   6.867   8.613   2.458 -0.3328 -0.2011 -0.7737
    4CHTO  C117 1326   6.735   8.448   2.398  0.0755  0.5981 -0.3991
    4CHTO  H221 1327   6.690   8.401   2.311  1.0150  1.8944 -1.6084
    4CHTO   N20 1328   6.624   8.513   2.476  0.0017  0.1065 -0.1107
    4CHTO  H209 1329   6.538   8.448   2.483  0.7926 -0.7589  2.0082
    4CHTO  H210 1330   6.645   8.552   2.574 -0.3784  0.1805 -0.0610
    4CHTO   O80 1331   6.779   8.667   2.276 -0.8859 -0.3271 -0.0214
    4CHTO  C103 1332   6.782   8.815   2.317 -0.1545 -0.0314 -0.4223
    4CHTO  H190 1333   6.730   8.825   2.412  0.3868 -0.6710 -0.0541
    4CHTO  C101 1334   6.911   8.896   2.329 -0.2126 -0.0537 -0.1975
    4CHTO  H188 1335   6.972   8.874   2.241 -1.7741  0.8998 -1.5353
    4CHTO   O68 1336   6.978   8.835   2.442 -0.3809 -0.6037 -0.2527
    4CHTO  H168 1337   7.018   8.902   2.493 -2.5249  0.6943 -0.2011
    4CHTO   C99 1338   6.893   9.055   2.334 -0.7370  0.4971  0.0739
    4CHTO  H186 1339   6.835   9.082   2.424 -0.6267 -0.1004  0.3258
    4CHTO   N17 1340   7.019   9.135   2.343  0.6235  0.3461 -0.1723
    4CHTO  H174 1341   6.994   9.235   2.376  0.3578  0.6068 -1.1445
    4CHTO  H175 1342   7.081   9.072   2.405 -0.8410 -1.1519 -0.1945
    4CHTO   C97 1343   6.807   9.099   2.211 -0.0830  0.4664  0.1742
    4CHTO  H184 1344   6.865   9.075   2.120 -0.7834  2.2890 -0.7876
    4CHTO   O64 1345   6.676   9.028   2.215 -0.1073 -0.2942  0.2213
    4CHTO  C104 1346   6.689   8.884   2.203  0.2840  0.6245  0.3531
    4CHTO  H191 1347   6.722   8.854   2.103 -0.6897  1.2865 -0.1719
    4CHTO  C108 1348   6.547   8.826   2.214  0.0099  0.1556 -0.1075
    4CHTO   O71 1349   6.460   8.868   2.104  0.1317  0.5589 -0.4878
    4CHTO  H171 1350   6.462   8.796   2.045 -1.2154  2.3061 -2.7675
    4CHTO   O62 1351   6.770   9.238   2.211 -0.6263  0.4096 -0.4960
    4CHTO   C91 1352   6.729   9.288   2.083  0.0308  0.1535  0.0197
    4CHTO  H178 1353   6.714   9.208   2.010 -0.6390  1.8664 -1.7626
    4CHTO   C92 1354   6.842   9.372   2.014 -0.0241  0.2111  0.2752
    4CHTO  H179 1355   6.840   9.474   2.055 -0.1101  0.3205 -0.0035
    4CHTO   O66 1356   6.970   9.315   2.037 -0.0164  0.2721  0.5779
    4CHTO  H166 1357   6.964   9.223   2.056 -0.7984  0.4608  1.2891
    4CHTO   C93 1358   6.812   9.369   1.859  0.6400 -0.2838 -0.2387
    4CHTO  H180 1359   6.838   9.271   1.816  0.5195 -0.3529 -0.1554
    4CHTO   N16 1360   6.891   9.466   1.786 -0.2493  0.3545 -0.0661
    4CHTO  H172 1361   6.997   9.457   1.809  0.8493  0.4843 -4.5802
    4CHTO  H173 1362   6.889   9.459   1.678  1.5503 -2.5645  0.0306
    4CHTO   C94 1363   6.660   9.397   1.838  0.3421  0.0538  0.1589
    4CHTO  H181 1364   6.640   9.475   1.765 -0.2248 -0.4298 -0.2070
    4CHTO   O61 1365   6.581   9.434   1.952 -0.1169 -0.5508  0.3050
    4CHTO   C95 1366   6.593   9.371   2.083 -0.6350 -0.7313 -0.1334
    4CHTO  H182 1367   6.605   9.453   2.153 -0.9184 -2.4163  1.9174
    4CHTO  C106 1368   6.463   9.290   2.107 -0.5641 -0.3350  0.1477
    4CHTO   O69 1369   6.460   9.249   2.246  0.3922 -0.1388  0.0448
    4CHTO  H169 1370   6.369   9.233   2.263  0.1495 -0.2895 -1.3210
    4CHTO   O63 1371   6.597   9.243   1.772 -0.4246  0.1012 -0.1040
    4CHTO   C96 1372   6.664   9.208   1.621 -0.2582 -0.2380 -0.6523
    4CHTO  H183 1373   6.762   9.256   1.611  0.5523 -1.2165  2.0485
    4CHTO   C98 1374   6.569   9.255   1.503  0.0155  0.5392  0.8731
    4CHTO  H185 1375   6.469   9.212   1.520  0.2407 -0.7302 -0.8913
    4CHTO   O67 1376   6.558   9.398   1.520 -1.0887 -0.1353  0.2283
    4CHTO  H167 1377   6.543   9.419   1.610  1.1370 -1.6763  0.9831
    4CHTO  C102 1378   6.616   9.224   1.359  0.5478 -0.5143 -0.0948
    4CHTO  H189 1379   6.709   9.280   1.340  0.5706 -0.4098  0.3334
    4CHTO   N18 1380   6.522   9.261   1.256 -0.0815 -0.0211 -0.0017
    4CHTO  H176 1381   6.558   9.239   1.157 -0.5367  0.0553 -0.1852
    4CHTO  H177 1382   6.430   9.210   1.282  0.1377  0.9579  2.9284
    4CHTO  C105 1383   6.651   9.072   1.363 -0.3974 -0.4440  0.3768
    4CHTO  H192 1384   6.558   9.017   1.374  0.4852 -1.7831  1.2944
    4CHTO   O65 1385   6.736   9.032   1.474 -0.3792  0.1538 -1.1451
    4CHTO  C100 1386   6.691   9.060   1.604  0.4175  0.0014  0.2722
    4CHTO  H187 1387   6.594   9.011   1.620  0.0651  0.7653  0.5214
    4CHTO  C107 1388   6.801   9.009   1.696 -0.1510  0.6213 -0.3122
    4CHTO   O70 1389   6.757   8.990   1.831 -0.0059 -0.3100  0.1383
    4CHTO  H170 1390   6.826   9.018   1.887  1.2935 -0.0286 -1.5895
    4CHTO   O57 1391   6.740   9.048   1.240 -0.1641 -0.0711 -0.5042
    4CHTO   C85 1392   6.714   8.943   1.147 -0.0118 -0.1708 -0.4499
    4CHTO  H157 1393   6.613   8.958   1.103 -0.6298 -0.7198  0.7662
    4CHTO   C83 1394   6.707   8.797   1.216  0.1726  0.5562 -0.0182
    4CHTO  H155 1395   6.625   8.801   1.289  1.4290  1.5815  1.3674
    4CHTO   O56 1396   6.827   8.772   1.298  0.3838  0.1334 -0.5667
    4CHTO  H135 1397   6.830   8.680   1.312  0.1500  0.1126 -0.6615
    4CHTO   C81 1398   6.678   8.698   1.103 -0.2274 -0.3180  0.2114
    4CHTO  H153 1399   6.587   8.729   1.051 -1.8022 -2.6345  1.4784
    4CHTO   N14 1400   6.642   8.568   1.167 -0.5156 -0.2829 -0.1425
    4CHTO  H141 1401   6.695   8.492   1.113  1.9455  0.2348  1.4668
    4CHTO  H142 1402   6.537   8.550   1.154 -0.4155 -1.4579  0.5954
    4CHTO   C79 1403   6.789   8.689   0.995  0.0341 -0.3923  0.7571
    4CHTO  H151 1404   6.748   8.633   0.911  0.2204  1.0195 -0.2973
    4CHTO   O52 1405   6.803   8.819   0.936 -0.1062  0.7335  0.1515
    4CHTO   C86 1406   6.827   8.926   1.034 -0.1082  0.2340 -0.0417
    4CHTO  H158 1407   6.923   8.892   1.079  1.1129  0.6458 -2.2815
    4CHTO   C90 1408   6.852   9.062   0.976  0.4020  0.1957 -0.3030
    4CHTO   O60 1409   6.969   9.054   0.890  0.3589  0.8156  0.3221
    4CHTO  H138 1410   7.001   9.141   0.876 -1.6212  1.2516 -1.6855
    4CHTO   O50 1411   6.917   8.629   1.027  0.0226  0.1518 -0.3175
    4CHTO   C73 1412   7.053   8.634   1.065  0.3000 -0.0185  0.0412
    4CHTO  H145 1413   7.063   8.690   1.159 -2.0043  1.2167 -0.3895
    4CHTO   C74 1414   7.139   8.712   0.955  0.4421 -0.7946 -0.7113
    4CHTO  H146 1415   7.093   8.811   0.940  2.2311 -0.0049 -1.0596
    4CHTO   O54 1416   7.263   8.761   1.015 -0.0565 -0.3558 -0.1179
    4CHTO  H133 1417   7.327   8.692   1.017  0.6686  0.3272  0.3781
    4CHTO   C75 1418   7.153   8.637   0.823 -0.4925  0.3470  0.1777
    4CHTO  H147 1419   7.052   8.619   0.781  0.2380 -0.8906 -1.0804
    4CHTO   N13 1420   7.242   8.709   0.729  0.1226 -0.6340 -0.6321
    4CHTO  H139 1421   7.290   8.653   0.650 -0.1163  0.2460 -1.4077
    4CHTO  H140 1422   7.180   8.788   0.688 -1.6074 -0.3132  2.4028
    4CHTO   C76 1423   7.209   8.486   0.855 -0.3083 -0.1835 -0.2745
    4CHTO  H148 1424   7.314   8.497   0.884 -0.1062 -0.7441 -0.7814
    4CHTO   O49 1425   7.144   8.422   0.967  0.1750 -0.7967  0.1511
    4CHTO   C77 1426   7.119   8.492   1.085 -0.1906  0.0919 -0.0675
    4CHTO  H149 1427   7.208   8.504   1.147  1.5204 -1.7378 -2.0858
    4CHTO   C88 1428   7.036   8.397   1.163  0.1776  0.2676 -0.1682
    4CHTO   O58 1429   6.929   8.352   1.108  0.4568 -0.1480 -0.2641
    4CHTO  H136 1430   6.853   8.402   1.130  0.1163 -0.4262 -0.8106
    4CHTO   O51 1431   7.198   8.380   0.725  0.4096  0.0117  0.0356
    4CHTO   C78 1432   7.329   8.351   0.647  0.2756  0.0987  0.6620
    4CHTO  H150 1433   7.404   8.430   0.666 -0.2409  0.9668 -0.8027
    4CHTO   C80 1434   7.300   8.342   0.494 -0.0751 -0.8991 -0.0555
    4CHTO  H152 1435   7.219   8.267   0.482 -1.2467  0.3068  0.1451
    4CHTO   O55 1436   7.246   8.468   0.450 -0.0029 -0.2533  0.1578
    4CHTO  H134 1437   7.269   8.483   0.361  0.0145  1.2857  0.4028
    4CHTO   C84 1438   7.426   8.294   0.411  0.2198  0.5229  0.2297
    4CHTO  H156 1439   7.497   8.376   0.423 -0.2103  0.7680  1.2201
    4CHTO   N15 1440   7.390   8.268   0.271 -0.0480  0.1646  0.4496
    4CHTO  H143 1441   7.450   8.324   0.202 -3.2585  0.8276 -1.9421
    4CHTO  H144 1442   7.398   8.164   0.248  0.9268  0.1029  1.0465
    4CHTO   C87 1443   7.479   8.163   0.473  0.1140 -0.3655  0.0185
    4CHTO  H159 1444   7.395   8.093   0.465  0.0884 -0.4538  0.9891
    4CHTO   O53 1445   7.506   8.195   0.622  0.0066 -0.1148  0.2188
    4CHTO   C82 1446   7.390   8.224   0.702 -0.7593  0.2985 -0.1388
    4CHTO  H154 1447   7.322   8.139   0.698 -1.6711  1.0721 -1.6173
    4CHTO   C89 1448   7.434   8.245   0.844  0.2653  0.0327  0.1962
    4CHTO   O59 1449   7.483   8.130   0.909 -0.1505  0.3418 -0.1688
    4CHTO  H137 1450   7.412   8.083   0.949 -1.1462  0.9756 -1.1302
    4CHTO   O45 1451   7.637   8.095   0.402 -0.1788 -0.3476  0.1371
    4CHTO   C67 1452   7.686   7.974   0.463  0.4832  0.3175 -0.4517
    4CHTO  H124 1453   7.749   7.919   0.393 -1.6867 -0.4328 -1.8813
    4CHTO   C65 1454   7.766   8.008   0.595  0.0632  0.1669  0.3549
    4CHTO  H122 1455   7.756   8.115   0.611  2.0068  1.1574 -4.2026
    4CHTO   O44 1456   7.907   7.980   0.558 -0.1583  0.0597 -0.7571
    4CHTO  H102 1457   7.935   7.905   0.606 -0.3766 -0.5726 -1.5976
    4CHTO   C63 1458   7.715   7.940   0.731  0.2998 -0.5171 -0.1370
    4CHTO  H120 1459   7.616   7.982   0.751 -0.1658 -1.4279 -0.5011
    4CHTO   N11 1460   7.793   7.964   0.858  0.0289  0.1969 -0.1575
    4CHTO  H108 1461   7.755   7.914   0.945  0.2337  0.3823  0.0381
    4CHTO  H109 1462   7.898   7.945   0.852  0.0603  0.6918 -1.2135
    4CHTO   C61 1463   7.689   7.788   0.694 -0.5830  0.3713  0.3997
    4CHTO  H118 1464   7.637   7.748   0.783 -0.3324  0.7438  0.7203
    4CHTO   O40 1465   7.606   7.761   0.579 -0.1141  0.6874  0.2392
    4CHTO   C68 1466   7.566   7.873   0.498 -0.0867 -0.4472  0.4251
    4CHTO  H125 1467   7.481   7.925   0.547  0.7413  0.7773  0.5807
    4CHTO   C72 1468   7.513   7.813   0.369 -0.0919 -0.1119 -0.3757
    4CHTO   O48 1469   7.468   7.917   0.281 -0.9149 -0.1114  0.5026
    4CHTO  H105 1470   7.430   7.872   0.209 -0.0576  0.2008 -0.1499
    4CHTO   O38 1471   7.811   7.718   0.660  0.1956 -0.5220 -0.1879
    4CHTO   C55 1472   7.810   7.576   0.675  0.6234 -0.2824  0.8888
    4CHTO  H112 1473   7.710   7.531   0.673  0.3566  0.3609 -1.1094
    4CHTO   C56 1474   7.885   7.538   0.802  0.7064 -0.8282 -0.0878
    4CHTO  H113 1475   7.987   7.577   0.796 -0.3066  2.0578  0.9480
    4CHTO   O42 1476   7.821   7.600   0.915 -0.1012  0.0949  0.1289
    4CHTO  H100 1477   7.884   7.627   0.979 -0.9088 -1.0654  1.4573
    4CHTO   C57 1478   7.887   7.382   0.815  0.8376  0.6838  0.6866
    4CHTO  H114 1479   7.786   7.348   0.837  0.5249  0.3362 -1.2144
    4CHTO   N10 1480   7.968   7.336   0.931  0.1796 -0.4744 -0.1892
    4CHTO  H106 1481   8.073   7.336   0.903  0.1433  0.8941 -0.3265
    4CHTO  H107 1482   7.955   7.383   1.027  0.6210 -2.2385  0.7638
    4CHTO   C58 1483   7.939   7.309   0.687  0.2976  0.0727  0.1552
    4CHTO  H115 1484   8.049   7.323   0.677  0.4358  1.5136  3.0556
    4CHTO   O37 1485   7.870   7.366   0.573 -0.0322 -0.3507 -0.1752
    4CHTO   C59 1486   7.875   7.508   0.553 -0.6724 -0.0654  0.2767
    4CHTO  H116 1487   7.983   7.526   0.554 -0.5482 -0.8040  0.6347
    4CHTO   C70 1488   7.813   7.539   0.417  0.2172  0.2829  0.2979
    4CHTO   O46 1489   7.682   7.483   0.409 -0.1506  0.2501  0.7489
    4CHTO  H103 1490   7.620   7.535   0.362  0.0058 -0.9877 -0.8935
    4CHTO   O39 1491   7.895   7.139   0.680 -0.5541  0.1602 -0.3276
    4CHTO   C60 1492   7.755   7.117   0.644 -1.1202 -0.6808  0.4917
    4CHTO  H117 1493   7.696   7.205   0.672  0.6189  0.0224  2.0689
    4CHTO   C62 1494   7.748   7.092   0.486 -0.1503  0.1689 -0.1309
    4CHTO  H119 1495   7.783   7.183   0.433 -2.2479 -1.2614 -4.1682
    4CHTO   O43 1496   7.830   6.987   0.445  0.7110  0.1125  0.0288
    4CHTO  H101 1497   7.917   7.022   0.445  1.2618 -1.2091 -0.3851
    4CHTO   C66 1498   7.588   7.071   0.462  0.5985 -0.0762  0.4002
    4CHTO  H123 1499   7.535   7.158   0.499 -1.8072 -1.0946 -0.5251
    4CHTO   N12 1500   7.543   7.066   0.322 -0.4491 -0.0334  0.4368
    4CHTO  H110 1501   7.507   6.967   0.299 -0.2047 -0.2066  0.8095
    4CHTO  H111 1502   7.621   7.097   0.254 -0.5325 -0.8247 -0.0251
    4CHTO   C69 1503   7.546   6.945   0.543 -0.1362  0.0690 -0.7065
    4CHTO  H126 1504   7.610   6.861   0.511 -0.5771  0.4717 -2.7149
    4CHTO   O41 1505   7.554   6.978   0.691  0.6272  0.3812  0.5657
    4CHTO   C64 1506   7.695   6.994   0.721 -0.5055 -0.0555 -0.6234
    4CHTO  H121 1507   7.753   6.904   0.692 -0.1849 -0.2038  0.4584
    4CHTO   C71 1508   7.710   7.004   0.874  0.0800 -0.1541  0.2095
    4CHTO   O47 1509   7.671   6.883   0.935  0.3242 -0.7440  0.5442
    4CHTO  H104 1510   7.580   6.897   0.955  0.5117 -0.5989  1.2968
    4CHTO   O34 1511   7.394   6.897   0.525 -0.3312 -0.2943 -0.2678
    4CHTO   C49 1512   7.342   6.757   0.514  0.7056  0.2389  0.0928
    4CHTO   H91 1513   7.426   6.689   0.505  0.9639  0.7224 -1.2637
    4CHTO   C47 1514   7.260   6.744   0.387  0.3661  0.5579  0.7973
    4CHTO   H89 1515   7.339   6.711   0.317 -0.7430  1.4031 -0.8631
    4CHTO   O33 1516   7.209   6.868   0.343 -0.5711  0.5989  0.3346
    4CHTO   H70 1517   7.147   6.849   0.275 -1.1170  0.8342  0.7650
    4CHTO   C45 1518   7.140   6.641   0.406 -0.6818 -0.1649  0.3117
    4CHTO   H87 1519   7.053   6.689   0.453 -0.5620 -1.2074  1.6630
    4CHTO    N8 1520   7.101   6.577   0.272  0.2064 -0.1843 -0.1349
    4CHTO   H75 1521   7.027   6.503   0.299  1.0772 -1.7869 -1.9540
    4CHTO   H76 1522   7.177   6.522   0.217  1.8836  4.2020 -2.4844
    4CHTO   C43 1523   7.184   6.522   0.514 -0.8183 -0.2647 -0.7757
    4CHTO   H85 1524   7.091   6.466   0.524 -0.9708  0.4081  2.0698
    4CHTO   O29 1525   7.218   6.586   0.642 -0.4356 -0.1228  0.4844
    4CHTO   C50 1526   7.258   6.723   0.646 -0.1733 -0.0096  0.3520
    4CHTO   H92 1527   7.167   6.784   0.646  0.0998  0.4144  1.4206
    4CHTO   C54 1528   7.337   6.753   0.772  0.2245 -0.4584 -0.7553
    4CHTO   O36 1529   7.469   6.708   0.771 -0.3506 -0.0443 -0.1857
    4CHTO   H72 1530   7.524   6.757   0.829 -0.4402 -0.1031 -0.0506
    4CHTO   O27 1531   7.299   6.452   0.469  0.1045  0.0171  0.1975
    4CHTO   C37 1532   7.404   6.354   0.459 -0.2264  0.2545 -0.2458
    4CHTO   H79 1533   7.369   6.272   0.394 -3.2911 -0.0631  1.7089
    4CHTO   C38 1534   7.535   6.412   0.398  0.3715 -1.0236 -0.1928
    4CHTO   H80 1535   7.556   6.507   0.450  2.5945 -1.7678  0.3061
    4CHTO   O31 1536   7.519   6.446   0.253 -0.6302 -0.1131 -0.0439
    4CHTO   H68 1537   7.602   6.464   0.214 -1.2251 -0.1815 -1.4010
    4CHTO   C39 1538   7.663   6.319   0.412  0.1663 -0.0491  0.0006
    4CHTO   H81 1539   7.650   6.236   0.342  1.4694 -2.3154  2.3826
    4CHTO    N7 1540   7.802   6.384   0.394 -0.5911 -0.3616 -0.6531
    4CHTO   H73 1541   7.880   6.309   0.396  1.2567  1.5302  0.0799
    4CHTO   H74 1542   7.790   6.422   0.293  1.7519 -1.9572 -1.5731
    4CHTO   C40 1543   7.661   6.240   0.554  0.7438 -0.2059  0.3819
    4CHTO   H82 1544   7.698   6.309   0.630  1.6367 -0.0169 -0.2106
    4CHTO   O26 1545   7.531   6.190   0.586 -0.7984  0.1814 -0.1846
    4CHTO   C41 1546   7.434   6.296   0.604  0.0321  0.1712 -0.1145
    4CHTO   H83 1547   7.487   6.371   0.664 -0.4137  1.1502 -0.9302
    4CHTO   C52 1548   7.307   6.248   0.675  0.1683 -0.2009  0.3786
    4CHTO   O35 1549   7.331   6.182   0.803 -0.3097 -0.2613  0.8525
    4CHTO   H71 1550   7.248   6.148   0.831 -1.4448  0.8011 -1.0967
    4CHTO   O28 1551   7.725   6.112   0.535 -0.0747  0.4673  0.4309
    4CHTO   C42 1552   7.832   6.061   0.616  0.1578  0.2626  0.1641
    4CHTO   H84 1553   7.891   6.147   0.648 -1.9643  1.5190  0.7985
    4CHTO   C44 1554   7.930   5.973   0.529  0.5049  0.6439  0.8039
    4CHTO   H86 1555   7.871   5.898   0.476  1.3161 -0.0290  0.8376
    4CHTO   O32 1556   7.975   6.063   0.432  0.3339  0.4524 -0.1130
    4CHTO   H69 1557   7.909   6.071   0.366 -1.1867  1.5949  1.5014
    4CHTO   C48 1558   8.044   5.905   0.611 -0.4308  0.5325 -0.4059
    4CHTO   H90 1559   8.122   5.977   0.636  0.2628  0.0045 -1.0438
    4CHTO    N9 1560   8.120   5.800   0.535  0.1285  0.0818 -1.1483
    4CHTO   H77 1561   8.094   5.704   0.578  0.6961  1.5420  2.5849
    4CHTO   H78 1562   8.224   5.817   0.558 -0.6563  0.9249  2.0553
    4CHTO   C51 1563   7.985   5.844   0.751  0.2679  0.1377  0.0230
    4CHTO   H93 1564   7.924   5.756   0.731 -0.0382  0.2656  0.3850
    4CHTO   O30 1565   7.910   5.946   0.821  0.6275  0.5055  0.4958
    4CHTO   C46 1566   7.785   5.987   0.747  0.0374  0.5646  0.4836
    4CHTO   H88 1567   7.717   5.909   0.713  1.0260  0.0593 -0.3890
    4CHTO   C53 1568   7.708   6.082   0.839  0.7309 -0.5131  0.3390
    4CHTO   O72 1569   7.665   6.004   0.951 -0.1628 -0.1221  0.1277
    4CHTO  H199 1570   7.686   6.050   1.030  1.1749 -0.2682 -0.1332
    4CHTO   O22 1571   8.094   5.801   0.834  0.3878  0.3015 -0.0356
    4CHTO   C31 1572   8.072   5.756   0.971  0.2851 -0.7735 -0.3013
    4CHTO   H59 1573   7.976   5.801   1.003  0.8691 -0.2658  0.7460
    4CHTO   C29 1574   8.055   5.606   0.999 -0.2163 -0.1244  0.3007
    4CHTO   H57 1575   8.151   5.555   0.985 -0.2113 -0.2452  0.7621
    4CHTO   O21 1576   7.968   5.550   0.896 -0.2431 -1.0935 -0.0531
    4CHTO   H37 1577   8.018   5.557   0.817 -0.4199 -1.3520 -0.1853
    4CHTO   C27 1578   8.005   5.583   1.148  0.5845 -0.3328  0.3811
    4CHTO   H55 1579   7.901   5.619   1.153  0.2069 -1.3331 -0.2283
    4CHTO    N5 1580   7.996   5.438   1.188  0.2518 -0.5063 -0.4345
    4CHTO   H43 1581   8.000   5.373   1.102  1.2257 -0.7676 -0.2003
    4CHTO   H44 1582   7.904   5.419   1.241  0.4929 -1.8597 -0.4788
    4CHTO   C25 1583   8.094   5.666   1.251  0.5580 -0.6209  0.0528
    4CHTO   H53 1584   8.193   5.618   1.253  1.2274  0.7424 -0.0903
    4CHTO   O17 1585   8.132   5.800   1.201 -0.0337  0.2438  0.1520
    4CHTO   C32 1586   8.177   5.818   1.065  0.3386  0.2470  0.5910
    4CHTO   H60 1587   8.275   5.781   1.037  0.5844  1.5517 -0.3041
    4CHTO   C36 1588   8.194   5.965   1.032 -0.8826 -0.3659  0.0012
    4CHTO   O25 1589   8.275   6.044   1.124 -0.3633 -0.0142  0.0999
    4CHTO   H40 1590   8.349   6.088   1.087 -1.7990  1.6728 -0.7884
    4CHTO   O15 1591   8.017   5.690   1.383 -0.0632  0.1175 -0.3690
    4CHTO   C19 1592   7.996   5.746   1.511 -0.2936 -0.4426  0.3206
    4CHTO   H47 1593   7.894   5.716   1.539 -0.2654 -1.5385 -0.7560
    4CHTO   C20 1594   8.092   5.698   1.627  0.4692 -0.0442  0.0142
    4CHTO   H48 1595   8.196   5.724   1.604  0.1056  2.3160  0.9413
    4CHTO   O19 1596   8.072   5.554   1.635  0.9450 -0.4138  0.7053
    4CHTO   H35 1597   8.099   5.512   1.556  0.6732 -0.4258  0.6148
    4CHTO   C21 1598   8.050   5.768   1.763  0.1714  0.3008  0.0195
    4CHTO   H49 1599   7.949   5.737   1.789  0.7366 -0.6020  1.1571
    4CHTO    N4 1600   8.132   5.717   1.877 -0.2182 -0.6451  0.0884
    4CHTO   H41 1601   8.160   5.616   1.854 -0.5057 -0.6368 -0.2861
    4CHTO   H42 1602   8.071   5.717   1.966 -0.1251 -0.4708  0.1525
    4CHTO   C22 1603   8.045   5.921   1.749  0.4890  0.0313  0.0136
    4CHTO   H50 1604   8.144   5.957   1.719  1.5610 -3.0470 -0.2802
    4CHTO   O14 1605   7.953   5.957   1.646 -0.1441  0.7227 -0.1048
    4CHTO   C23 1606   7.987   5.903   1.514 -0.4509  0.2036  0.1634
    4CHTO   H51 1607   8.083   5.951   1.489 -0.8886 -0.3133 -2.7544
    4CHTO   C34 1608   7.881   5.959   1.419  0.0269 -0.0132  0.6222
    4CHTO   O23 1609   7.928   5.970   1.282  0.0987  0.2425  0.0251
    4CHTO   H38 1610   7.877   6.038   1.241  0.2055  0.6099  0.5020
    4CHTO   O16 1611   8.006   5.987   1.869 -0.0001 -0.2129 -0.5298
    4CHTO   C24 1612   7.994   6.139   1.854  0.2953 -0.2241 -0.1179
    4CHTO   H52 1613   7.986   6.166   1.748  3.1168 -2.1012 -0.8442
    4CHTO   C26 1614   8.113   6.215   1.919  0.3949  0.0660 -0.2342
    4CHTO   H54 1615   8.119   6.197   2.028  1.7248  3.0191  0.2360
    4CHTO   O20 1616   8.238   6.161   1.866  0.0523  0.1076 -0.3498
    4CHTO   H36 1617   8.284   6.099   1.920  1.6760 -1.1349 -2.9898
    4CHTO   C30 1618   8.094   6.362   1.881  0.2063  0.0092 -0.7969
    4CHTO   H58 1619   8.122   6.370   1.775 -1.1534 -2.7562 -1.3969
    4CHTO    N6 1620   8.202   6.446   1.935  0.2248  1.0104  0.4122
    4CHTO   H45 1621   8.280   6.451   1.860 -1.2385 -0.5075 -1.2740
    4CHTO   H46 1622   8.239   6.401   2.026 -0.3837  1.8037  1.0574
    4CHTO   C33 1623   7.951   6.420   1.907 -0.0987  0.3982  0.2752
    4CHTO   H61 1624   7.938   6.449   2.013  1.1822  0.0015  0.5426
    4CHTO   O18 1625   7.843   6.330   1.872  0.0950  0.5791  0.1263
    4CHTO   C28 1626   7.864   6.194   1.925 -0.6189  0.2995  0.0727
    4CHTO   H56 1627   7.877   6.207   2.032  0.2827  1.7022 -0.1916
    4CHTO   C35 1628   7.748   6.105   1.885 -0.1838 -0.6142 -0.2500
    4CHTO   O24 1629   7.726   5.980   1.949 -0.1545  0.4179  0.3557
    4CHTO   H39 1630   7.635   5.962   1.964  0.1323  0.9204  3.0024
    4CHTO    O9 1631   7.948   6.544   1.834  0.2781  0.4032  0.0460
    4CHTO   C13 1632   7.821   6.627   1.842  0.5004  0.4987 -0.3788
    4CHTO   H26 1633   7.733   6.560   1.832  0.4505  0.2619  1.6035
    4CHTO   C11 1634   7.827   6.736   1.731 -0.4449  0.2112  0.0786
    4CHTO   H24 1635   7.834   6.683   1.635  0.1683 -0.3767  0.4493
    4CHTO    O8 1636   7.947   6.818   1.743  0.4599 -0.2066  0.1192
    4CHTO    H3 1637   7.961   6.870   1.666  1.2497 -2.4289 -1.2855
    4CHTO    C9 1638   7.687   6.805   1.729  0.3099  0.4750  0.1011
    4CHTO   H22 1639   7.617   6.720   1.721  0.3605  0.4959 -0.6169
    4CHTO    N2 1640   7.662   6.891   1.612 -0.0681 -0.2569  0.2577
    4CHTO   H10 1641   7.721   6.981   1.597 -0.9005  0.2355 -0.0960
    4CHTO   H11 1642   7.655   6.831   1.522 -1.4563 -0.7536  0.6850
    4CHTO    C7 1643   7.671   6.876   1.864 -0.0186  0.0463 -0.5045
    4CHTO   H20 1644   7.569   6.921   1.865  0.3361  0.8462  0.9186
    4CHTO    O4 1645   7.681   6.782   1.976 -0.1355 -0.1539 -0.0169
    4CHTO   C14 1646   7.797   6.696   1.984 -0.2768 -0.1556  0.3184
    4CHTO   H27 1647   7.772   6.612   2.053 -2.7232  0.2569 -0.0108
    4CHTO   C18 1648   7.925   6.763   2.042 -0.3869  0.3030 -0.4556
    4CHTO   O13 1649   7.910   6.805   2.180  0.2161  0.7310  0.6138
    4CHTO    H7 1650   7.949   6.890   2.182  1.0476  0.4767 -2.4151
    4CHTO    O2 1651   7.781   7.004   1.894 -0.1769 -0.6376  0.5730
    4CHTO    C1 1652   7.728   7.136   1.907 -0.0160  0.1634  0.3297
    4CHTO   H14 1653   7.618   7.129   1.892 -0.1719 -1.4324  2.0220
    4CHTO    C2 1654   7.793   7.247   1.814  0.2921 -0.6494 -0.0449
    4CHTO   H15 1655   7.900   7.224   1.824  0.4779  0.7572  1.3313
    4CHTO    O6 1656   7.746   7.227   1.676  0.1795  0.8509 -0.1667
    4CHTO    H1 1657   7.822   7.205   1.625  0.2901 -1.8049  1.1048
    4CHTO    C3 1658   7.751   7.399   1.854  0.7179 -0.2259  0.2274
    4CHTO   H16 1659   7.647   7.417   1.821  0.4338 -0.9844  0.7116
    4CHTO    N1 1660   7.835   7.501   1.782 -0.0962  0.1174 -0.1134
    4CHTO    H8 1661   7.939   7.476   1.773  0.2093  1.6269 -1.0434
    4CHTO    H9 1662   7.799   7.533   1.686 -2.1921 -0.2179  0.5365
    4CHTO    C4 1663   7.757   7.414   2.008 -1.1592  0.1064 -0.1372
    4CHTO   H17 1664   7.860   7.424   2.041 -0.7559 -2.5763 -0.4337
    4CHTO    O1 1665   7.691   7.304   2.073 -0.6619  0.1897 -0.6698
    4CHTO    C5 1666   7.747   7.177   2.058 -0.4576 -0.0178  0.1208
    4CHTO   H18 1667   7.851   7.188   2.087 -1.0295  0.4589  2.0986
    4CHTO   C16 1668   7.681   7.077   2.158 -0.1655 -0.0235 -0.0701
    4CHTO   O11 1669   7.714   7.120   2.288  0.4456  0.5582  0.6057
    4CHTO    H5 1670   7.680   7.056   2.348 -0.5679  1.1305  0.6546
    4CHTO    O3 1671   7.664   7.516   2.049 -0.2784 -0.3151 -0.5247
    4CHTO    C6 1672   7.709   7.616   2.150  0.2507  0.8965  0.3738
    4CHTO   H19 1673   7.811   7.592   2.180  0.5055 -0.1107 -1.2423
    4CHTO    C8 1674   7.696   7.762   2.092  0.3045 -0.1521 -0.6384
    4CHTO   H21 1675   7.592   7.776   2.062  0.0127 -0.5669  0.1714
    4CHTO    O7 1676   7.773   7.773   1.978 -0.3643 -0.4184 -0.3672
    4CHTO    H2 1677   7.745   7.845   1.925 -1.6128  0.1526  1.0492
    4CHTO   C12 1678   7.733   7.864   2.207  0.0502  1.1933 -0.2211
    4CHTO   H25 1679   7.842   7.857   2.230 -0.0742  0.1881  0.0678
    4CHTO    N3 1680   7.714   8.000   2.157  0.0514  0.9685 -0.5008
    4CHTO   H12 1681   7.734   8.075   2.232  0.7848  2.6410 -2.3326
    4CHTO   H13 1682   7.769   8.014   2.065 -0.2528 -0.9400 -0.9977
    4CHTO   C15 1683   7.652   7.840   2.331  0.5480 -0.1086  0.1011
    4CHTO   H28 1684   7.544   7.854   2.318  0.5323 -1.3638 -1.3207
    4CHTO   O10 1685   7.713   7.912   2.470  0.0696  0.0569 -0.0640
    4CHTO    H4 1686   7.807   7.907   2.463  0.0430  1.5195 -2.0125
    4CHTO    O5 1687   7.678   7.703   2.370  0.1787  0.2993  0.1755
    4CHTO   C10 1688   7.622   7.609   2.281 -0.0209  0.1514 -0.1398
    4CHTO   H23 1689   7.517   7.624   2.258 -0.2074 -0.9584 -0.0460
    4CHTO   C17 1690   7.636   7.477   2.356  0.1778  0.5322  0.8000
    4CHTO   O12 1691   7.550   7.483   2.473 -0.1127  0.7444  0.0799
    4CHTO    H6 1692   7.581   7.535   2.544  0.6680  1.6071 -0.8774
    5CHTO  H203 1693   7.797   3.698   0.776 -0.8800 -1.1880  0.5714
    5CHTO   O82 1694   7.759   3.730   0.856  0.1598  0.2917  0.4835
    5CHTO  C123 1695   7.864   3.756   0.954 -0.0162  0.1344  0.9338
    5CHTO  H227 1696   7.935   3.830   0.914  0.3978 -0.3375  0.7768
    5CHTO   O77 1697   7.779   3.809   1.055 -0.3160 -0.4078  0.0578
    5CHTO  C118 1698   7.851   3.833   1.178 -0.4604 -0.2502 -0.3124
    5CHTO  H222 1699   7.942   3.891   1.158 -2.0392  2.5894  0.4801
    5CHTO  C125 1700   7.766   3.911   1.276 -0.7881 -0.1314 -0.5711
    5CHTO   O84 1701   7.754   4.051   1.238 -0.2955  0.9970 -0.2755
    5CHTO  H205 1702   7.692   4.085   1.299 -0.1058 -1.1631  1.1697
    5CHTO  C114 1703   7.887   3.694   1.239  0.1195  0.0963 -0.4673
    5CHTO  H218 1704   7.803   3.627   1.219  0.0725 -0.0287  0.1410
    5CHTO  C116 1705   7.989   3.636   1.139  0.0921  0.3614 -0.3746
    5CHTO  H220 1706   8.076   3.705   1.134  0.0404  0.5252  0.8559
    5CHTO   O79 1707   8.034   3.506   1.189 -0.4431  0.1542 -0.4954
    5CHTO  H201 1708   7.963   3.449   1.168 -0.5200 -0.1572  0.5941
    5CHTO  C120 1709   7.933   3.620   0.994  0.0158  0.2064  0.6206
    5CHTO  H224 1710   7.852   3.545   0.998  0.6522 -0.5322 -0.0820
    5CHTO   N21 1711   8.036   3.581   0.889  0.0644  0.3270 -0.6314
    5CHTO  H211 1712   8.067   3.664   0.828 -0.0411 -0.4812 -1.8062
    5CHTO  H212 1713   8.124   3.540   0.936 -0.8847 -0.8002  0.2212
    5CHTO   O75 1714   7.937   3.700   1.375 -0.2909 -0.0009 -0.1184
    5CHTO  C112 1715   7.808   3.657   1.498  0.0577  0.6715  0.0366
    5CHTO  H216 1716   7.709   3.660   1.452 -1.1050 -2.2155  2.2417
    5CHTO   O73 1717   7.825   3.748   1.606 -0.3497  0.2054  0.3162
    5CHTO  C113 1718   7.717   3.729   1.703 -0.0620  0.4558  0.3402
    5CHTO  H217 1719   7.620   3.760   1.658  0.6961  0.3286 -1.4334
    5CHTO  C124 1720   7.736   3.838   1.817 -0.3997  0.0520 -0.0466
    5CHTO   O83 1721   7.671   3.965   1.785  0.5495 -0.6127 -0.4706
    5CHTO  H204 1722   7.739   4.030   1.785 -0.2259  0.2565 -3.6147
    5CHTO  C109 1723   7.708   3.586   1.765  0.5906  0.3838 -0.1544
    5CHTO  H213 1724   7.798   3.571   1.826 -0.0377 -3.0721  0.0180
    5CHTO  C110 1725   7.714   3.479   1.656 -0.1257  0.0959  0.4807
    5CHTO  H214 1726   7.615   3.486   1.611  0.1559 -0.9141 -0.3092
    5CHTO   O78 1727   7.721   3.345   1.714 -0.0653 -0.3347 -0.1759
    5CHTO  H200 1728   7.701   3.285   1.644  0.8125 -0.0381 -0.6871
    5CHTO  C111 1729   7.830   3.512   1.552 -0.5718 -0.5864 -0.4180
    5CHTO  H215 1730   7.927   3.513   1.604  0.6715  0.6715 -2.6565
    5CHTO   N19 1731   7.843   3.414   1.444 -0.0326 -0.4443 -0.2605
    5CHTO  H207 1732   7.876   3.319   1.485  0.9270 -0.8587 -1.9535
    5CHTO  H208 1733   7.928   3.440   1.382  0.8857  0.6179  1.3912
    5CHTO   O74 1734   7.590   3.571   1.848  0.1536  0.1537  0.0636
    5CHTO  C115 1735   7.621   3.475   1.981 -0.5984 -0.7039 -0.0241
    5CHTO  H219 1736   7.707   3.410   1.964  1.6213  2.0870  0.1543
    5CHTO   O76 1737   7.652   3.551   2.097 -0.4452 -0.2873  0.5016
    5CHTO  C122 1738   7.561   3.664   2.117  0.4829  0.3281 -0.2676
    5CHTO  H226 1739   7.564   3.734   2.034 -2.4503 -0.3546 -0.9761
    5CHTO  C126 1740   7.620   3.742   2.237 -0.2172 -0.9800  0.3055
    5CHTO   O85 1741   7.544   3.844   2.288 -0.0887 -0.1584 -0.0601
    5CHTO  H206 1742   7.599   3.915   2.314  0.8032 -0.6456 -0.6000
    5CHTO  C121 1743   7.408   3.603   2.133  0.1184 -0.5332  0.4016
    5CHTO  H225 1744   7.393   3.634   2.238  1.7474 -0.4206  0.6118
    5CHTO   O81 1745   7.315   3.649   2.036  0.0437  0.2211 -0.8513
    5CHTO  H202 1746   7.226   3.625   2.053 -0.1312  1.2651 -0.2309
    5CHTO  C119 1747   7.419   3.442   2.134  0.0523 -0.1033  0.3454
    5CHTO  H223 1748   7.491   3.414   2.211 -0.3911 -2.8581 -0.1856
    5CHTO  C117 1749   7.484   3.393   2.005 -0.2117  0.1240 -0.0348
    5CHTO  H221 1750   7.426   3.395   1.912  0.0955  0.0575 -0.2284
    5CHTO   N20 1751   7.530   3.247   2.015  0.6189 -0.1282 -0.2170
    5CHTO  H209 1752   7.495   3.199   2.105 -0.7981  3.5632  1.2919
    5CHTO  H210 1753   7.504   3.193   1.925 -1.1657 -0.0547  0.2406
    5CHTO   O80 1754   7.296   3.369   2.185 -0.4469  0.2251 -0.1405
    5CHTO  C103 1755   7.151   3.371   2.086 -0.0461  0.3372 -0.3249
    5CHTO  H190 1756   7.162   3.462   2.028 -1.4239 -0.3557 -1.7403
    5CHTO  C101 1757   7.123   3.247   1.989 -0.0773  0.2162  0.1579
    5CHTO  H188 1758   7.147   3.154   2.042  2.0445 -0.6952 -2.3003
    5CHTO   O68 1759   7.226   3.273   1.855 -0.1239 -0.1159  0.0666
    5CHTO  H168 1760   7.212   3.197   1.801  0.0795 -1.6385  2.0892
    5CHTO   C99 1761   6.968   3.243   1.944 -0.3512 -0.0393  0.7330
    5CHTO  H186 1762   6.953   3.326   1.871  0.8632 -0.4259  0.0404
    5CHTO   N17 1763   6.932   3.120   1.864 -0.2255 -0.6701  0.1916
    5CHTO  H174 1764   6.846   3.144   1.803  0.2100  0.5619  0.0505
    5CHTO  H175 1765   7.017   3.086   1.806 -0.3270 -0.0449 -0.3326
    5CHTO   C97 1766   6.867   3.270   2.062 -0.4630 -0.0393  0.5087
    5CHTO  H184 1767   6.873   3.188   2.136  1.6603 -0.3159  0.0634
    5CHTO   O64 1768   6.899   3.395   2.117  0.1659  0.2941  0.3400
    5CHTO  C104 1769   7.027   3.393   2.187  0.0327  0.6014 -0.1940
    5CHTO  H191 1770   7.031   3.312   2.261  0.1338  0.5993 -0.2029
    5CHTO  C108 1771   7.050   3.519   2.267 -0.2548  0.3210  0.2045
    5CHTO   O71 1772   7.011   3.640   2.188  0.2260 -0.4136  0.0401
    5CHTO  H171 1773   6.960   3.700   2.239  1.0001  0.8754 -0.6804
    5CHTO   O62 1774   6.728   3.296   2.021  0.0187 -0.8759 -0.0922
    5CHTO   C91 1775   6.624   3.253   2.111 -0.7961 -0.1594  0.2308
    5CHTO  H178 1776   6.668   3.225   2.207 -0.8081 -1.9385 -0.2650
    5CHTO   C92 1777   6.563   3.125   2.051  0.2381 -0.0552 -0.0720
    5CHTO  H179 1778   6.569   3.135   1.942 -1.2343 -0.6083 -0.2226
    5CHTO   O66 1779   6.657   3.018   2.091 -0.3678 -0.2926  0.7054
    5CHTO  H166 1780   6.646   2.943   2.037 -1.0303  0.0993  0.2828
    5CHTO   C93 1781   6.409   3.081   2.091 -0.1224  0.6416  0.3965
    5CHTO  H180 1782   6.407   3.032   2.189 -0.5521  0.6095  0.3732
    5CHTO   N16 1783   6.352   2.972   2.006  0.2036 -0.2261  0.1338
    5CHTO  H172 1784   6.386   2.878   2.046  2.5262 -0.0837 -1.3852
    5CHTO  H173 1785   6.246   2.974   2.025 -0.0653 -1.9219 -1.0782
    5CHTO   C94 1786   6.325   3.208   2.094  0.0562 -0.4329  0.0298
    5CHTO  H181 1787   6.311   3.250   1.994  2.9572  0.3551 -0.0873
    5CHTO   O61 1788   6.390   3.307   2.177  0.2721 -0.1020 -0.2583
    5CHTO   C95 1789   6.509   3.369   2.129  0.3821  0.1184 -0.0672
    5CHTO  H182 1790   6.490   3.426   2.039 -1.3118 -1.3080 -0.6572
    5CHTO  C106 1791   6.555   3.479   2.232  0.4198  0.0572  0.3885
    5CHTO   O69 1792   6.506   3.610   2.196 -0.4670  0.5072  0.1335
    5CHTO  H169 1793   6.538   3.665   2.265 -1.9128 -0.1336  1.3573
    5CHTO   O63 1794   6.197   3.176   2.168 -0.1031  0.8977  0.1044
    5CHTO   C96 1795   6.071   3.148   2.070  0.1717  0.2966 -0.3991
    5CHTO  H183 1796   6.105   3.103   1.977  0.6772 -0.2649  0.0542
    5CHTO   C98 1797   6.001   3.273   2.013  0.4600  0.2768 -0.0028
    5CHTO  H185 1798   5.950   3.335   2.089 -0.1042  1.9333 -1.6908
    5CHTO   O67 1799   6.093   3.367   1.960  0.1203  0.0494  1.0443
    5CHTO  H167 1800   6.046   3.435   1.916 -1.7100 -0.9506  1.4077
    5CHTO  C102 1801   5.893   3.224   1.907 -0.0482 -0.4650  0.2905
    5CHTO  H189 1802   5.954   3.184   1.824  0.8000  2.0306 -0.3381
    5CHTO   N18 1803   5.818   3.335   1.843 -0.5561  0.0341 -0.3506
    5CHTO  H176 1804   5.752   3.297   1.767  1.2030 -1.3572 -1.2115
    5CHTO  H177 1805   5.885   3.411   1.805 -1.6156  0.3562 -1.5740
    5CHTO  C105 1806   5.799   3.111   1.965  0.1187 -0.7713  0.4425
    5CHTO  H192 1807   5.717   3.157   2.019  0.8849 -0.1361  1.0700
    5CHTO   O65 1808   5.862   3.015   2.051  0.0555 -0.0458  0.2890
    5CHTO  C100 1809   5.961   3.071   2.148  0.4800  0.0008  0.2032
    5CHTO  H187 1810   5.916   3.148   2.213 -1.0624 -1.0597  0.4088
    5CHTO  C107 1811   6.019   2.964   2.236  0.1777 -0.1920 -0.1994
    5CHTO   O70 1812   5.921   2.866   2.286 -0.2146 -0.2947  0.0426
    5CHTO  H170 1813   5.854   2.839   2.226 -0.5994  1.4929 -0.3549
    5CHTO   O57 1814   5.740   3.034   1.837 -0.0383 -0.4739  0.0591
    5CHTO   C85 1815   5.623   2.954   1.811 -0.3549  0.6787 -0.2901
    5CHTO  H157 1816   5.549   2.993   1.884  0.4174  0.5624  0.5642
    5CHTO   C83 1817   5.654   2.809   1.857 -0.6295 -1.3689 -0.1640
    5CHTO  H155 1818   5.679   2.816   1.963  0.5651 -3.1159 -0.3232
    5CHTO   O56 1819   5.773   2.775   1.789 -0.0083 -0.1497 -0.2636
    5CHTO  H135 1820   5.849   2.825   1.815 -2.0482  4.3470 -2.5082
    5CHTO   C81 1821   5.535   2.713   1.837 -0.6205  0.1686  0.4424
    5CHTO  H153 1822   5.444   2.748   1.885  0.0235  0.8922  1.1391
    5CHTO   N14 1823   5.567   2.587   1.910  0.9268 -0.0012  0.0545
    5CHTO  H141 1824   5.475   2.543   1.944  0.2362  0.1926 -1.5306
    5CHTO  H142 1825   5.608   2.516   1.841  0.0723  0.1315 -0.6008
    5CHTO   C79 1826   5.511   2.712   1.683  0.4011 -0.8375 -0.2923
    5CHTO  H151 1827   5.424   2.648   1.671  0.4027 -1.0308  0.7136
    5CHTO   O52 1828   5.473   2.847   1.633  0.0879  0.0665 -0.5446
    5CHTO   C86 1829   5.570   2.951   1.669  0.0327 -0.4667 -0.2153
    5CHTO  H158 1830   5.654   2.934   1.598  1.5574  0.2650  1.3489
    5CHTO   C90 1831   5.507   3.088   1.633  0.1168 -0.2367  0.5498
    5CHTO   O60 1832   5.533   3.121   1.496  0.0102 -0.0829  0.0198
    5CHTO  H138 1833   5.480   3.067   1.441 -0.7171  2.5394 -1.9208
    5CHTO   O50 1834   5.614   2.659   1.602  0.0302  0.3827  0.1798
    5CHTO   C73 1835   5.649   2.593   1.478  0.5405  0.3285 -0.8022
    5CHTO  H145 1836   5.581   2.632   1.401 -1.4212  0.2773  0.8651
    5CHTO   C74 1837   5.636   2.441   1.476 -0.4918 -0.3709  0.4059
    5CHTO  H146 1838   5.533   2.408   1.494 -0.4797 -0.5785  0.0918
    5CHTO   O54 1839   5.670   2.391   1.344  0.4571 -0.1449 -0.8289
    5CHTO  H133 1840   5.688   2.299   1.347 -0.1868 -0.2270  1.5093
    5CHTO   C75 1841   5.734   2.387   1.594  0.4495 -0.5885 -0.2128
    5CHTO  H147 1842   5.702   2.430   1.690 -0.9891 -0.4696 -0.7221
    5CHTO   N13 1843   5.732   2.238   1.617 -0.4750 -0.4609 -0.7378
    5CHTO  H139 1844   5.708   2.211   1.719 -1.2906 -0.3975 -0.9054
    5CHTO  H140 1845   5.830   2.201   1.591  0.3512 -0.0541  1.7130
    5CHTO   C76 1846   5.882   2.435   1.569 -0.4233  0.6147  0.5817
    5CHTO  H148 1847   5.924   2.383   1.483  0.0910  0.0046  1.1898
    5CHTO   O49 1848   5.885   2.578   1.542  0.0880  0.1574 -0.1129
    5CHTO   C77 1849   5.795   2.628   1.447  0.3116  0.0600 -0.7309
    5CHTO  H149 1850   5.824   2.593   1.348  3.8015 -0.9059  0.5481
    5CHTO   C88 1851   5.812   2.783   1.438  0.0318 -0.5057  0.2536
    5CHTO   O58 1852   5.709   2.865   1.315  0.2398 -0.1189 -0.7755
    5CHTO  H136 1853   5.618   2.853   1.336  0.4297 -1.0199 -0.4736
    5CHTO   O51 1854   5.975   2.426   1.702 -0.0609  0.1206 -0.6675
    5CHTO   C78 1855   6.137   2.446   1.690 -0.5006 -0.1834 -0.5072
    5CHTO  H150 1856   6.169   2.508   1.605  0.3269 -2.4622 -1.9168
    5CHTO   C80 1857   6.207   2.312   1.681  0.4147  0.1732 -0.6518
    5CHTO  H152 1858   6.186   2.256   1.775  1.1450  1.5102  0.3240
    5CHTO   O55 1859   6.143   2.228   1.585  0.0612  0.0848 -0.1811
    5CHTO  H134 1860   6.049   2.228   1.578  0.1212 -1.8824 -1.4172
    5CHTO   C84 1861   6.364   2.335   1.677  0.1125 -1.0249  0.6572
    5CHTO  H156 1862   6.384   2.368   1.575 -0.2708  0.0090  0.9145
    5CHTO   N15 1863   6.431   2.209   1.688 -0.3078  0.2768  0.5564
    5CHTO  H143 1864   6.378   2.130   1.736 -0.7363 -0.0288 -0.4015
    5CHTO  H144 1865   6.462   2.179   1.590  2.2858  0.7766  1.1803
    5CHTO   C87 1866   6.416   2.441   1.775 -0.3040  0.0566 -0.3346
    5CHTO  H159 1867   6.437   2.400   1.874  1.1105  1.5830  0.0255
    5CHTO   O53 1868   6.321   2.569   1.789 -0.1817  0.6459  0.0055
    5CHTO   C82 1869   6.186   2.530   1.808  0.3144 -0.3750 -0.2954
    5CHTO  H154 1870   6.172   2.477   1.902 -1.0640 -0.7089 -0.6806
    5CHTO   C89 1871   6.103   2.666   1.825 -0.4124 -0.0727  0.0136
    5CHTO   O59 1872   6.089   2.727   1.953  0.7579  0.5363 -0.5947
    5CHTO  H137 1873   6.051   2.811   1.935 -0.2674  0.2494  0.2053
    5CHTO   O45 1874   6.547   2.503   1.719  0.1192  0.2692  0.1895
    5CHTO   C67 1875   6.647   2.534   1.814  0.5032  0.2985  0.3530
    5CHTO  H124 1876   6.609   2.536   1.917  0.7622 -1.2492  0.4846
    5CHTO   C65 1877   6.768   2.436   1.802  0.1004 -0.2958 -0.6778
    5CHTO  H122 1878   6.768   2.397   1.700 -2.4739  1.5031 -1.4150
    5CHTO   O44 1879   6.739   2.336   1.902 -0.3887 -0.0178  0.9772
    5CHTO  H102 1880   6.802   2.349   1.970  0.1373 -0.4323  0.5761
    5CHTO   C63 1881   6.911   2.498   1.802  0.1963  0.0086  0.3809
    5CHTO  H120 1882   6.936   2.537   1.703 -0.0091  1.4226  0.8898
    5CHTO   N11 1883   7.028   2.409   1.828  0.1012  0.3341 -0.1072
    5CHTO  H108 1884   7.030   2.369   1.927  2.2658 -1.5732 -0.8853
    5CHTO  H109 1885   7.116   2.470   1.818 -0.7696  1.7506  0.6713
    5CHTO   C61 1886   6.905   2.614   1.906 -0.0157  0.3475 -0.0277
    5CHTO  H118 1887   7.004   2.661   1.903  0.7129 -1.1402  0.4226
    5CHTO   O40 1888   6.810   2.722   1.876  0.2119  0.9046 -0.7054
    5CHTO   C68 1889   6.700   2.684   1.785  0.3753 -0.0285 -0.4670
    5CHTO  H125 1890   6.747   2.687   1.684  4.0230  1.0369  1.1780
    5CHTO   C72 1891   6.592   2.793   1.791 -0.5708  0.0749 -0.0015
    5CHTO   O48 1892   6.649   2.922   1.746 -0.4083 -0.1553 -0.2281
    5CHTO  H105 1893   6.604   2.989   1.795 -2.1978 -0.8946 -0.8091
    5CHTO   O38 1894   6.875   2.579   2.045  0.1283  0.1992 -0.5419
    5CHTO   C55 1895   6.860   2.684   2.152 -0.1156 -0.0945  0.4566
    5CHTO  H112 1896   6.808   2.768   2.104 -0.3093  0.4483  1.5999
    5CHTO   C56 1897   6.996   2.732   2.218  0.8582 -1.1569  0.7193
    5CHTO  H113 1898   7.048   2.640   2.246  1.3260 -1.0549  0.2085
    5CHTO   O42 1899   7.085   2.791   2.114 -0.2732  0.4282  0.4796
    5CHTO  H100 1900   7.048   2.869   2.078  0.5319  0.3843 -0.4761
    5CHTO   C57 1901   6.969   2.830   2.337 -0.0430  0.4098  0.5265
    5CHTO  H114 1902   6.923   2.919   2.294 -0.1170 -0.4294 -1.1436
    5CHTO   N10 1903   7.096   2.866   2.410 -0.4265  0.0662 -0.1739
    5CHTO  H106 1904   7.181   2.807   2.380 -1.1923 -0.5768 -1.1070
    5CHTO  H107 1905   7.126   2.969   2.401 -0.4087  0.1426  0.6807
    5CHTO   C58 1906   6.863   2.768   2.429 -0.3384  0.2403  0.2202
    5CHTO  H115 1907   6.911   2.684   2.484 -2.6806 -0.3341  1.4830
    5CHTO   O37 1908   6.746   2.727   2.354 -0.7374 -0.2307  0.2944
    5CHTO   C59 1909   6.772   2.622   2.264 -0.7003 -0.3896 -0.1875
    5CHTO  H116 1910   6.832   2.550   2.319  0.0662  2.5723  3.0667
    5CHTO   C70 1911   6.637   2.563   2.228  0.0165  0.0154 -0.0336
    5CHTO   O46 1912   6.547   2.633   2.138 -0.3589 -0.2604 -0.6366
    5CHTO  H103 1913   6.463   2.594   2.154  0.0838 -0.5743  1.0055
    5CHTO   O39 1914   6.817   2.877   2.552 -0.4052 -0.1859 -0.1390
    5CHTO   C60 1915   6.693   2.954   2.514 -0.0231 -0.2460  0.7634
    5CHTO  H117 1916   6.676   2.945   2.407  0.6829  1.4786  0.4871
    5CHTO   C62 1917   6.561   2.889   2.576  0.1623  0.2073 -0.5319
    5CHTO  H119 1918   6.549   2.787   2.533 -1.4503  0.1245  0.0680
    5CHTO   O43 1919   6.573   2.887   2.719 -0.0782 -0.7327  0.4520
    5CHTO  H101 1920   6.534   2.808   2.751  0.3638 -0.4981  1.5630
    5CHTO   C66 1921   6.436   2.975   2.537 -0.0114 -0.4735  0.3174
    5CHTO  H123 1922   6.443   2.995   2.430  1.1396  0.1864  0.5041
    5CHTO   N12 1923   6.310   2.907   2.559  0.1122  0.3347  0.1904
    5CHTO  H110 1924   6.312   2.824   2.490 -0.4690  0.7017 -0.2752
    5CHTO  H111 1925   6.295   2.879   2.663  1.2077 -0.6457  0.0904
    5CHTO   C69 1926   6.446   3.123   2.588  0.1156  0.5162 -0.0116
    5CHTO  H126 1927   6.465   3.126   2.697  1.6626 -1.0545 -0.2138
    5CHTO   O41 1928   6.578   3.189   2.520 -0.1344  0.3955 -0.1196
    5CHTO   C64 1929   6.714   3.102   2.547  0.4853 -0.5493  0.9610
    5CHTO  H121 1930   6.737   3.118   2.654 -0.4805  0.2352  1.0629
    5CHTO   C71 1931   6.823   3.154   2.460  0.5765 -0.7058  0.3449
    5CHTO   O47 1932   6.845   3.293   2.474  0.4183 -0.3089 -0.0994
    5CHTO  H104 1933   6.908   3.320   2.409  0.0763 -1.0219 -0.7384
    5CHTO   O34 1934   6.300   3.213   2.540 -0.1701  0.1484 -0.3159
    5CHTO   C49 1935   6.260   3.371   2.526  0.3296 -0.6481 -0.9072
    5CHTO   H91 1936   6.286   3.403   2.425  2.1003 -2.0288 -0.9123
    5CHTO   C47 1937   6.333   3.447   2.634 -0.1097  0.3688  0.3001
    5CHTO   H89 1938   6.314   3.556   2.626  1.0404  0.5344 -0.2957
    5CHTO   O33 1939   6.477   3.423   2.622 -0.2946 -0.1450 -0.0875
    5CHTO   H70 1940   6.501   3.431   2.532 -0.6468 -1.5829 -0.3221
    5CHTO   C45 1941   6.273   3.399   2.776 -0.0023  0.2638 -0.1145
    5CHTO   H87 1942   6.278   3.290   2.786  2.9185  0.4870  1.4070
    5CHTO    N8 1943   6.345   3.455   2.889 -0.2906  0.4870  0.1450
    5CHTO   H75 1944   6.309   3.418   2.984 -3.2643  2.1699 -0.2542
    5CHTO   H76 1945   6.332   3.562   2.891 -0.4141  0.4547  1.4394
    5CHTO   C43 1946   6.111   3.420   2.775  0.3614 -0.1016 -0.1741
    5CHTO   H85 1947   6.080   3.380   2.872 -0.0243 -1.4304 -0.8359
    5CHTO   O29 1948   6.051   3.348   2.666 -0.3319 -0.0315  0.0761
    5CHTO   C50 1949   6.105   3.384   2.536 -0.0525  0.2036 -0.0002
    5CHTO   H92 1950   6.069   3.312   2.462  1.1440  0.2141 -0.6021
    5CHTO   C54 1951   6.047   3.523   2.494 -0.2134  0.2751  0.6403
    5CHTO   O36 1952   6.078   3.561   2.358  0.3701  0.0710  0.0213
    5CHTO   H72 1953   6.063   3.493   2.294 -1.0804 -0.5662  1.0029
    5CHTO   O27 1954   6.071   3.559   2.785 -0.0352  0.5502 -0.0066
    5CHTO   C37 1955   5.982   3.657   2.845  0.0747  0.4604  0.3483
    5CHTO   H79 1956   5.951   3.731   2.770  0.1824 -0.4187 -0.5764
    5CHTO   C38 1957   5.846   3.593   2.895  0.6283 -0.3268  0.9360
    5CHTO   H80 1958   5.868   3.508   2.962 -0.4624 -1.5629 -0.2285
    5CHTO   O31 1959   5.778   3.557   2.775 -0.0119  0.5381 -0.4239
    5CHTO   H68 1960   5.734   3.476   2.796  0.8331 -0.0466 -0.8974
    5CHTO   C39 1961   5.766   3.700   2.974 -0.3188  0.1399 -0.4201
    5CHTO   H81 1962   5.735   3.777   2.904  1.0884  1.0925 -0.0132
    5CHTO    N7 1963   5.645   3.638   3.032 -0.4362 -0.3182  0.1051
    5CHTO   H73 1964   5.660   3.604   3.134  1.0952  0.9784  0.3228
    5CHTO   H74 1965   5.559   3.704   3.032  0.4392  0.9104 -3.1716
    5CHTO   C40 1966   5.853   3.774   3.084 -0.0453 -0.7449 -0.1552
    5CHTO   H82 1967   5.872   3.708   3.168 -2.2878 -0.9156  0.2607
    5CHTO   O26 1968   5.971   3.830   3.025  0.0170  0.6061  0.0368
    5CHTO   C41 1969   6.053   3.729   2.963  0.1269 -0.9545 -0.1113
    5CHTO   H83 1970   6.077   3.667   3.051  1.8733  0.9502  0.7895
    5CHTO   C52 1971   6.168   3.814   2.918 -0.7494  1.0252 -0.1102
    5CHTO   O35 1972   6.251   3.752   2.837 -0.1597  0.2483  0.3347
    5CHTO   H71 1973   6.324   3.743   2.894 -1.0458  0.5823  1.5468
    5CHTO   O28 1974   5.783   3.889   3.132  0.0586  0.1518  0.1533
    5CHTO   C42 1975   5.799   3.957   3.259  0.5527 -0.1865  0.5903
    5CHTO   H84 1976   5.733   4.042   3.245  1.7789  0.8894  1.2995
    5CHTO   C44 1977   5.945   4.016   3.289  0.1951  0.1700 -0.1956
    5CHTO   H86 1978   6.002   4.007   3.197  1.3203 -0.4934  0.5477
    5CHTO   O32 1979   5.930   4.156   3.328 -0.3973  0.0039 -0.4008
    5CHTO   H69 1980   5.855   4.170   3.382  1.8911  1.4604  2.5630
    5CHTO   C48 1981   6.035   3.942   3.398 -0.3186 -0.0328 -0.4121
    5CHTO   H90 1982   6.022   3.984   3.498  0.4549 -3.3191  1.1400
    5CHTO    N9 1983   6.185   3.968   3.373  0.0389 -0.2770 -0.4526
    5CHTO   H77 1984   6.244   3.878   3.388  0.2764  0.1581  1.3135
    5CHTO   H78 1985   6.216   4.019   3.283  0.1166  1.8700  0.7622
    5CHTO   C51 1986   6.001   3.793   3.390  0.0630 -0.1648  0.3204
    5CHTO   H93 1987   6.023   3.755   3.290  1.8321 -0.2252  0.7177
    5CHTO   O30 1988   5.860   3.771   3.425  0.0769 -0.1278  0.1905
    5CHTO   C46 1989   5.746   3.877   3.378  0.1047 -0.2018 -1.1765
    5CHTO   H88 1990   5.657   3.823   3.345  0.6385 -1.3819 -0.7352
    5CHTO   C53 1991   5.707   3.974   3.496 -0.0785  0.1321  0.0598
    5CHTO   O72 1992   5.591   4.049   3.459  0.0522 -0.3515  0.2376
    5CHTO  H199 1993   5.605   4.098   3.380  1.1953 -0.3978  0.4137
    5CHTO   O22 1994   6.067   3.701   3.479  0.3161  0.1816  0.0740
    5CHTO   C31 1995   6.059   3.553   3.465  0.6248 -0.1302  0.4500
    5CHTO   H59 1996   6.141   3.511   3.527  1.9113  0.2600 -0.9614
    5CHTO   C29 1997   5.922   3.494   3.516 -0.5555 -0.2847 -0.0020
    5CHTO   H57 1998   5.844   3.544   3.456 -0.6358 -0.3647  0.0358
    5CHTO   O21 1999   5.912   3.519   3.657 -0.3263  0.2553  0.3984
    5CHTO   H37 2000   5.829   3.505   3.697 -0.4705 -0.7705 -0.2310
    5CHTO   C27 2001   5.911   3.337   3.492 -0.5116 -0.3949 -0.6137
    5CHTO   H55 2002   5.992   3.288   3.548 -0.4086  0.0845 -0.3417
    5CHTO    N5 2003   5.786   3.284   3.536  0.5470 -0.0237 -0.2250
    5CHTO   H43 2004   5.777   3.181   3.503  0.1524 -0.3897  0.9992
    5CHTO   H44 2005   5.793   3.290   3.644  2.1187 -1.3498 -0.2399
    5CHTO   C25 2006   5.947   3.310   3.344  0.3466 -0.8463 -0.6449
    5CHTO   H53 2007   5.886   3.368   3.274  0.6921 -1.1546 -1.2046
    5CHTO   O17 2008   6.082   3.364   3.319  0.9151 -0.1614  0.1059
    5CHTO   C32 2009   6.091   3.506   3.321 -1.0275  0.2961  0.5280
    5CHTO   H60 2010   6.013   3.543   3.254 -1.8611  0.0145  1.3345
    5CHTO   C36 2011   6.233   3.544   3.272 -0.8000  0.3521 -0.4418
    5CHTO   O25 2012   6.345   3.492   3.352 -0.3818 -0.0598 -0.1222
    5CHTO   H40 2013   6.350   3.401   3.332  2.1329 -0.2509  1.2439
    5CHTO   O15 2014   5.952   3.150   3.297 -0.3988 -0.4453 -0.1234
    5CHTO   C19 2015   6.059   3.050   3.309  0.5212 -0.3759  0.5916
    5CHTO   H47 2016   6.139   3.102   3.364  0.2284  1.6829 -0.8512
    5CHTO   C20 2017   6.024   2.925   3.395 -0.0875 -0.6555  0.8275
    5CHTO   H48 2018   5.941   2.867   3.353  0.6875 -0.6693 -0.7260
    5CHTO   O19 2019   5.975   2.961   3.531 -0.1688  0.2084 -0.9022
    5CHTO   H35 2020   5.893   3.006   3.526  0.1862  1.1338  0.9921
    5CHTO   C21 2021   6.160   2.838   3.406  0.0990  0.3553  0.3145
    5CHTO   H49 2022   6.227   2.890   3.474  0.9667  1.7630 -1.5662
    5CHTO    N4 2023   6.132   2.706   3.459  0.3587  0.1949  0.6718
    5CHTO   H41 2024   6.038   2.698   3.511 -0.9678 -2.2501 -1.9471
    5CHTO   H42 2025   6.211   2.664   3.520 -0.1644 -0.3744  0.9668
    5CHTO   C22 2026   6.235   2.818   3.273  0.5423  0.1373  0.0022
    5CHTO   H50 2027   6.192   2.741   3.209  0.4933 -0.1320  0.3580
    5CHTO   O14 2028   6.239   2.942   3.196  0.2548  0.1781 -0.2900
    5CHTO   C23 2029   6.123   3.018   3.173  0.5678 -0.1678  0.3025
    5CHTO   H51 2030   6.056   2.956   3.112  0.7709  0.3201 -0.4269
    5CHTO   C34 2031   6.167   3.133   3.081  0.2571 -0.0445  0.3382
    5CHTO   O23 2032   6.057   3.224   3.049 -0.3384 -0.2869 -0.3975
    5CHTO   H38 2033   6.094   3.296   3.002  1.4525 -0.6446  0.4150
    5CHTO   O16 2034   6.375   2.810   3.295 -0.0243 -0.3726 -0.1004
    5CHTO   C24 2035   6.456   2.697   3.208 -0.1831  0.6192 -0.0692
    5CHTO   H52 2036   6.403   2.672   3.116  2.5738 -3.1676 -0.7589
    5CHTO   C26 2037   6.484   2.570   3.286  0.8866  0.0256  0.1647
    5CHTO   H54 2038   6.527   2.603   3.383 -0.3992 -0.2372  0.8381
    5CHTO   O20 2039   6.353   2.516   3.309  0.2547  0.0945  0.3509
    5CHTO   H36 2040   6.344   2.474   3.393 -2.2235  0.0753  0.1119
    5CHTO   C30 2041   6.577   2.474   3.210 -0.5120  0.7219  0.3119
    5CHTO   H58 2042   6.531   2.436   3.118  0.1452  0.1813  0.2024
    5CHTO    N6 2043   6.603   2.352   3.294  0.5077 -0.2835 -0.6192
    5CHTO   H45 2044   6.685   2.291   3.259  1.0399  0.5949 -0.9214
    5CHTO   H46 2045   6.511   2.295   3.295 -1.0232  2.0387 -2.8975
    5CHTO   C33 2046   6.708   2.543   3.157 -0.4518 -0.4402 -0.2403
    5CHTO   H61 2047   6.769   2.577   3.242 -0.1697  1.3438 -1.1372
    5CHTO   O18 2048   6.668   2.662   3.086  0.3328 -0.4491 -0.2281
    5CHTO   C28 2049   6.593   2.753   3.169 -0.8510 -0.1063  0.0794
    5CHTO   H56 2050   6.640   2.776   3.265 -1.5023 -0.4787  0.4953
    5CHTO   C35 2051   6.564   2.879   3.084 -0.4492 -0.2430 -0.2235
    5CHTO   O24 2052   6.545   3.004   3.149 -0.2373  0.8817 -0.7285
    5CHTO   H39 2053   6.630   3.041   3.163 -0.1299  0.1761  0.6077
    5CHTO    O9 2054   6.802   2.463   3.081 -0.2715 -0.2886  0.2561
    5CHTO   C13 2055   6.760   2.413   2.923 -0.3239  0.4377 -0.4325
    5CHTO   H26 2056   6.650   2.408   2.911 -0.1342  0.1094 -2.0383
    5CHTO   C11 2057   6.834   2.275   2.895  0.8139  0.2593  0.3449
    5CHTO   H24 2058   6.797   2.200   2.966  0.2223  0.4079  0.1898
    5CHTO    O8 2059   6.975   2.290   2.904 -0.0678 -0.1663 -0.7209
    5CHTO    H3 2060   7.013   2.212   2.940  0.0023  0.7293  1.2022
    5CHTO    C9 2061   6.785   2.242   2.752  0.3671  0.1101 -0.4857
    5CHTO   H22 2062   6.675   2.248   2.751  0.3380 -0.1003  0.6331
    5CHTO    N2 2063   6.808   2.092   2.727 -0.5418  0.0746 -0.3870
    5CHTO   H10 2064   6.916   2.081   2.723 -0.2847  1.9369  0.9359
    5CHTO   H11 2065   6.766   2.065   2.631 -0.1837  1.2377 -0.8787
    5CHTO    C7 2066   6.847   2.348   2.651 -0.2105  0.4115  0.8412
    5CHTO   H20 2067   6.810   2.332   2.548  1.0753  1.2691  0.2411
    5CHTO    O4 2068   6.813   2.483   2.688  1.1410 -0.4257  0.0860
    5CHTO   C14 2069   6.810   2.531   2.826 -0.5568 -1.2361  0.2672
    5CHTO   H27 2070   6.731   2.609   2.828 -0.6411 -1.2855 -0.5555
    5CHTO   C18 2071   6.941   2.596   2.857 -0.3707  0.1339  0.2404
    5CHTO   O13 2072   6.934   2.733   2.820  0.2026  0.0202 -0.2663
    5CHTO    H7 2073   6.960   2.785   2.893  1.0337  1.8967 -1.8759
    5CHTO    O2 2074   7.008   2.348   2.636  0.3006  0.4988 -0.2348
    5CHTO    C1 2075   7.066   2.388   2.510 -0.2196 -0.0063  0.1511
    5CHTO   H14 2076   7.013   2.477   2.471 -1.5753 -0.9952 -0.3119
    5CHTO    C2 2077   7.058   2.280   2.398  0.0507 -0.4382  0.3203
    5CHTO   H15 2078   7.098   2.183   2.433 -2.0768 -1.3336  0.2984
    5CHTO    O6 2079   6.918   2.270   2.356 -0.1247 -0.3921 -0.0220
    5CHTO    H1 2080   6.869   2.238   2.429  0.1536 -0.0202  0.3278
    5CHTO    C3 2081   7.142   2.324   2.264 -0.4351 -0.1889 -0.2350
    5CHTO   H16 2082   7.103   2.410   2.207  1.6918  1.3954  0.5864
    5CHTO    N1 2083   7.142   2.211   2.164  0.6699  0.2190  0.4778
    5CHTO    H8 2084   7.182   2.230   2.066 -0.4706  0.6125  0.0758
    5CHTO    H9 2085   7.038   2.182   2.149  0.7054  0.5824 -0.5177
    5CHTO    C4 2086   7.287   2.369   2.300  0.0715 -0.2401  0.1964
    5CHTO   H17 2087   7.342   2.286   2.345  0.1023 -0.0171  0.5783
    5CHTO    O1 2088   7.276   2.473   2.399  0.1347 -0.0454 -0.3591
    5CHTO    C5 2089   7.215   2.429   2.529 -0.2016 -0.0381  0.6792
    5CHTO   H18 2090   7.275   2.344   2.560  1.7108  1.4322  1.0615
    5CHTO   C16 2091   7.244   2.543   2.632  0.0184  0.2542 -0.1228
    5CHTO   O11 2092   7.381   2.562   2.658  0.6649 -0.3803 -0.0835
    5CHTO    H5 2093   7.402   2.624   2.725  1.8627 -1.1846  0.3116
    5CHTO    O3 2094   7.364   2.430   2.191  0.0237 -0.2132  0.2279
    5CHTO    C6 2095   7.509   2.429   2.222 -0.0547 -0.3800 -0.1893
    5CHTO   H19 2096   7.531   2.391   2.322  1.2029  0.4901 -0.1117
    5CHTO    C8 2097   7.588   2.340   2.127  0.3300  0.2185  0.5573
    5CHTO   H21 2098   7.561   2.370   2.026  2.9753 -0.5894 -0.4271
    5CHTO    O7 2099   7.545   2.204   2.150  0.3665 -0.6615 -0.4911
    5CHTO    H2 2100   7.612   2.148   2.184 -0.1368 -2.7199 -2.7653
    5CHTO   C12 2101   7.744   2.355   2.141 -0.8605 -0.1994  0.1453
    5CHTO   H25 2102   7.766   2.291   2.228  1.2229 -0.5163 -0.5913
    5CHTO    N3 2103   7.817   2.284   2.036  0.0207  0.2028  0.6195
    5CHTO   H12 2104   7.766   2.191   2.016  1.4057 -0.3258 -0.5335
    5CHTO   H13 2105   7.922   2.274   2.061 -0.0262 -1.0758  0.3073
    5CHTO   C15 2106   7.787   2.501   2.179 -0.2788 -0.0015 -0.2268
    5CHTO   H28 2107   7.803   2.555   2.086 -1.3023  1.9829  0.7307
    5CHTO   O10 2108   7.910   2.500   2.259 -0.1301  0.5185 -0.7844
    5CHTO    H4 2109   7.967   2.572   2.237 -0.4656  0.5603 -1.5298
    5CHTO    O5 2110   7.698   2.575   2.265  0.0330 -0.0617 -0.0489
    5CHTO   C10 2111   7.561   2.577   2.222  0.0287 -0.0010 -0.0213
    5CHTO   H23 2112   7.549   2.620   2.122 -0.5654 -1.3249 -0.5361
    5CHTO   C17 2113   7.492   2.674   2.319  0.3882 -0.1837  0.1023
    5CHTO   O12 2114   7.363   2.704   2.275 -0.4655  0.0797 -0.1021
    5CHTO    H6 2115   7.335   2.792   2.259  0.2970  0.4435  0.5307
    6CHTO  H203 2116   7.530   4.728   0.347 -0.2422  1.1657 -0.6563
    6CHTO   O82 2117   7.445   4.693   0.330  0.4046 -0.6046 -0.3324
    6CHTO  C123 2118   7.354   4.806   0.323  0.3060  0.4906 -0.1584
    6CHTO  H227 2119   7.389   4.876   0.246  0.2595  0.4965 -0.1740
    6CHTO   O77 2120   7.227   4.738   0.283 -0.4090 -0.0143  0.1431
    6CHTO  C118 2121   7.124   4.828   0.239  0.0619  0.0642 -0.2473
    6CHTO  H222 2122   7.166   4.892   0.160  0.5405 -0.0671 -0.0978
    6CHTO  C125 2123   7.007   4.749   0.185  0.3572 -0.1817 -0.0848
    6CHTO   O84 2124   7.043   4.685   0.062  0.3983 -0.2646 -0.4693
    6CHTO  H205 2125   6.995   4.718  -0.011 -0.9469 -1.9664 -0.3851
    6CHTO  C114 2126   7.085   4.913   0.363  0.0258  0.1671 -0.1341
    6CHTO  H218 2127   7.037   4.852   0.440 -0.6505  1.4611  0.4833
    6CHTO  C116 2128   7.211   4.978   0.435 -0.1406 -0.2626 -0.3307
    6CHTO  H220 2129   7.242   5.069   0.378 -0.6879 -0.5458 -1.0950
    6CHTO   O79 2130   7.153   5.026   0.558  0.2738 -0.6996 -0.0215
    6CHTO  H201 2131   7.194   5.106   0.587 -2.2557  1.3172 -1.7250
    6CHTO  C120 2132   7.331   4.881   0.461  0.1849  0.4614  0.0953
    6CHTO  H224 2133   7.299   4.808   0.539  2.3225 -0.3878  0.2167
    6CHTO   N21 2134   7.448   4.945   0.522  0.2334  0.2445  0.3209
    6CHTO  H211 2135   7.457   5.039   0.468 -0.9430  0.2686  0.1578
    6CHTO  H212 2136   7.432   4.970   0.626  1.3591  1.1483  0.3027
    6CHTO   O75 2137   6.984   5.007   0.324  0.3861 -0.2266  0.6320
    6CHTO  C112 2138   6.847   5.009   0.432  0.1715  0.3790 -0.0569
    6CHTO  H216 2139   6.888   5.016   0.534 -0.6554 -1.7764  0.4648
    6CHTO   O73 2140   6.772   4.885   0.414  0.5321 -0.0732 -0.5675
    6CHTO  C113 2141   6.651   4.882   0.497  0.3937  0.3519  0.1674
    6CHTO  H217 2142   6.685   4.901   0.601  0.5726  0.6615  0.0534
    6CHTO  C124 2143   6.605   4.735   0.492 -0.3299  0.7160  0.5922
    6CHTO   O83 2144   6.529   4.717   0.376  0.4059  0.1908 -0.1522
    6CHTO  H204 2145   6.443   4.749   0.396  0.5787  0.2177  0.5670
    6CHTO  C109 2146   6.543   4.985   0.447  0.2248  0.0066  0.5051
    6CHTO  H213 2147   6.523   4.962   0.341  1.3081 -0.0458  0.3148
    6CHTO  C110 2148   6.619   5.122   0.474 -0.2562  0.0783 -0.0915
    6CHTO  H214 2149   6.635   5.139   0.580 -0.1764 -0.7157  0.0211
    6CHTO   O78 2150   6.535   5.234   0.434 -0.2546  0.4005 -0.0475
    6CHTO  H200 2151   6.570   5.318   0.456 -1.0920  1.0684 -1.2309
    6CHTO  C111 2152   6.759   5.139   0.402 -0.2273 -0.3081 -0.4590
    6CHTO  H215 2153   6.747   5.136   0.293 -0.5938  0.1057 -0.4343
    6CHTO   N19 2154   6.837   5.265   0.435  0.3178 -0.5985 -0.2354
    6CHTO  H207 2155   6.912   5.271   0.358  0.3273  0.7600 -0.1392
    6CHTO  H208 2156   6.776   5.355   0.441  0.3448 -0.5867 -0.1310
    6CHTO   O74 2157   6.420   4.970   0.528 -0.2417 -0.4629  0.3009
    6CHTO  C115 2158   6.433   4.988   0.674  0.5074  0.3233  0.0351
    6CHTO  H219 2159   6.533   4.958   0.707  0.2837 -1.7121 -1.0049
    6CHTO   O76 2160   6.416   5.134   0.716  0.5404  0.9697  0.2402
    6CHTO  C122 2161   6.293   5.190   0.667 -0.1769  0.4648  0.2567
    6CHTO  H226 2162   6.303   5.199   0.559 -1.1172 -1.6288 -0.0302
    6CHTO  C126 2163   6.266   5.328   0.722  0.0089 -0.1585  0.3418
    6CHTO   O85 2164   6.171   5.412   0.663 -0.2046  1.2356 -0.0011
    6CHTO  H206 2165   6.160   5.485   0.720  1.0361  1.3743  0.0708
    6CHTO  C121 2166   6.163   5.095   0.698  0.4690  0.2908  0.1445
    6CHTO  H225 2167   6.080   5.147   0.751  1.1230  0.6098  0.8676
    6CHTO   O81 2168   6.107   5.043   0.575  0.1801  0.1796 -0.6296
    6CHTO  H202 2169   6.031   5.096   0.561  0.6978  1.0010 -0.4372
    6CHTO  C119 2170   6.201   4.963   0.787  0.9903 -0.1415 -0.5903
    6CHTO  H223 2171   6.234   5.005   0.882 -1.2632 -0.7680  0.4936
    6CHTO  C117 2172   6.327   4.881   0.735 -0.5182 -0.4671  0.2368
    6CHTO  H221 2173   6.291   4.813   0.657  0.0979  0.0114 -0.4683
    6CHTO   N20 2174   6.393   4.787   0.834 -0.0195 -0.0938  0.2845
    6CHTO  H209 2175   6.423   4.845   0.920  1.4910 -0.9447  0.3425
    6CHTO  H210 2176   6.316   4.717   0.863  0.6638 -0.5619  0.9902
    6CHTO   O80 2177   6.078   4.886   0.832  0.4024 -0.0200  0.1269
    6CHTO  C103 2178   6.049   4.871   0.985  0.1302 -0.2765 -0.1590
    6CHTO  H190 2179   6.142   4.850   1.037 -0.2381 -1.8968 -0.1129
    6CHTO  C101 2180   5.975   4.997   1.047  0.1232 -0.2696 -0.0692
    6CHTO  H188 2181   5.890   5.030   0.987  0.3123 -0.0597 -0.2253
    6CHTO   O68 2182   6.082   5.132   1.057 -0.1364 -0.1241  0.6880
    6CHTO  H168 2183   6.158   5.114   1.108  0.3530  3.1201  1.2121
    6CHTO   C99 2184   5.918   4.976   1.196  0.0842  0.1497 -0.4706
    6CHTO  H186 2185   6.007   4.975   1.262  0.6340 -0.9780 -1.2306
    6CHTO   N17 2186   5.825   5.080   1.247 -0.0243 -0.5728  0.0454
    6CHTO  H174 2187   5.819   5.172   1.190  0.3276 -0.2373  0.5443
    6CHTO  H175 2188   5.818   5.097   1.353 -1.3232  0.2106 -0.1589
    6CHTO   C97 2189   5.856   4.836   1.207 -0.0368  0.3278  0.4953
    6CHTO  H184 2190   5.760   4.850   1.156  1.6398  2.6317 -2.2191
    6CHTO   O64 2191   5.932   4.731   1.148 -0.5060 -0.0209 -0.3770
    6CHTO  C104 2192   5.956   4.751   1.011 -0.2609 -1.6600  0.3228
    6CHTO  H191 2193   5.864   4.770   0.955  0.8711 -0.2523 -1.0992
    6CHTO  C108 2194   6.010   4.619   0.950 -0.0212  0.4207  0.6808
    6CHTO   O71 2195   6.107   4.547   1.030 -0.0431 -0.3643  0.3527
    6CHTO  H171 2196   6.060   4.523   1.107 -1.6393  1.4392 -0.0204
    6CHTO   O62 2197   5.840   4.795   1.343  0.6365  0.2191  0.3882
    6CHTO   C91 2198   5.700   4.762   1.388  0.5939 -0.2231 -0.6414
    6CHTO  H178 2199   5.641   4.853   1.373 -0.4234 -0.8617 -0.5986
    6CHTO   C92 2200   5.689   4.736   1.543  0.2580  0.2461 -0.1548
    6CHTO  H179 2201   5.722   4.828   1.592 -1.1896  0.1361  1.0598
    6CHTO   O66 2202   5.556   4.715   1.587  0.9044  0.0671 -0.1532
    6CHTO  H166 2203   5.504   4.790   1.563  0.7044  0.6302  1.9446
    6CHTO   C93 2204   5.768   4.604   1.579 -0.6960 -0.5797  0.3031
    6CHTO  H180 2205   5.732   4.569   1.677 -0.3974  1.7658  1.2697
    6CHTO   N16 2206   5.910   4.633   1.611 -0.3711 -0.4599  0.4913
    6CHTO  H172 2207   5.955   4.544   1.652 -0.9222 -0.5227  0.9666
    6CHTO  H173 2208   5.959   4.655   1.517 -0.1482 -2.2497  0.1752
    6CHTO   C94 2209   5.746   4.489   1.472 -0.5306 -0.6068 -0.1367
    6CHTO  H181 2210   5.838   4.477   1.415 -1.3621  1.0622 -1.8839
    6CHTO   O61 2211   5.636   4.517   1.388 -0.7618  0.3345  0.0712
    6CHTO   C95 2212   5.635   4.641   1.313 -0.0591 -0.8881  0.6687
    6CHTO  H182 2213   5.691   4.626   1.220  0.4536  1.9224  0.4879
    6CHTO  C106 2214   5.485   4.660   1.283 -0.5517 -0.4239  0.5751
    6CHTO   O69 2215   5.428   4.561   1.195 -0.2552  0.4506 -0.0300
    6CHTO  H169 2216   5.341   4.589   1.175 -1.0003 -0.2458  2.0296
    6CHTO   O63 2217   5.716   4.374   1.532 -0.4974  0.0359  0.2410
    6CHTO   C96 2218   5.721   4.241   1.434 -0.3743  0.4368  0.7522
    6CHTO  H183 2219   5.768   4.274   1.341  0.4392 -2.3107  0.1371
    6CHTO   C98 2220   5.586   4.172   1.403 -0.2526 -0.1079 -1.4238
    6CHTO  H185 2221   5.558   4.131   1.501 -0.6551  1.5507 -0.8286
    6CHTO   O67 2222   5.492   4.275   1.375  0.2255 -0.0325 -0.7854
    6CHTO  H167 2223   5.473   4.290   1.285  2.2266  0.3142 -1.1826
    6CHTO  C102 2224   5.605   4.059   1.291  0.0529  0.4383 -0.4037
    6CHTO  H189 2225   5.601   4.112   1.194  0.2977 -0.4600 -0.9053
    6CHTO   N18 2226   5.494   3.954   1.285  0.0636 -0.6819 -0.2669
    6CHTO  H176 2227   5.508   3.877   1.360  2.2182 -0.3119 -0.2772
    6CHTO  H177 2228   5.462   3.914   1.190 -2.0993  0.7040 -0.1420
    6CHTO  C105 2229   5.745   3.994   1.313  0.3933 -0.0646 -0.0666
    6CHTO  H192 2230   5.744   3.891   1.277 -0.6693  0.6884 -2.2792
    6CHTO   O65 2231   5.792   4.003   1.450 -0.1613 -0.1500  0.1858
    6CHTO  C100 2232   5.814   4.138   1.496 -0.3099  0.1704  0.7551
    6CHTO  H187 2233   5.794   4.134   1.604  0.5826  0.9590  0.9519
    6CHTO  C107 2234   5.968   4.158   1.485 -0.4710 -0.1456 -0.6109
    6CHTO   O70 2235   6.013   4.270   1.559 -0.0538 -0.1730 -0.8985
    6CHTO  H170 2236   6.015   4.235   1.646  1.7546 -0.4324 -1.0242
    6CHTO   O57 2237   5.845   4.066   1.213  0.3296  0.8042  0.4109
    6CHTO   C85 2238   5.912   3.988   1.114 -0.2145  0.3867  0.6124
    6CHTO  H157 2239   5.830   3.936   1.060 -0.3358  1.0114  0.1947
    6CHTO   C83 2240   5.998   3.876   1.167  0.6529  0.0173 -0.0375
    6CHTO  H155 2241   5.934   3.813   1.230  0.5500 -0.0191 -0.1778
    6CHTO   O56 2242   6.098   3.925   1.256 -0.0689  0.4278  0.2477
    6CHTO  H135 2243   6.060   3.965   1.332  0.5042  0.0335  0.7420
    6CHTO   C81 2244   6.048   3.793   1.048  0.3274 -0.2754  0.0972
    6CHTO  H153 2245   5.959   3.763   0.993 -1.1063 -1.2552  2.8259
    6CHTO   N14 2246   6.109   3.663   1.081 -0.2155  0.7505 -0.7397
    6CHTO  H141 2247   6.215   3.661   1.062 -0.0088  1.5224  0.3405
    6CHTO  H142 2248   6.062   3.585   1.024 -1.3643  1.2548 -0.4885
    6CHTO   C79 2249   6.142   3.888   0.960 -0.6729 -0.0360 -0.4179
    6CHTO  H151 2250   6.170   3.831   0.871  0.2093  0.0796 -0.2129
    6CHTO   O52 2251   6.068   4.007   0.916  0.3188 -0.1471 -0.1443
    6CHTO   C86 2252   5.999   4.082   1.016  0.8270  0.4158  0.1902
    6CHTO  H158 2253   6.085   4.129   1.067  1.4542 -1.2545  0.7263
    6CHTO   C90 2254   5.915   4.193   0.953  0.1910 -0.0053  0.9264
    6CHTO   O60 2255   5.900   4.313   1.029  0.2832 -0.3667  1.0253
    6CHTO  H138 2256   5.850   4.378   0.983 -0.0181 -1.2276  0.1180
    6CHTO   O50 2257   6.264   3.924   1.032 -0.0145 -0.1414  0.0084
    6CHTO   C73 2258   6.394   3.908   1.090 -0.4341  0.2976  0.8779
    6CHTO  H145 2259   6.413   3.800   1.083 -0.0806  0.4148 -0.0896
    6CHTO   C74 2260   6.416   3.953   1.240  0.1295 -0.0645  0.2674
    6CHTO  H146 2261   6.339   3.897   1.294  0.8932 -1.7751 -0.3917
    6CHTO   O54 2262   6.549   3.917   1.299  0.2593  0.1378 -0.1478
    6CHTO  H133 2263   6.559   3.825   1.314 -0.8013 -0.1417 -1.0062
    6CHTO   C75 2264   6.392   4.103   1.246  0.2047  0.4581 -0.2204
    6CHTO  H147 2265   6.296   4.127   1.199 -0.6618  2.1131  2.3092
    6CHTO   N13 2266   6.383   4.148   1.385  0.5768  0.4847 -0.2972
    6CHTO  H139 2267   6.483   4.150   1.426  1.0117  0.3110 -1.3466
    6CHTO  H140 2268   6.331   4.081   1.454 -2.2457  2.3387 -0.5400
    6CHTO   C76 2269   6.497   4.175   1.154 -0.5218 -0.0361 -0.1693
    6CHTO  H148 2270   6.596   4.168   1.201 -0.0421  2.6549 -0.6845
    6CHTO   O49 2271   6.494   4.124   1.014 -0.5175 -0.2438 -0.3461
    6CHTO   C77 2272   6.500   3.982   1.006 -0.9198 -0.4346 -0.2668
    6CHTO  H149 2273   6.597   3.957   1.048 -1.8482 -0.9223  1.6681
    6CHTO   C88 2274   6.497   3.952   0.859 -0.1381  0.3877  0.0875
    6CHTO   O58 2275   6.394   4.035   0.793  0.2741  0.9430 -0.0030
    6CHTO  H136 2276   6.419   4.038   0.703  0.3769  0.2919  0.0007
    6CHTO   O51 2277   6.449   4.334   1.115 -0.1582  0.0499 -0.6409
    6CHTO   C78 2278   6.493   4.438   1.223  0.3568  0.3810 -0.7464
    6CHTO  H150 2279   6.534   4.382   1.310  1.4415  0.8878 -0.9250
    6CHTO   C80 2280   6.369   4.518   1.269  0.7485  0.4804 -0.2402
    6CHTO  H152 2281   6.310   4.552   1.181  1.7328  1.7202 -0.4343
    6CHTO   O55 2282   6.280   4.429   1.342 -0.1418 -0.0848  0.4110
    6CHTO  H134 2283   6.199   4.471   1.361 -0.6962 -1.1112  0.3465
    6CHTO   C84 2284   6.410   4.641   1.353 -0.5313 -0.5669  0.6051
    6CHTO  H156 2285   6.472   4.611   1.437 -2.2844 -2.1234  1.3504
    6CHTO   N15 2286   6.294   4.732   1.390  0.1825  0.0906  0.2820
    6CHTO  H143 2287   6.203   4.691   1.353  0.0296  2.2585 -1.9031
    6CHTO  H144 2288   6.293   4.747   1.496  2.0676 -1.0437  0.4874
    6CHTO   C87 2289   6.509   4.719   1.258  0.5684 -0.4064 -0.2069
    6CHTO  H159 2290   6.476   4.754   1.160 -0.1073 -1.1051 -0.2391
    6CHTO   O53 2291   6.636   4.636   1.241  0.6643 -0.1488 -0.6524
    6CHTO   C82 2292   6.603   4.527   1.161 -0.4276 -0.2911 -0.7204
    6CHTO  H154 2293   6.582   4.565   1.061  0.3194 -1.3372 -1.2811
    6CHTO   C89 2294   6.740   4.452   1.153 -0.1918  0.0361  0.6392
    6CHTO   O59 2295   6.833   4.522   1.081 -0.4836 -0.0166  0.1643
    6CHTO  H137 2296   6.837   4.487   0.995 -0.1902  1.2246 -0.3374
    6CHTO   O45 2297   6.564   4.868   1.325 -0.1086  0.4033 -0.4046
    6CHTO   C67 2298   6.664   4.945   1.252  0.0487 -0.5324  0.2125
    6CHTO  H124 2299   6.751   4.882   1.235  0.0369  0.0949 -2.2722
    6CHTO   C65 2300   6.608   4.994   1.118  0.4527 -0.4690 -0.5125
    6CHTO  H122 2301   6.502   5.009   1.134  0.6682  2.0167 -1.2352
    6CHTO   O44 2302   6.632   4.890   1.023 -0.2669  0.3587 -0.2101
    6CHTO  H102 2303   6.569   4.894   0.954  0.0714 -0.6640 -0.5833
    6CHTO   C63 2304   6.667   5.141   1.086 -0.5473 -0.3193 -0.2281
    6CHTO  H120 2305   6.612   5.216   1.142 -2.3939 -0.1963 -2.1709
    6CHTO   N11 2306   6.634   5.192   0.951  0.0508 -0.1580 -0.2977
    6CHTO  H108 2307   6.606   5.118   0.879  0.9288 -1.9146  1.1157
    6CHTO  H109 2308   6.700   5.271   0.922  1.7214 -2.0870 -1.9450
    6CHTO   C61 2309   6.821   5.152   1.133  0.0016  0.0704  0.0481
    6CHTO  H118 2310   6.848   5.257   1.115  1.7553 -0.5460 -0.9930
    6CHTO   O40 2311   6.828   5.129   1.272 -0.0327 -0.6695  0.0297
    6CHTO   C68 2312   6.718   5.061   1.337  0.1294  0.3016 -0.8297
    6CHTO  H125 2313   6.627   5.122   1.352  0.7538  1.0668 -0.0829
    6CHTO   C72 2314   6.754   5.005   1.477 -0.2404 -0.4873 -0.5715
    6CHTO   O48 2315   6.862   4.913   1.474  0.0261 -0.1605 -0.4941
    6CHTO  H105 2316   6.883   4.883   1.560 -0.7985  0.9171  0.0992
    6CHTO   O38 2317   6.915   5.061   1.072  0.0309 -0.0096 -0.0319
    6CHTO   C55 2318   7.052   5.106   1.088 -0.5443  0.6856  0.2370
    6CHTO  H112 2319   7.065   5.169   1.177  2.8255  0.4596 -0.0057
    6CHTO   C56 2320   7.120   5.170   0.962  0.3136  0.8807  0.0051
    6CHTO  H113 2321   7.110   5.088   0.889 -0.9076  1.6905 -0.7477
    6CHTO   O42 2322   7.039   5.277   0.905 -0.0341 -0.2248 -0.3253
    6CHTO  H100 2323   7.088   5.314   0.834  1.5083  0.2425  0.9534
    6CHTO   C57 2324   7.266   5.217   0.986  0.4630  0.3590 -0.0221
    6CHTO  H114 2325   7.271   5.299   1.058 -2.8793  0.9659 -0.4450
    6CHTO   N10 2326   7.332   5.277   0.867  0.1374 -0.1476  0.4257
    6CHTO  H106 2327   7.382   5.200   0.810 -2.2746 -2.0781  0.8490
    6CHTO  H107 2328   7.264   5.335   0.806  1.6418  2.6218  1.2530
    6CHTO   C58 2329   7.353   5.096   1.042  0.2609  0.2791 -0.3608
    6CHTO  H115 2330   7.374   5.022   0.962 -1.2760 -0.6890  0.0994
    6CHTO   O37 2331   7.286   5.024   1.152  0.2383 -0.5364  0.4790
    6CHTO   C59 2332   7.149   4.984   1.119 -0.9841  0.3336  0.3418
    6CHTO  H116 2333   7.151   4.908   1.041  0.8869 -0.8035  1.4715
    6CHTO   C70 2334   7.095   4.899   1.237  0.3223  0.5609 -0.7697
    6CHTO   O46 2335   6.996   4.799   1.213 -0.1949 -0.5611 -0.3913
    6CHTO  H103 2336   6.927   4.816   1.275 -0.0389 -2.0638  0.2147
    6CHTO   O39 2337   7.483   5.156   1.107 -0.1515  0.1097  0.3202
    6CHTO   C60 2338   7.612   5.092   1.100  0.0475 -0.1399 -0.3309
    6CHTO  H117 2339   7.600   4.989   1.066  0.3387  0.1870 -1.4638
    6CHTO   C62 2340   7.705   5.168   0.995 -0.0123 -0.1938 -0.4439
    6CHTO  H119 2341   7.645   5.164   0.901 -0.6205  1.7857 -0.1529
    6CHTO   O43 2342   7.735   5.306   1.032  0.0343 -0.0103  0.9244
    6CHTO  H101 2343   7.724   5.363   0.959  0.4194  0.6817  1.4012
    6CHTO   C66 2344   7.828   5.071   0.972  0.2328 -0.3164  0.2216
    6CHTO  H123 2345   7.789   4.970   0.956  0.1239 -0.4952  1.5325
    6CHTO   N12 2346   7.906   5.102   0.849  0.4758 -0.1718  0.7511
    6CHTO  H110 2347   7.946   5.202   0.851 -1.4145  0.6246  0.1877
    6CHTO  H111 2348   7.974   5.019   0.838 -0.5304 -1.0303  0.9643
    6CHTO   C69 2349   7.904   5.070   1.104 -0.0496  0.1052  0.2148
    6CHTO  H126 2350   7.922   5.171   1.147 -0.9082 -0.1737  1.2719
    6CHTO   O41 2351   7.827   5.005   1.213  0.1042 -0.0949  0.4637
    6CHTO   C64 2352   7.678   5.083   1.236 -0.7811 -0.3370  0.5918
    6CHTO  H121 2353   7.699   5.185   1.274 -0.7552 -0.3148  0.5181
    6CHTO   C71 2354   7.592   4.997   1.328  0.2405  0.5066 -0.6065
    6CHTO   O47 2355   7.661   4.991   1.454 -0.1966 -0.0535  0.3372
    6CHTO  H104 2356   7.641   5.065   1.508  1.1891  0.9838 -0.5287
    6CHTO   O34 2357   8.043   4.988   1.096 -0.3173  0.6657  0.0798
    6CHTO   C49 2358   8.184   5.016   0.987  0.3486 -0.1898 -0.5028
    6CHTO   H91 2359   8.156   4.982   0.887 -0.7248  0.1646 -0.3358
    6CHTO   C47 2360   8.302   4.931   1.034 -0.4085 -0.6401 -0.3519
    6CHTO   H89 2361   8.379   4.948   0.956 -0.5279  0.6407 -0.2028
    6CHTO   O33 2362   8.266   4.790   1.036  0.4190  0.5770  0.0761
    6CHTO   H70 2363   8.180   4.782   1.072  1.2765 -2.5381  1.6398
    6CHTO   C45 2364   8.355   4.975   1.185  0.5693  0.7154  0.4278
    6CHTO   H87 2365   8.314   4.914   1.267 -2.1123  1.2478 -0.4824
    6CHTO    N8 2366   8.503   4.938   1.178  0.8335  0.0808 -0.1938
    6CHTO   H75 2367   8.554   4.924   1.273 -0.6858 -0.3450  0.5804
    6CHTO   H76 2368   8.515   4.850   1.118  3.4980 -0.2823  0.8253
    6CHTO   C43 2369   8.308   5.125   1.212 -0.4624  0.6136  0.0657
    6CHTO   H85 2370   8.207   5.122   1.252  0.4331  1.9691  2.5019
    6CHTO   O29 2371   8.306   5.209   1.093  0.2170  0.1657 -0.3830
    6CHTO   C50 2372   8.216   5.162   0.991 -0.0485  0.3421  0.1322
    6CHTO   H92 2373   8.123   5.220   0.999  0.3930  0.9529  1.0641
    6CHTO   C54 2374   8.270   5.209   0.856 -0.5307  0.3864 -0.1941
    6CHTO   O36 2375   8.277   5.353   0.848  0.3643  0.0828 -0.2340
    6CHTO   H72 2376   8.337   5.390   0.787 -0.6676  2.1749 -0.0406
    6CHTO   O27 2377   8.385   5.175   1.318  0.0385  1.0737 -0.0812
    6CHTO   C37 2378   8.466   5.289   1.365 -0.0625 -0.0636  0.6712
    6CHTO   H79 2379   8.564   5.292   1.316 -0.4212  1.6656  0.0056
    6CHTO   C38 2380   8.399   5.431   1.337  0.4561 -0.4338 -0.5496
    6CHTO   H80 2381   8.304   5.444   1.392  0.1707 -3.1288 -0.3264
    6CHTO   O31 2382   8.376   5.446   1.199 -0.0816  0.3994  0.1042
    6CHTO   H68 2383   8.333   5.528   1.185 -0.2164  0.6486  1.7906
    6CHTO   C39 2384   8.496   5.545   1.389 -0.4059 -0.1637 -0.5748
    6CHTO   H81 2385   8.593   5.521   1.344  0.0858  0.1085  0.3150
    6CHTO    N7 2386   8.462   5.687   1.363  0.1063  0.1881 -0.1724
    6CHTO   H73 2387   8.354   5.696   1.358 -0.1069 -1.1253  1.7600
    6CHTO   H74 2388   8.535   5.722   1.291  0.0092 -2.2594 -1.5263
    6CHTO   C40 2389   8.519   5.512   1.550  0.8739  0.1940  0.1057
    6CHTO   H82 2390   8.426   5.520   1.607  2.0195  1.1003  1.8897
    6CHTO   O26 2391   8.572   5.382   1.572  0.4896 -0.8596 -0.2863
    6CHTO   C41 2392   8.486   5.278   1.519 -0.0077 -0.2715 -0.2474
    6CHTO   H83 2393   8.388   5.296   1.566  0.0268 -1.0368  0.1131
    6CHTO   C52 2394   8.545   5.142   1.564  0.8239  0.2832 -0.2625
    6CHTO   O35 2395   8.545   5.125   1.704 -0.4116  0.4277 -0.3654
    6CHTO   H71 2396   8.545   5.032   1.718  0.0373  0.6586  1.3581
    6CHTO   O28 2397   8.621   5.601   1.594  0.3600  0.0582 -0.2957
    6CHTO   C42 2398   8.627   5.639   1.740 -0.2702 -0.0415 -0.2562
    6CHTO   H84 2399   8.719   5.695   1.754  1.0166 -2.8353  3.4200
    6CHTO   C44 2400   8.648   5.512   1.832 -0.0117  0.2004  0.0761
    6CHTO   H86 2401   8.565   5.445   1.809 -0.4039  0.8296 -0.3755
    6CHTO   O32 2402   8.773   5.446   1.802  0.3832  0.4606 -0.5881
    6CHTO   H69 2403   8.772   5.422   1.711  0.3768  1.1308 -0.7681
    6CHTO   C48 2404   8.638   5.546   1.990  0.4712 -0.7520  0.9148
    6CHTO   H90 2405   8.737   5.582   2.018 -0.0532 -0.3453  2.2868
    6CHTO    N9 2406   8.621   5.419   2.069 -0.4846  0.1520  0.1100
    6CHTO   H77 2407   8.520   5.381   2.066 -0.1692 -0.8958  1.8607
    6CHTO   H78 2408   8.645   5.446   2.171 -1.3158 -1.8682  0.8833
    6CHTO   C51 2409   8.527   5.651   2.020  0.0858  0.7336  0.4280
    6CHTO   H93 2410   8.429   5.603   2.008  0.8665 -0.6057 -0.7692
    6CHTO   O30 2411   8.537   5.761   1.937 -0.4747  0.0468  0.1881
    6CHTO   C46 2412   8.512   5.727   1.796  0.1873  0.0820  0.1201
    6CHTO   H88 2413   8.421   5.673   1.771  0.1169  0.5022 -0.5499
    6CHTO   C53 2414   8.512   5.858   1.709  0.0787  0.3087  0.1113
    6CHTO   O72 2415   8.394   5.938   1.739 -0.8968  0.5570  0.9956
    6CHTO  H199 2416   8.370   5.997   1.669  0.4045  1.0049  0.9032
    6CHTO   O22 2417   8.540   5.705   2.151 -0.1212 -0.3569 -0.3025
    6CHTO   C31 2418   8.436   5.774   2.232 -0.5545  0.3563 -0.6962
    6CHTO   H59 2419   8.477   5.781   2.335 -0.6830 -1.0056 -0.5461
    6CHTO   C29 2420   8.412   5.920   2.180  0.7061 -0.2828  0.2673
    6CHTO   H57 2421   8.382   5.914   2.075 -1.0118 -1.2582  0.7854
    6CHTO   O21 2422   8.543   5.980   2.182 -0.1351 -0.5672 -0.3699
    6CHTO   H37 2423   8.575   6.001   2.268 -0.8747  0.0862 -0.2523
    6CHTO   C27 2424   8.306   6.000   2.262  0.3773  0.5955  0.1419
    6CHTO   H55 2425   8.338   6.008   2.367  0.3071  1.2961  0.1133
    6CHTO    N5 2426   8.286   6.141   2.216 -0.5579  0.0179 -0.1948
    6CHTO   H43 2427   8.250   6.141   2.114 -0.2846 -1.8775 -0.2948
    6CHTO   H44 2428   8.219   6.200   2.278  1.0116  1.8597 -0.1891
    6CHTO   C25 2429   8.173   5.916   2.264  0.1862  0.7010  0.2636
    6CHTO   H53 2430   8.134   5.904   2.162 -1.6716  0.9444  0.9327
    6CHTO   O17 2431   8.204   5.783   2.319  0.0035  0.1995 -0.2469
    6CHTO   C32 2432   8.298   5.702   2.243  0.3783 -0.2864 -0.4020
    6CHTO   H60 2433   8.258   5.682   2.143 -0.7460  0.8116 -0.1887
    6CHTO   C36 2434   8.312   5.566   2.313 -0.1252  0.2900  0.4047
    6CHTO   O25 2435   8.212   5.483   2.262  0.2735  0.1762  0.3061
    6CHTO   H40 2436   8.200   5.408   2.318  2.0396  0.6597  1.3933
    6CHTO   O15 2437   8.042   5.984   2.354 -0.4560  0.2830 -0.3631
    6CHTO   C19 2438   7.922   6.079   2.370  0.6518  0.5515  0.2862
    6CHTO   H47 2439   7.889   6.070   2.474 -0.6910  0.6157 -0.1280
    6CHTO   C20 2440   7.955   6.229   2.346 -0.3176  0.3365  0.7789
    6CHTO   H48 2441   8.005   6.240   2.249  0.0727 -2.1705  0.6681
    6CHTO   O19 2442   8.049   6.276   2.443  0.2771 -0.0193  0.2201
    6CHTO   H35 2443   8.121   6.220   2.466  0.3378 -0.3845 -0.8613
    6CHTO   C21 2444   7.828   6.322   2.354  0.1181 -0.3939  0.2223
    6CHTO   H49 2445   7.789   6.328   2.456  0.8054  0.4532  0.4410
    6CHTO    N4 2446   7.851   6.464   2.321 -0.4577  0.4649  0.4947
    6CHTO   H41 2447   7.757   6.518   2.326 -1.1397 -0.6716 -0.0081
    6CHTO   H42 2448   7.893   6.473   2.222 -0.2698  1.2326  0.6393
    6CHTO   C22 2449   7.710   6.259   2.262 -0.4951  0.0552 -0.5685
    6CHTO   H50 2450   7.739   6.266   2.157  3.0156  1.6140  0.4220
    6CHTO   O14 2451   7.685   6.123   2.296 -0.2598  0.3525 -0.1888
    6CHTO   C23 2452   7.799   6.035   2.283  0.2175 -0.1710  0.3551
    6CHTO   H51 2453   7.825   6.031   2.176 -1.4155  0.7275 -0.1046
    6CHTO   C34 2454   7.758   5.901   2.334 -0.6767  0.2076  0.0045
    6CHTO   O23 2455   7.637   5.848   2.272 -0.3397 -0.2457  0.1976
    6CHTO   H38 2456   7.560   5.881   2.314  0.0113  2.2868 -1.0063
    6CHTO   O16 2457   7.587   6.329   2.284 -0.1476 -0.2212 -0.8175
    6CHTO   C24 2458   7.464   6.327   2.161  0.4912 -0.1254  0.4830
    6CHTO   H52 2459   7.482   6.250   2.086  1.1154  0.5389 -0.0535
    6CHTO   C26 2460   7.454   6.464   2.090  0.0625  0.2185 -0.2289
    6CHTO   H54 2461   7.462   6.546   2.165 -0.8401  0.3460 -0.2679
    6CHTO   O20 2462   7.578   6.490   2.017  0.3321  0.0595 -0.0866
    6CHTO   H36 2463   7.580   6.444   1.935 -0.6166  0.6204 -0.4353
    6CHTO   C30 2464   7.328   6.492   2.002 -0.3282 -0.1907  0.7657
    6CHTO   H58 2465   7.323   6.432   1.910 -0.5822  1.5139 -0.3606
    6CHTO    N6 2466   7.331   6.627   1.939  0.0975 -0.1091 -0.6148
    6CHTO   H45 2467   7.241   6.686   1.946  0.3504  0.0327  1.8890
    6CHTO   H46 2468   7.372   6.635   1.839 -0.5694  0.4877 -0.8415
    6CHTO   C33 2469   7.207   6.447   2.084 -0.3060 -0.1986 -0.6471
    6CHTO   H61 2470   7.199   6.520   2.167  1.1728  0.1497 -0.7889
    6CHTO   O18 2471   7.223   6.318   2.136 -0.4669  0.7306 -0.1794
    6CHTO   C28 2472   7.327   6.298   2.232 -0.5433  0.2369 -0.0060
    6CHTO   H56 2473   7.317   6.362   2.320  0.0538  0.7005 -0.2739
    6CHTO   C35 2474   7.321   6.155   2.287 -0.2704  0.3479  0.4690
    6CHTO   O24 2475   7.197   6.118   2.345  0.4141 -0.1468 -0.0646
    6CHTO   H39 2476   7.191   6.144   2.434  2.2035  1.1120 -0.2931
    6CHTO    O9 2477   7.083   6.459   2.008  0.0848 -0.3532 -0.4988
    6CHTO   C13 2478   6.961   6.517   2.089 -0.0440 -0.2937  0.1180
    6CHTO   H26 2479   6.997   6.608   2.140  0.2610  0.8566 -2.0759
    6CHTO   C11 2480   6.917   6.396   2.189 -0.4766 -0.4298 -0.1729
    6CHTO   H24 2481   6.996   6.388   2.266 -0.8380 -1.5876  0.0784
    6CHTO    O8 2482   6.906   6.271   2.123  0.0944 -0.0054 -0.2298
    6CHTO    H3 2483   6.988   6.227   2.108 -1.0325 -1.8721 -1.2321
    6CHTO    C9 2484   6.788   6.438   2.259  0.6795  0.5465 -0.0535
    6CHTO   H22 2485   6.811   6.530   2.314  0.5339 -0.0906  1.0888
    6CHTO    N2 2486   6.740   6.352   2.373  0.2304  0.2586 -0.1176
    6CHTO   H10 2487   6.795   6.261   2.358 -0.1406 -0.2092  1.2769
    6CHTO   H11 2488   6.772   6.409   2.460  0.1487  2.2015 -1.3257
    6CHTO    C7 2489   6.678   6.461   2.154 -0.8093  0.0955  0.5455
    6CHTO   H20 2490   6.596   6.498   2.219 -0.6807  1.0391  0.1729
    6CHTO    O4 2491   6.720   6.560   2.056  0.1037 -0.3468  0.1066
    6CHTO   C14 2492   6.846   6.554   1.990  0.0591 -0.1624 -0.4426
    6CHTO   H27 2493   6.859   6.659   1.955 -0.4985  0.3544  0.8859
    6CHTO   C18 2494   6.842   6.460   1.864  0.5037  0.1320  0.2058
    6CHTO   O13 2495   6.771   6.504   1.747  0.5017  0.5660  0.0573
    6CHTO    H7 2496   6.825   6.540   1.679  1.6250  0.5006  0.9047
    6CHTO    O2 2497   6.634   6.324   2.069 -0.2501 -0.0455  0.1795
    6CHTO    C1 2498   6.492   6.311   2.039  0.2321 -0.8705 -0.0288
    6CHTO   H14 2499   6.484   6.236   1.958 -0.1596  2.4120 -3.1592
    6CHTO    C2 2500   6.428   6.447   1.982  0.4868  0.3992  0.3128
    6CHTO   H15 2501   6.460   6.530   2.048 -0.2742 -0.9605  2.4567
    6CHTO    O6 2502   6.483   6.476   1.853 -0.2432  0.0299  0.0136
    6CHTO    H1 2503   6.451   6.562   1.835  1.7135  0.8453  0.3263
    6CHTO    C3 2504   6.266   6.435   1.976 -0.5796  0.6454  0.2191
    6CHTO   H16 2505   6.245   6.365   1.894  3.5957 -1.0123  0.4918
    6CHTO    N1 2506   6.192   6.562   1.938  0.0358 -0.3290  0.3505
    6CHTO    H8 2507   6.271   6.626   1.902  0.7421 -0.9915  0.7185
    6CHTO    H9 2508   6.121   6.541   1.859 -0.1847  1.3224  0.0813
    6CHTO    C4 2509   6.202   6.373   2.106  0.0656 -0.1981  0.7271
    6CHTO   H17 2510   6.184   6.452   2.178  0.2954  0.0118  0.5563
    6CHTO    O1 2511   6.276   6.258   2.152 -0.1123  0.4230  0.5543
    6CHTO    C5 2512   6.418   6.259   2.168  1.0644 -0.6669 -0.0603
    6CHTO   H18 2513   6.447   6.320   2.253  0.4642 -0.1072 -0.2511
    6CHTO   C16 2514   6.439   6.112   2.206  1.0116 -1.0631  0.0180
    6CHTO   O11 2515   6.574   6.085   2.231 -0.3144 -0.3962 -0.4529
    6CHTO    H5 2516   6.614   6.165   2.260 -0.4402 -0.4591 -0.1073
    6CHTO    O3 2517   6.080   6.305   2.071  0.3827 -0.1479 -0.2927
    6CHTO    C6 2518   5.985   6.295   2.191  0.2714  0.7284  0.4423
    6CHTO   H19 2519   6.039   6.299   2.285 -0.7775 -1.3285  1.1552
    6CHTO    C8 2520   5.867   6.399   2.176  0.2494 -0.2495  0.2688
    6CHTO   H21 2521   5.825   6.389   2.075  0.0188 -0.8293  0.4174
    6CHTO    O7 2522   5.932   6.526   2.194  0.0661 -0.4632  0.0380
    6CHTO    H2 2523   5.891   6.581   2.131 -1.3573 -1.2292  0.2529
    6CHTO   C12 2524   5.748   6.375   2.278  0.6418  0.2672  0.2509
    6CHTO   H25 2525   5.783   6.409   2.377  2.3327 -0.1270 -0.2028
    6CHTO    N3 2526   5.630   6.469   2.245  0.2434 -0.2024 -0.0635
    6CHTO   H12 2527   5.540   6.464   2.304  0.0472 -0.9362 -0.4147
    6CHTO   H13 2528   5.663   6.571   2.237  0.9067 -0.5397 -1.7300
    6CHTO   C15 2529   5.714   6.227   2.290  0.3921 -0.0143  0.0121
    6CHTO   H28 2530   5.652   6.192   2.207  1.5055  0.7714 -1.1708
    6CHTO   O10 2531   5.635   6.214   2.423 -0.2971 -0.1083  0.1001
    6CHTO    H4 2532   5.546   6.242   2.418  0.2888  1.5392 -1.4026
    6CHTO    O5 2533   5.828   6.140   2.297 -0.6656 -0.7780  0.6143
    6CHTO   C10 2534   5.922   6.153   2.186 -0.4246 -0.0041  0.1814
    6CHTO   H23 2535   5.871   6.153   2.090 -2.1820  0.9430  1.0870
    6CHTO   C17 2536   6.028   6.037   2.192  0.2322 -0.2865 -0.4724
    6CHTO   O12 2537   5.964   5.907   2.196  0.4009 -0.1594 -0.0135
    6CHTO    H6 2538   5.888   5.904   2.251  0.9963  1.6263  0.9402
    7CHTO  H203 2539   5.118   2.333   0.009 -1.4853 -1.9613 -1.5226
    7CHTO   O82 2540   5.075   2.388  -0.054 -0.2325  0.2518 -0.4895
    7CHTO  C123 2541   5.166   2.424  -0.158 -0.1686  0.9112 -0.1929
    7CHTO  H227 2542   5.107   2.470  -0.239 -1.0906  1.8413  0.9943
    7CHTO   O77 2543   5.250   2.523  -0.085 -0.4916 -0.1840 -0.4196
    7CHTO  C118 2544   5.351   2.579  -0.177 -0.3115  0.8278 -0.0501
    7CHTO  H222 2545   5.306   2.619  -0.269 -1.1941  0.7826  0.3584
    7CHTO  C125 2546   5.428   2.696  -0.103  1.2436  0.2665 -0.0838
    7CHTO   O84 2547   5.472   2.678   0.034 -0.7513  0.9376  0.0132
    7CHTO  H205 2548   5.558   2.641   0.040 -0.8050  0.3543 -2.1728
    7CHTO  C114 2549   5.445   2.460  -0.216 -0.3151  0.6940 -0.6963
    7CHTO  H218 2550   5.506   2.421  -0.134 -2.3587  0.0058  0.5145
    7CHTO  C116 2551   5.375   2.341  -0.281 -0.0548 -0.0820 -0.6152
    7CHTO  H220 2552   5.351   2.370  -0.386  0.2575 -0.8544 -0.9039
    7CHTO   O79 2553   5.471   2.235  -0.294 -0.2369  0.6660  0.5116
    7CHTO  H201 2554   5.469   2.172  -0.225 -1.7767 -0.5452 -0.6024
    7CHTO  C120 2555   5.251   2.296  -0.204 -0.2539 -0.4620 -0.0465
    7CHTO  H224 2556   5.285   2.236  -0.118 -0.1020 -0.4574 -0.1048
    7CHTO   N21 2557   5.171   2.203  -0.292  0.7394 -0.5438  0.2367
    7CHTO  H211 2558   5.103   2.255  -0.357  1.9672  1.1718  0.2903
    7CHTO  H212 2559   5.134   2.119  -0.234 -1.0997 -0.4086 -0.7237
    7CHTO   O75 2560   5.540   2.523  -0.304  0.8402 -0.2873  0.0723
    7CHTO  C112 2561   5.695   2.462  -0.293  0.8287  0.0797  0.0205
    7CHTO  H216 2562   5.709   2.376  -0.360 -1.6001  1.0015 -1.7354
    7CHTO   O73 2563   5.721   2.434  -0.156 -0.1227  0.0333  0.3072
    7CHTO  C113 2564   5.839   2.361  -0.140 -0.4856  0.6436  0.7509
    7CHTO  H217 2565   5.834   2.279  -0.215  0.3397  0.0271  1.3613
    7CHTO  C124 2566   5.845   2.295   0.000  0.7521 -0.3806 -0.0317
    7CHTO   O83 2567   5.931   2.185  -0.005 -0.1105 -0.2991 -0.5220
    7CHTO  H204 2568   5.881   2.111  -0.034 -2.6839  1.1272  0.0899
    7CHTO  C109 2569   5.962   2.454  -0.176  0.0755 -0.0154 -0.0705
    7CHTO  H213 2570   5.965   2.538  -0.105  0.3733 -1.8799  2.1738
    7CHTO  C110 2571   5.939   2.510  -0.323  0.8030 -1.2190 -0.4806
    7CHTO  H214 2572   5.955   2.435  -0.401 -0.6191 -1.2161 -0.8027
    7CHTO   O78 2573   6.038   2.614  -0.348 -0.1776 -0.4721  0.4076
    7CHTO  H200 2574   6.017   2.687  -0.293  1.0601 -0.8351  1.4059
    7CHTO  C111 2575   5.795   2.565  -0.346  0.2356 -0.2268 -0.4174
    7CHTO  H215 2576   5.783   2.655  -0.284 -0.1646  0.1794 -1.0809
    7CHTO   N19 2577   5.769   2.608  -0.487  0.1646  0.1479 -0.3829
    7CHTO  H207 2578   5.855   2.631  -0.548 -0.1730  1.9058 -0.2219
    7CHTO  H208 2579   5.698   2.689  -0.494  0.1694  0.2542  0.6951
    7CHTO   O74 2580   6.077   2.372  -0.169 -0.0787  0.0662 -0.1256
    7CHTO  C115 2581   6.215   2.441  -0.120 -0.5265 -0.0044  0.5064
    7CHTO  H219 2582   6.207   2.549  -0.121 -1.9356 -0.0961 -0.6615
    7CHTO   O76 2583   6.248   2.404   0.036  0.1130  0.1338 -0.1252
    7CHTO  C122 2584   6.284   2.266   0.066  0.4262 -0.3850  0.9397
    7CHTO  H226 2585   6.203   2.203   0.029 -0.8109  1.8775 -0.2498
    7CHTO  C126 2586   6.285   2.235   0.216  0.3753  0.3358  0.3981
    7CHTO   O85 2587   6.292   2.089   0.236  0.0782  0.6500  0.4204
    7CHTO  H206 2588   6.285   2.058   0.324  0.1919 -0.8121 -0.0739
    7CHTO  C121 2589   6.409   2.234  -0.016 -0.3473  0.2942 -0.7527
    7CHTO  H225 2590   6.490   2.306   0.010 -0.4444 -1.3472  4.6337
    7CHTO   O81 2591   6.455   2.103   0.015  0.5336  0.5300 -0.4599
    7CHTO  H202 2592   6.522   2.100   0.081  1.6194  1.3760 -1.4950
    7CHTO  C119 2593   6.378   2.242  -0.169  0.0798  0.4505 -0.2641
    7CHTO  H223 2594   6.469   2.219  -0.224  0.1210 -1.4256  0.5279
    7CHTO  C117 2595   6.332   2.387  -0.218 -0.1191  0.1609  0.5988
    7CHTO  H221 2596   6.280   2.390  -0.314 -1.0503  1.6431  1.1381
    7CHTO   N20 2597   6.438   2.489  -0.227  0.2379  0.7333  0.5894
    7CHTO  H209 2598   6.524   2.449  -0.279  1.7055  1.0512  2.7507
    7CHTO  H210 2599   6.411   2.592  -0.242  1.4919  0.7699 -1.6704
    7CHTO   O80 2600   6.272   2.134  -0.216  0.0868  0.4956  0.1083
    7CHTO  C103 2601   6.303   2.033  -0.337 -0.3017  0.3161  0.1820
    7CHTO  H190 2602   6.300   2.093  -0.428  0.3053 -1.0175 -0.7326
    7CHTO  C101 2603   6.426   1.934  -0.339 -0.0460  0.2333 -0.3417
    7CHTO  H188 2604   6.426   1.882  -0.243  0.7248 -0.6249 -0.7987
    7CHTO   O68 2605   6.545   2.009  -0.350 -0.9085  0.3040 -0.2343
    7CHTO  H168 2606   6.546   2.073  -0.282  1.1053  1.2047 -1.0942
    7CHTO   C99 2607   6.416   1.821  -0.446 -0.0816  0.5434  0.6241
    7CHTO  H186 2608   6.415   1.867  -0.547 -0.2157  0.0412  0.3941
    7CHTO   N17 2609   6.526   1.725  -0.448  0.0080  0.2991  0.0342
    7CHTO  H174 2610   6.477   1.629  -0.440  0.3917 -0.0476 -1.5453
    7CHTO  H175 2611   6.597   1.743  -0.369 -0.2299 -2.2205  0.8435
    7CHTO   C97 2612   6.275   1.756  -0.431 -0.7592 -1.1984 -0.0141
    7CHTO  H184 2613   6.275   1.721  -0.326  0.9630  0.2248  0.5100
    7CHTO   O64 2614   6.171   1.858  -0.454 -0.4689  0.0201 -0.3317
    7CHTO  C104 2615   6.168   1.945  -0.334  0.0255  0.5228 -0.2874
    7CHTO  H191 2616   6.166   1.885  -0.243  0.9802  0.9254  0.0130
    7CHTO  C108 2617   6.039   2.030  -0.331 -0.0275 -0.1736  0.1617
    7CHTO   O71 2618   5.928   1.946  -0.302 -0.1298  0.3563 -0.3139
    7CHTO  H171 2619   5.941   1.912  -0.216 -0.8223  2.9004  0.8220
    7CHTO   O62 2620   6.260   1.648  -0.521  0.7315  0.0600  0.0416
    7CHTO   C91 2621   6.159   1.548  -0.513 -0.0721  0.1446  0.4286
    7CHTO  H178 2622   6.190   1.471  -0.583 -1.5964  0.3899 -0.5444
    7CHTO   C92 2623   6.024   1.609  -0.562  0.0261 -0.3522 -0.1145
    7CHTO  H179 2624   5.996   1.694  -0.499 -0.4668 -0.5165 -0.1042
    7CHTO   O66 2625   6.042   1.665  -0.689  0.0400 -0.3141  0.6502
    7CHTO  H166 2626   5.990   1.742  -0.703  0.1881 -0.1588  0.9311
    7CHTO   C93 2627   5.908   1.501  -0.556  0.0993 -0.0364  0.2930
    7CHTO  H180 2628   5.930   1.420  -0.627 -1.4672  0.9287 -1.3272
    7CHTO   N16 2629   5.782   1.557  -0.608 -0.2714  0.0325 -0.1403
    7CHTO  H172 2630   5.767   1.656  -0.567  0.7551  0.0595  0.1689
    7CHTO  H173 2631   5.790   1.573  -0.715 -0.2269 -2.1467 -0.4908
    7CHTO   C94 2632   5.887   1.437  -0.417 -0.5063 -0.8200  0.3342
    7CHTO  H181 2633   5.852   1.509  -0.343  0.0977 -0.2135  0.0350
    7CHTO   O61 2634   6.016   1.402  -0.362 -0.5499  0.1880  0.5921
    7CHTO   C95 2635   6.136   1.488  -0.376  0.1096 -0.3469  0.1595
    7CHTO  H182 2636   6.137   1.564  -0.298 -0.1810 -2.2975  2.1450
    7CHTO  C106 2637   6.265   1.402  -0.329  0.1073 -0.1299  0.2956
    7CHTO   O69 2638   6.276   1.283  -0.406  0.2530 -0.1739 -0.3010
    7CHTO  H169 2639   6.359   1.239  -0.403 -1.3181 -3.2604  0.2497
    7CHTO   O63 2640   5.789   1.301  -0.418  0.4429 -0.5707  0.0386
    7CHTO   C96 2641   5.686   1.293  -0.294 -0.0973 -0.4002  0.0001
    7CHTO  H183 2642   5.638   1.391  -0.287 -0.7257 -0.6896 -0.2408
    7CHTO   C98 2643   5.746   1.266  -0.152 -0.8750  0.3825 -0.1392
    7CHTO  H185 2644   5.834   1.331  -0.139 -0.4180 -0.0075 -1.2025
    7CHTO   O67 2645   5.661   1.314  -0.048  0.4560  0.4387 -0.6623
    7CHTO  H167 2646   5.615   1.387  -0.085  2.4041  2.4731  0.7488
    7CHTO  C102 2647   5.777   1.116  -0.113  0.5738  0.0934 -0.1437
    7CHTO  H189 2648   5.735   1.104  -0.012 -0.1803  0.5588 -0.4013
    7CHTO   N18 2649   5.915   1.080  -0.095  0.4651 -0.6115  0.3246
    7CHTO  H176 2650   5.973   1.161  -0.053 -0.2454  0.2434 -0.3181
    7CHTO  H177 2651   5.953   1.061  -0.194  0.2308  1.3932 -0.1767
    7CHTO  C105 2652   5.708   1.011  -0.201  0.5031 -0.0111 -0.6990
    7CHTO  H192 2653   5.769   0.989  -0.289  0.6862  0.0886 -0.5974
    7CHTO   O65 2654   5.582   1.056  -0.255 -0.6258  0.3246  0.1874
    7CHTO  C100 2655   5.577   1.185  -0.325  0.6969 -0.1474 -0.3311
    7CHTO  H187 2656   5.583   1.160  -0.432 -1.0286 -0.0960 -0.4538
    7CHTO  C107 2657   5.446   1.249  -0.291 -0.1831  0.5221 -0.3569
    7CHTO   O70 2658   5.408   1.364  -0.368  0.4936  0.4936  0.5989
    7CHTO  H170 2659   5.463   1.440  -0.362  1.4752 -0.3274  2.5637
    7CHTO   O57 2660   5.698   0.875  -0.106  0.5417  0.2807  0.5788
    7CHTO   C85 2661   5.663   0.758  -0.179 -0.5756 -0.3691 -0.3486
    7CHTO  H157 2662   5.678   0.780  -0.287  0.9451  1.9530  0.2881
    7CHTO   C83 2663   5.506   0.741  -0.159  0.2702  0.4625 -0.6343
    7CHTO  H155 2664   5.451   0.827  -0.198 -1.2194 -0.0702  0.2680
    7CHTO   O56 2665   5.470   0.732  -0.014  0.6080  0.2770 -0.0816
    7CHTO  H135 2666   5.504   0.810   0.026  0.1161  1.1995 -1.4400
    7CHTO   C81 2667   5.457   0.620  -0.241 -0.5315 -0.7753  0.5999
    7CHTO  H153 2668   5.500   0.641  -0.339 -0.2515  1.9281  1.2609
    7CHTO   N14 2669   5.304   0.609  -0.242  0.5560 -0.1680  0.8953
    7CHTO  H141 2670   5.269   0.656  -0.152 -0.4477 -1.7943  1.3691
    7CHTO  H142 2671   5.278   0.506  -0.230  0.4602 -0.0833  1.4263
    7CHTO   C79 2672   5.525   0.493  -0.178 -0.6978 -0.6474  0.2662
    7CHTO  H151 2673   5.496   0.405  -0.236 -0.6608 -0.5541  0.1081
    7CHTO   O52 2674   5.670   0.502  -0.194 -0.0519 -0.2219  0.0558
    7CHTO   C86 2675   5.734   0.619  -0.133 -0.1224  0.0218  0.1300
    7CHTO  H158 2676   5.720   0.601  -0.024 -0.3747  1.4888  0.3495
    7CHTO   C90 2677   5.883   0.626  -0.158  0.1408 -0.6067 -0.5781
    7CHTO   O60 2678   5.953   0.515  -0.103  0.3918 -0.1240 -0.1085
    7CHTO  H138 2679   5.922   0.438  -0.147  0.5301 -0.1123 -0.2263
    7CHTO   O50 2680   5.501   0.462  -0.037  0.4668 -0.4942 -0.1511
    7CHTO   C73 2681   5.474   0.362   0.058  0.2849 -0.3514 -0.0888
    7CHTO  H145 2682   5.556   0.288   0.059  2.5558  2.1008  1.0911
    7CHTO   C74 2683   5.342   0.289   0.005  0.2540  0.5056  0.4027
    7CHTO  H146 2684   5.355   0.273  -0.103 -0.3796  2.2324  0.0573
    7CHTO   O54 2685   5.329   0.164   0.065  0.1205 -0.1946 -0.1536
    7CHTO  H133 2686   5.312   0.099  -0.000 -0.7621 -0.4038  0.2827
    7CHTO   C75 2687   5.214   0.381   0.034 -0.5199 -0.0296 -0.5080
    7CHTO  H147 2688   5.235   0.477  -0.016  0.0518  0.7843  1.2629
    7CHTO   N13 2689   5.083   0.331  -0.013  0.4606  0.0412 -0.2862
    7CHTO  H139 2690   5.069   0.239   0.043  0.7736  0.1994  0.0519
    7CHTO  H140 2691   5.074   0.306  -0.117 -2.2247  2.2757 -0.6608
    7CHTO   C76 2692   5.219   0.425   0.190  0.5787  0.2744  0.0012
    7CHTO  H148 2693   5.188   0.339   0.249 -1.1318  0.4535 -0.6226
    7CHTO   O49 2694   5.343   0.483   0.219  0.1324 -0.0102 -0.2990
    7CHTO   C77 2695   5.461   0.413   0.196  0.1024 -0.1341  0.0518
    7CHTO  H149 2696   5.473   0.325   0.260  1.3029 -0.2469 -0.3122
    7CHTO   C88 2697   5.563   0.514   0.234 -0.5632  0.0444 -0.3100
    7CHTO   O58 2698   5.704   0.464   0.206 -0.2097  0.0585  0.4431
    7CHTO  H136 2699   5.699   0.372   0.190  1.8535  0.1515 -0.7477
    7CHTO   O51 2700   5.115   0.559   0.221  0.1720  0.0230  0.4409
    7CHTO   C78 2701   5.085   0.569   0.361  0.6966  0.0800 -0.2758
    7CHTO  H150 2702   5.159   0.513   0.421 -1.3866 -1.9796  0.4406
    7CHTO   C80 2703   4.947   0.512   0.404 -0.2373  0.7347 -0.0780
    7CHTO  H152 2704   4.864   0.569   0.357 -1.7828 -1.9332 -0.7069
    7CHTO   O55 2705   4.948   0.377   0.355 -0.1375  0.5828  0.7738
    7CHTO  H134 2706   4.959   0.371   0.262 -0.6211 -2.0731  0.8479
    7CHTO   C84 2707   4.918   0.533   0.556  0.0915  0.1203 -0.9229
    7CHTO  H156 2708   4.993   0.473   0.608 -0.7502 -0.8904 -0.8568
    7CHTO   N15 2709   4.788   0.473   0.590  0.1740  0.4198  0.1931
    7CHTO  H143 2710   4.757   0.496   0.690 -2.1491 -0.6294 -0.2624
    7CHTO  H144 2711   4.796   0.367   0.584  0.3262  0.3593  1.2881
    7CHTO   C87 2712   4.943   0.678   0.588 -0.6791 -0.0395  0.0420
    7CHTO  H159 2713   4.873   0.746   0.540 -0.6497  2.1792  2.9757
    7CHTO   O53 2714   5.083   0.712   0.551 -0.5054 -0.8757  0.3305
    7CHTO   C82 2715   5.105   0.709   0.409 -0.0408 -0.0172  0.0679
    7CHTO  H154 2716   5.033   0.771   0.355 -2.3590 -3.7045 -1.3047
    7CHTO   C89 2717   5.247   0.776   0.386  0.4120  0.1355  1.0582
    7CHTO   O59 2718   5.273   0.777   0.250 -0.5764  0.4217 -0.0872
    7CHTO  H137 2719   5.357   0.812   0.228  1.2613 -3.3784  0.4851
    7CHTO   O45 2720   4.927   0.709   0.748 -0.6501 -0.3896 -0.3593
    7CHTO   C67 2721   4.975   0.835   0.784 -0.0343  0.2614 -0.1380
    7CHTO  H124 2722   5.076   0.850   0.745 -1.2025  0.3072 -3.2918
    7CHTO   C65 2723   4.886   0.958   0.738 -0.1538 -0.7297 -0.4728
    7CHTO  H122 2724   4.788   0.912   0.725 -0.7697  0.5568 -0.5313
    7CHTO   O44 2725   4.921   0.999   0.608 -0.2282 -0.4949  1.0015
    7CHTO  H102 2726   4.894   0.934   0.545  1.3720  1.4279 -1.7761
    7CHTO   C63 2727   4.872   1.068   0.852 -0.5178 -0.0847  0.7008
    7CHTO  H120 2728   4.802   1.036   0.930 -2.8866 -0.7290 -1.6197
    7CHTO   N11 2729   4.804   1.199   0.812  0.4551 -0.0905  0.1072
    7CHTO  H108 2730   4.809   1.272   0.889  0.7528 -1.1174  1.0799
    7CHTO  H109 2731   4.705   1.179   0.778  0.5275  0.9521 -0.7447
    7CHTO   C61 2732   5.011   1.075   0.909 -0.8755 -0.1951 -0.2307
    7CHTO  H118 2733   5.013   1.160   0.978  0.7437 -1.5019  1.3808
    7CHTO   O40 2734   5.046   0.954   0.988  0.1832 -0.1134  0.2045
    7CHTO   C68 2735   4.992   0.832   0.942  0.0059  0.7639  0.0395
    7CHTO  H125 2736   4.892   0.822   0.990  0.5393 -0.5026  0.9487
    7CHTO   C72 2737   5.079   0.725   1.002  0.3716  0.1884  0.6228
    7CHTO   O48 2738   5.031   0.597   0.969  0.4789 -0.9707  0.3595
    7CHTO  H105 2739   4.945   0.598   0.932 -0.2261 -2.4574  1.9088
    7CHTO   O38 2740   5.111   1.105   0.815  0.4917  0.6182 -0.3285
    7CHTO   C55 2741   5.243   1.137   0.861 -0.2480  0.5818 -0.0106
    7CHTO  H112 2742   5.249   1.107   0.967  1.3442  0.9949  0.0232
    7CHTO   C56 2743   5.274   1.287   0.842 -0.7058  0.1159 -0.3576
    7CHTO  H113 2744   5.269   1.312   0.735 -0.3801  2.4724  0.1430
    7CHTO   O42 2745   5.174   1.358   0.911 -0.2099  0.2500  0.4993
    7CHTO  H100 2746   5.176   1.354   1.004  0.5122  1.2081  0.5323
    7CHTO   C57 2747   5.417   1.321   0.890 -0.1934 -0.4871  0.1523
    7CHTO  H114 2748   5.416   1.296   0.996 -0.6027 -0.1915  0.2203
    7CHTO   N10 2749   5.460   1.467   0.880 -0.1146  0.3697 -0.5083
    7CHTO  H106 2750   5.419   1.522   0.797 -1.7491 -1.7468 -1.1272
    7CHTO  H107 2751   5.418   1.507   0.971  1.6979  2.2505 -0.4517
    7CHTO   C58 2752   5.521   1.227   0.815  0.3988 -0.5793  0.1174
    7CHTO  H115 2753   5.530   1.251   0.707  0.7918 -3.1879 -0.4445
    7CHTO   O37 2754   5.497   1.085   0.844  0.0357 -0.5525  0.9350
    7CHTO   C59 2755   5.369   1.062   0.785  0.0838 -0.8110  0.8793
    7CHTO  H116 2756   5.360   1.084   0.678 -1.6985 -2.4359  0.6513
    7CHTO   C70 2757   5.349   0.913   0.803 -0.2647  0.5048 -0.1399
    7CHTO   O46 2758   5.457   0.834   0.753  0.0273  0.0477  0.3938
    7CHTO  H103 2759   5.537   0.854   0.796 -0.7833  0.5643  1.6944
    7CHTO   O39 2760   5.690   1.253   0.876 -0.1198  0.6533 -0.1400
    7CHTO   C60 2761   5.779   1.152   0.819  0.4705  0.2444 -1.1260
    7CHTO  H117 2762   5.720   1.066   0.786 -0.0172  0.8528 -1.8244
    7CHTO   C62 2763   5.859   1.216   0.700 -0.3320 -0.3800 -0.1371
    7CHTO  H119 2764   5.787   1.223   0.616 -0.4558 -0.2471 -0.0184
    7CHTO   O43 2765   5.927   1.344   0.727  0.4777 -0.3584 -0.1009
    7CHTO  H101 2766   5.976   1.368   0.651 -0.5574 -0.1099 -0.6882
    7CHTO   C66 2767   5.962   1.105   0.639 -0.4432 -0.0399 -0.2897
    7CHTO  H123 2768   5.905   1.019   0.605  0.5876 -1.0442  0.5154
    7CHTO   N12 2769   6.030   1.155   0.519  0.0590 -0.5266 -0.7930
    7CHTO  H110 2770   6.083   1.248   0.534 -0.1743 -0.7720  1.7063
    7CHTO  H111 2771   5.952   1.170   0.446 -0.9725  1.2715  0.6132
    7CHTO   C69 2772   6.055   1.073   0.752 -0.3183  0.0557 -1.0296
    7CHTO  H126 2773   6.102   1.169   0.783 -1.3859  0.6395 -1.2116
    7CHTO   O41 2774   5.988   1.008   0.878 -0.2016  0.1739  0.2646
    7CHTO   C64 2775   5.876   1.100   0.934 -0.5492  0.5550 -0.1624
    7CHTO  H121 2776   5.924   1.182   0.991  1.4835 -0.0609 -0.9520
    7CHTO   C71 2777   5.801   1.017   1.034 -0.1317  0.0566  0.4754
    7CHTO   O47 2778   5.884   0.933   1.116  0.5186 -0.6377  0.4195
    7CHTO  H104 2779   5.975   0.951   1.101  0.2149 -1.6535 -3.3599
    7CHTO   O34 2780   6.163   0.975   0.702 -0.1136  0.6054 -0.0357
    7CHTO   C49 2781   6.283   0.890   0.636 -0.3058  0.0799 -0.0202
    7CHTO   H91 2782   6.321   0.830   0.718 -1.5394  1.6511  1.7459
    7CHTO   C47 2783   6.396   0.991   0.599  0.0832  0.5394  0.3527
    7CHTO   H89 2784   6.441   1.007   0.699 -0.5810 -0.5177  0.8304
    7CHTO   O33 2785   6.346   1.121   0.558  0.4058  0.3368 -0.3985
    7CHTO   H70 2786   6.420   1.177   0.550  0.0558  1.1570  1.6422
    7CHTO   C45 2787   6.498   0.936   0.492 -0.1745  0.2887 -0.0218
    7CHTO   H87 2788   6.467   0.976   0.394 -0.8960 -1.4809 -0.5428
    7CHTO    N8 2789   6.636   0.986   0.522 -0.1017 -0.4945 -0.2963
    7CHTO   H75 2790   6.624   1.091   0.546 -1.8684 -0.8941  0.6436
    7CHTO   H76 2791   6.704   0.972   0.440  1.6409 -1.1620  1.2116
    7CHTO   C43 2792   6.483   0.779   0.472  0.2271 -0.5145 -0.1246
    7CHTO   H85 2793   6.548   0.745   0.390  0.3193 -2.1531  0.6083
    7CHTO   O29 2794   6.344   0.739   0.455 -0.4631  0.7469  0.5079
    7CHTO   C50 2795   6.238   0.809   0.518  0.5905  0.3160 -0.5344
    7CHTO   H92 2796   6.189   0.871   0.442 -1.3783 -0.3996  0.1166
    7CHTO   C54 2797   6.130   0.710   0.568 -0.8065 -0.4083 -0.1159
    7CHTO   O36 2798   6.072   0.634   0.465  0.7242 -0.2289 -0.3575
    7CHTO   H72 2799   5.979   0.626   0.466  0.5340  1.6492  0.5475
    7CHTO   O27 2800   6.527   0.704   0.587 -0.1854 -0.3335 -0.9015
    7CHTO   C37 2801   6.582   0.579   0.629  0.1458  0.5892  0.0603
    7CHTO   H79 2802   6.601   0.585   0.737  3.3114  0.2612 -0.4301
    7CHTO   C38 2803   6.490   0.462   0.594  0.5284  0.3809 -0.8412
    7CHTO   H80 2804   6.468   0.467   0.487 -0.2921 -0.3496 -0.7110
    7CHTO   O31 2805   6.373   0.490   0.673 -0.9384  0.1941 -0.4168
    7CHTO   H68 2806   6.322   0.411   0.675  0.0371 -0.4800 -1.7660
    7CHTO   C39 2807   6.557   0.318   0.625 -0.0731  0.1719 -0.5647
    7CHTO   H81 2808   6.591   0.312   0.729 -1.8707 -1.1575 -0.0364
    7CHTO    N7 2809   6.463   0.205   0.597  0.9825 -0.4011 -0.1864
    7CHTO   H73 2810   6.369   0.239   0.555  0.1188 -0.1048  1.9129
    7CHTO   H74 2811   6.446   0.140   0.682  2.5442  2.4624  2.4534
    7CHTO   C40 2812   6.693   0.307   0.540  0.0957 -0.4046  0.3844
    7CHTO   H82 2813   6.667   0.301   0.435 -0.0567  0.9911  0.3366
    7CHTO   O26 2814   6.777   0.416   0.563  0.2027 -0.1752  0.1478
    7CHTO   C41 2815   6.722   0.547   0.546  0.3114 -0.0740 -0.1085
    7CHTO   H83 2816   6.711   0.561   0.437  1.2713 -0.7163 -0.2986
    7CHTO   C52 2817   6.838   0.641   0.588  0.7520  0.1743  0.4090
    7CHTO   O35 2818   6.870   0.631   0.743  0.6417 -0.5029 -0.5486
    7CHTO   H71 2819   6.882   0.542   0.770 -0.5128 -0.7022 -0.6440
    7CHTO   O28 2820   6.775   0.191   0.569  0.0004  0.2337  0.2852
    7CHTO   C42 2821   6.877   0.119   0.483 -0.6718  1.3502  0.3717
    7CHTO   H84 2822   6.922   0.039   0.541  0.7282  0.6240 -1.6787
    7CHTO   C44 2823   6.989   0.215   0.442 -0.3421  0.3447  0.0320
    7CHTO   H86 2824   6.949   0.300   0.388 -1.0798 -0.7702 -1.1974
    7CHTO   O32 2825   7.059   0.246   0.562 -0.1815  0.0387 -0.2384
    7CHTO   H69 2826   7.108   0.325   0.546  0.9537 -0.8057 -1.0596
    7CHTO   C48 2827   7.085   0.149   0.343 -0.3579  0.3607 -0.3983
    7CHTO   H90 2828   7.143   0.071   0.392 -1.0385 -0.0446 -0.2314
    7CHTO    N9 2829   7.188   0.242   0.286  0.3462  0.1856 -0.5148
    7CHTO   H77 2830   7.262   0.184   0.233  0.6150  0.3134 -0.2791
    7CHTO   H78 2831   7.154   0.313   0.213  0.8415  0.9382 -0.0253
    7CHTO   C51 2832   6.990   0.096   0.224 -1.3160  0.0871 -0.7222
    7CHTO   H93 2833   6.933   0.178   0.180 -0.0951  1.6117  0.4548
    7CHTO   O30 2834   6.908  -0.012   0.272 -0.5493  0.3587 -0.7782
    7CHTO   C46 2835   6.799   0.052   0.368  0.7611 -0.2426 -0.2295
    7CHTO   H88 2836   6.743   0.122   0.306 -2.3495 -1.3858  1.1443
    7CHTO   C53 2837   6.702  -0.063   0.423  0.2533 -0.6692 -0.3085
    7CHTO   O72 2838   6.619  -0.120   0.322 -0.1816  0.8399  0.3716
    7CHTO  H199 2839   6.563  -0.190   0.350  0.8537  0.1985  0.8488
    7CHTO   O22 2840   7.071   0.035   0.119  0.1007  0.3341 -0.2296
    7CHTO   C31 2841   7.034   0.046  -0.027  0.7092 -0.1802  0.3648
    7CHTO   H59 2842   7.123   0.021  -0.088 -0.1329  0.5787 -1.2023
    7CHTO   C29 2843   6.919  -0.054  -0.062 -0.2281  0.2755 -0.6125
    7CHTO   H57 2844   6.838  -0.026   0.007  0.2638 -2.1161  1.0100
    7CHTO   O21 2845   6.959  -0.188  -0.030 -0.1298 -0.0886  0.0931
    7CHTO   H37 2846   6.890  -0.237   0.011  0.1143 -2.4558 -2.2038
    7CHTO   C27 2847   6.878  -0.044  -0.211  0.1825  0.0055  0.1164
    7CHTO   H55 2848   6.964  -0.074  -0.272  0.0745 -0.2729  0.1025
    7CHTO    N5 2849   6.753  -0.122  -0.245  0.1653 -0.7788 -0.1640
    7CHTO   H43 2850   6.679  -0.103  -0.169  0.3838  2.2068 -0.6462
    7CHTO   H44 2851   6.787  -0.221  -0.274  2.4517  0.2030 -0.9030
    7CHTO   C25 2852   6.851   0.101  -0.248  0.2970 -0.1356 -0.4914
    7CHTO   H53 2853   6.763   0.128  -0.187 -1.1411 -0.7520 -2.2472
    7CHTO   O17 2854   6.961   0.182  -0.217  0.0510  0.8977  0.5097
    7CHTO   C32 2855   6.998   0.195  -0.075  0.0379 -0.2191 -0.1586
    7CHTO   H60 2856   6.920   0.236  -0.011  1.3525  1.7278  0.2400
    7CHTO   C36 2857   7.118   0.296  -0.061 -0.5352 -0.4762 -0.7797
    7CHTO   O25 2858   7.214   0.275  -0.159 -0.4133  0.0670  0.1948
    7CHTO   H40 2859   7.280   0.341  -0.153 -0.8853  0.4711  1.0741
    7CHTO   O15 2860   6.814   0.120  -0.412  0.5397  0.3328 -0.7946
    7CHTO   C19 2861   6.796   0.242  -0.482 -0.3683 -0.5469 -0.0515
    7CHTO   H47 2862   6.751   0.208  -0.577  0.5304 -0.4021 -0.5386
    7CHTO   C20 2863   6.705   0.349  -0.414 -0.7001  0.6051  0.0089
    7CHTO   H48 2864   6.741   0.376  -0.314 -2.7152 -2.4156  1.6184
    7CHTO   O19 2865   6.575   0.293  -0.396  0.7082  0.2645 -0.1693
    7CHTO   H35 2866   6.545   0.237  -0.465 -3.3251  0.6754  1.0909
    7CHTO   C21 2867   6.695   0.485  -0.493 -0.3064 -0.1800 -0.0804
    7CHTO   H49 2868   6.643   0.464  -0.587 -1.6702 -0.3865  0.7159
    7CHTO    N4 2869   6.621   0.593  -0.425  0.5136 -0.3479  0.3816
    7CHTO   H41 2870   6.637   0.688  -0.474  0.4260 -0.1551  0.7191
    7CHTO   H42 2871   6.655   0.607  -0.324  0.3396  1.1391  0.2430
    7CHTO   C22 2872   6.840   0.528  -0.528 -0.0777  0.0863  0.3237
    7CHTO   H50 2873   6.890   0.555  -0.434 -0.5605  1.2169  0.2715
    7CHTO   O14 2874   6.906   0.423  -0.600  0.0047 -0.5281 -0.2154
    7CHTO   C23 2875   6.936   0.306  -0.517 -0.3187 -0.1836 -0.0148
    7CHTO   H51 2876   6.987   0.347  -0.428 -0.3877 -1.2084  0.5042
    7CHTO   C34 2877   7.032   0.217  -0.603 -0.5083 -0.4938 -0.5812
    7CHTO   O23 2878   7.067   0.102  -0.533 -0.2647  0.2579  0.1347
    7CHTO   H38 2879   7.145   0.073  -0.576 -1.1787  0.7008 -1.8787
    7CHTO   O16 2880   6.852   0.638  -0.614  0.4319 -0.0451  0.1322
    7CHTO   C24 2881   6.880   0.797  -0.551 -0.5443  0.0806  0.1537
    7CHTO   H52 2882   6.848   0.811  -0.448  1.3214 -1.3171  0.9448
    7CHTO   C26 2883   6.796   0.895  -0.641 -0.0580  0.6826  0.2540
    7CHTO   H54 2884   6.839   0.892  -0.743 -2.1129  0.1803 -0.6223
    7CHTO   O20 2885   6.659   0.841  -0.647 -0.8957 -0.1852  0.3350
    7CHTO   H36 2886   6.621   0.871  -0.727  0.2845 -0.1998 -0.2358
    7CHTO   C30 2887   6.799   1.037  -0.575 -0.5907 -0.1134 -0.0006
    7CHTO   H58 2888   6.761   1.021  -0.473  1.5106  0.5220  0.9076
    7CHTO    N6 2889   6.714   1.137  -0.646 -0.3152  0.4835 -0.0380
    7CHTO   H45 2890   6.616   1.095  -0.658 -0.2558 -0.4073  2.2949
    7CHTO   H46 2891   6.709   1.229  -0.590  1.6020  0.6622 -0.1030
    7CHTO   C33 2892   6.950   1.087  -0.561 -0.0852  0.1906  0.7114
    7CHTO   H61 2893   7.000   1.100  -0.658  1.0792  1.5906  1.4884
    7CHTO   O18 2894   7.020   0.979  -0.498 -1.1828 -0.3523 -0.4622
    7CHTO   C28 2895   7.026   0.846  -0.557 -0.0811  0.2546  0.1560
    7CHTO   H56 2896   7.052   0.849  -0.663 -1.5552 -0.2296 -0.2299
    7CHTO   C35 2897   7.117   0.749  -0.473  0.0954 -0.1348  0.0232
    7CHTO   O24 2898   7.113   0.751  -0.331 -0.0998  0.0862 -0.3028
    7CHTO   H39 2899   7.202   0.746  -0.301  0.2546 -0.0921 -1.3372
    7CHTO    O9 2900   6.961   1.211  -0.481  0.4967  0.6332  0.1527
    7CHTO   C13 2901   7.017   1.338  -0.561  0.7269  0.4931  0.0750
    7CHTO   H26 2902   6.969   1.336  -0.661 -0.4374 -0.9169  0.6403
    7CHTO   C11 2903   7.170   1.351  -0.571  0.3839 -0.1947  0.7373
    7CHTO   H24 2904   7.216   1.265  -0.623  0.1674  0.5742 -0.7629
    7CHTO    O8 2905   7.223   1.352  -0.437 -0.2068 -0.0937  0.4381
    7CHTO    H3 2906   7.313   1.372  -0.424  0.6498 -2.1947 -1.7551
    7CHTO    C9 2907   7.193   1.477  -0.657  0.9030 -0.7442  0.6700
    7CHTO   H22 2908   7.126   1.462  -0.743 -1.6503  1.0849  2.2580
    7CHTO    N2 2909   7.334   1.489  -0.699 -0.1948  0.2034  0.3391
    7CHTO   H10 2910   7.369   1.406  -0.758  1.6416  1.1379  0.1041
    7CHTO   H11 2911   7.353   1.580  -0.754  0.2800 -0.7579 -1.1234
    7CHTO    C7 2912   7.136   1.608  -0.587  0.3697  0.9344 -0.5753
    7CHTO   H20 2913   7.148   1.687  -0.664  0.5633 -1.1044 -2.7016
    7CHTO    O4 2914   6.997   1.590  -0.553 -0.0045 -0.0398 -0.5407
    7CHTO   C14 2915   6.939   1.471  -0.502  0.7181 -0.1804 -0.2180
    7CHTO   H27 2916   6.836   1.478  -0.543  1.1688 -1.1707 -1.5429
    7CHTO   C18 2917   6.914   1.474  -0.345 -0.2055  0.1110  0.0433
    7CHTO   O13 2918   7.041   1.476  -0.286  0.4387  0.3299 -0.7216
    7CHTO    H7 2919   7.078   1.389  -0.283  0.6075  0.4514  0.9797
    7CHTO    O2 2920   7.228   1.644  -0.444  1.0633 -0.4675 -0.5366
    7CHTO    C1 2921   7.276   1.782  -0.431  0.2371  1.1301  0.4997
    7CHTO   H14 2922   7.223   1.853  -0.497 -0.0343  0.9893  0.5634
    7CHTO    C2 2923   7.433   1.800  -0.461 -0.4959 -0.0622  0.0541
    7CHTO   H15 2924   7.485   1.731  -0.394  0.3930 -0.7990 -1.3822
    7CHTO    O6 2925   7.464   1.769  -0.602  0.1126  0.1108  0.4677
    7CHTO    H1 2926   7.453   1.679  -0.626  1.0240 -0.3373  1.6746
    7CHTO    C3 2927   7.476   1.949  -0.426  0.0755 -0.2058 -0.3448
    7CHTO   H16 2928   7.422   2.017  -0.494 -0.5478 -0.0513  0.2877
    7CHTO    N1 2929   7.629   1.975  -0.459 -0.3505 -0.1912  0.6004
    7CHTO    H8 2930   7.647   2.080  -0.441 -0.1556  0.4323 -2.8557
    7CHTO    H9 2931   7.700   1.931  -0.391  0.6922  2.2418  1.1590
    7CHTO    C4 2932   7.430   2.001  -0.284 -0.4121  0.1431  0.2358
    7CHTO   H17 2933   7.488   1.948  -0.208  3.0610  4.0125  0.4413
    7CHTO    O1 2934   7.287   1.971  -0.268  0.0142  0.3239  0.1939
    7CHTO    C5 2935   7.246   1.834  -0.287  0.9196  0.0893 -0.2873
    7CHTO   H18 2936   7.295   1.774  -0.211 -0.1542  0.8957  1.0655
    7CHTO   C16 2937   7.095   1.822  -0.259  0.0936 -0.7436  0.9110
    7CHTO   O11 2938   7.017   1.918  -0.331  0.4465 -0.4920  0.1324
    7CHTO    H5 2939   6.931   1.925  -0.296  0.2660  0.4747 -0.4874
    7CHTO    O3 2940   7.447   2.142  -0.265 -0.0973  0.2395 -0.0688
    7CHTO    C6 2941   7.519   2.183  -0.134  0.3284 -0.3908  0.0984
    7CHTO   H19 2942   7.578   2.107  -0.084  1.6422 -0.0883 -0.9516
    7CHTO    C8 2943   7.631   2.291  -0.178  0.1404 -0.1926  0.3170
    7CHTO   H21 2944   7.581   2.371  -0.233 -0.6527  0.8957  2.5821
    7CHTO    O7 2945   7.715   2.216  -0.266  0.3533 -0.4601 -0.8733
    7CHTO    H2 2946   7.737   2.131  -0.232 -0.6393 -0.2570  0.2744
    7CHTO   C12 2947   7.705   2.346  -0.049  0.4009  0.0929 -0.7433
    7CHTO   H25 2948   7.766   2.268   0.000 -0.4442  0.4127  0.8503
    7CHTO    N3 2949   7.796   2.455  -0.085  0.5266 -0.2437 -0.0785
    7CHTO   H12 2950   7.770   2.510  -0.175  0.5477  1.2730  0.8174
    7CHTO   H13 2951   7.888   2.403  -0.107  1.1473  1.4083 -1.4945
    7CHTO   C15 2952   7.594   2.398   0.050 -0.3541 -0.0894  0.4647
    7CHTO   H28 2953   7.536   2.477   0.001  1.2547 -0.2603 -1.8321
    7CHTO   O10 2954   7.640   2.444   0.176 -0.2410 -0.2828 -0.6372
    7CHTO    H4 2955   7.699   2.387   0.222  0.5327  0.9744 -0.0446
    7CHTO    O5 2956   7.509   2.287   0.084  0.1232 -0.0289  0.0744
    7CHTO   C10 2957   7.423   2.239  -0.027 -0.0585 -0.1282 -0.2497
    7CHTO   H23 2958   7.368   2.324  -0.068 -0.2584  0.1635  0.5948
    7CHTO   C17 2959   7.325   2.135   0.029  0.0969  0.3025 -0.3790
    7CHTO   O12 2960   7.242   2.193   0.132 -0.5425  0.6678  0.1684
    7CHTO    H6 2961   7.217   2.125   0.191  1.2124  1.6028  2.0662
    8CHTO  H203 2962   7.481   8.626   1.669 -0.0138  0.8516  0.2649
    8CHTO   O82 2963   7.390   8.639   1.650 -0.0840 -0.2729 -0.2580
    8CHTO  C123 2964   7.304   8.549   1.713  0.0927  0.5735 -0.5988
    8CHTO  H227 2965   7.362   8.479   1.775  0.0468  0.3261 -0.8331
    8CHTO   O77 2966   7.232   8.641   1.793 -0.0063  0.4908 -0.2370
    8CHTO  C118 2967   7.121   8.587   1.871  0.0332 -0.3864  0.3321
    8CHTO  H222 2968   7.160   8.531   1.957 -0.5611  0.8367  1.4232
    8CHTO  C125 2969   7.050   8.714   1.926  0.1070 -0.1911 -0.1382
    8CHTO   O84 2970   6.955   8.684   2.028  0.5162  0.4735  0.1006
    8CHTO  H205 2971   6.955   8.754   2.091  1.5006  1.0767 -0.5540
    8CHTO  C114 2972   7.018   8.502   1.790 -0.2831  0.0259 -0.0256
    8CHTO  H218 2973   6.966   8.566   1.718 -0.8863  0.6068  0.9147
    8CHTO  C116 2974   7.089   8.395   1.698  0.1288 -0.1009 -0.2656
    8CHTO  H220 2975   7.126   8.313   1.763 -2.1367 -0.1730  0.9937
    8CHTO   O79 2976   6.987   8.346   1.611  0.0889  0.1634 -0.1507
    8CHTO  H201 2977   6.972   8.396   1.533 -0.8048  0.0467 -0.0584
    8CHTO  C120 2978   7.203   8.467   1.621  0.3431  0.4699  0.3169
    8CHTO  H224 2979   7.157   8.536   1.547  1.4842  0.4136 -0.4596
    8CHTO   N21 2980   7.274   8.362   1.538 -0.0107 -0.5761 -0.1959
    8CHTO  H211 2981   7.206   8.291   1.494 -0.3518 -0.6785  0.4849
    8CHTO  H212 2982   7.346   8.317   1.605  1.0726 -0.2690 -1.1433
    8CHTO   O75 2983   6.929   8.442   1.888  0.3363  0.6030  0.4643
    8CHTO  C112 2984   6.795   8.415   1.826  0.1742 -0.2938 -0.4337
    8CHTO  H216 2985   6.798   8.351   1.736  2.0361 -0.5817 -0.1926
    8CHTO   O73 2986   6.734   8.545   1.799 -0.3983 -0.1565  0.5123
    8CHTO  C113 2987   6.603   8.529   1.743  0.9441 -0.2459  0.9592
    8CHTO  H217 2988   6.608   8.480   1.643 -1.8475  0.3618  0.4652
    8CHTO  C124 2989   6.557   8.672   1.709 -0.1300 -0.1229 -0.0673
    8CHTO   O83 2990   6.579   8.758   1.822  0.3844  0.3987 -0.3264
    8CHTO  H204 2991   6.599   8.847   1.799 -1.0786  1.9724  4.0542
    8CHTO  C109 2992   6.503   8.469   1.846 -0.0135 -0.0567 -0.6057
    8CHTO  H213 2993   6.496   8.534   1.934 -0.2867  0.7780 -1.2437
    8CHTO  C110 2994   6.554   8.322   1.877  0.1088 -0.0580  0.3381
    8CHTO  H214 2995   6.547   8.256   1.790 -0.4316  0.4417  0.0066
    8CHTO   O78 2996   6.465   8.268   1.978 -0.0201 -0.0606 -0.0116
    8CHTO  H200 2997   6.501   8.269   2.065 -0.1990  1.9553  0.0615
    8CHTO  C111 2998   6.705   8.338   1.927  0.5586  0.3733 -0.2082
    8CHTO  H215 2999   6.706   8.400   2.018  1.0121  0.1949 -0.0902
    8CHTO   N19 3000   6.768   8.208   1.962  0.5201 -0.3574  0.1625
    8CHTO  H207 3001   6.847   8.243   2.028  0.4056  2.1309 -0.9529
    8CHTO  H208 3002   6.805   8.177   1.865 -0.2856  2.5370 -1.1293
    8CHTO   O74 3003   6.373   8.453   1.790 -0.6313  0.2318 -0.5366
    8CHTO  C115 3004   6.236   8.529   1.847  0.2106 -0.7115 -0.2627
    8CHTO  H219 3005   6.165   8.457   1.887  0.2851 -0.3079  0.6095
    8CHTO   O76 3006   6.271   8.619   1.971 -0.5515  0.2134 -0.1418
    8CHTO  C122 3007   6.167   8.705   2.022 -0.0443 -0.3422 -0.1628
    8CHTO  H226 3008   6.216   8.795   2.059 -0.0678 -0.9070  1.2602
    8CHTO  C126 3009   6.095   8.640   2.144 -0.0293 -0.5560  0.5452
    8CHTO   O85 3010   6.190   8.636   2.253  0.0206 -0.3608 -0.1942
    8CHTO  H206 3011   6.163   8.704   2.312 -1.1429  0.3823 -1.5388
    8CHTO  C121 3012   6.063   8.745   1.908  0.0666 -0.3044 -0.1097
    8CHTO  H225 3013   5.989   8.662   1.902 -2.0149  1.4094  0.7533
    8CHTO   O81 3014   5.993   8.864   1.947 -0.0572 -0.0420 -1.0691
    8CHTO  H202 3015   5.911   8.859   1.902 -1.4995 -1.5612  1.6162
    8CHTO  C119 3016   6.132   8.757   1.772  0.0980 -0.0946 -0.6140
    8CHTO  H223 3017   6.051   8.792   1.709 -0.0766  1.1470  0.2917
    8CHTO  C117 3018   6.183   8.613   1.725  0.3040  0.7380 -0.2140
    8CHTO  H221 3019   6.260   8.617   1.648  0.0387  1.9747 -0.4257
    8CHTO   N20 3020   6.075   8.533   1.666  0.6488  0.1939  0.3585
    8CHTO  H209 3021   6.068   8.436   1.714 -0.1499  0.5611  1.0176
    8CHTO  H210 3022   6.097   8.524   1.561  3.7684  0.5310  0.9552
    8CHTO   O80 3023   6.238   8.882   1.759 -0.2582 -0.2701  0.4762
    8CHTO  C103 3024   6.192   9.023   1.731 -0.2821 -0.0096  0.8822
    8CHTO  H190 3025   6.085   9.026   1.715 -0.5874  2.9039  2.9803
    8CHTO  C101 3026   6.223   9.142   1.837  0.6035 -0.2435  0.4748
    8CHTO  H188 3027   6.330   9.151   1.855  0.2338  0.9571  2.2586
    8CHTO   O68 3028   6.173   9.115   1.958 -0.4926 -0.1796 -0.5655
    8CHTO  H168 3029   6.198   9.036   2.002  1.2661  1.4441  1.4204
    8CHTO   C99 3030   6.168   9.276   1.779  0.7943 -0.7179 -0.0485
    8CHTO  H186 3031   6.058   9.270   1.767  0.5952  3.3852 -0.9527
    8CHTO   N17 3032   6.188   9.403   1.864 -0.5444  0.1753  0.2162
    8CHTO  H174 3033   6.170   9.375   1.967  0.9986  0.7425  0.6519
    8CHTO  H175 3034   6.285   9.451   1.865 -1.2367  1.5883  0.5490
    8CHTO   C97 3035   6.223   9.299   1.638  0.2897 -0.2709 -0.4178
    8CHTO  H184 3036   6.329   9.324   1.654  0.3127 -1.1848  0.9477
    8CHTO   O64 3037   6.199   9.188   1.553 -0.1365  0.9136 -0.9295
    8CHTO  C104 3038   6.258   9.058   1.594 -0.0322  0.0444  0.0118
    8CHTO  H191 3039   6.366   9.067   1.610  0.3440  0.8459 -2.7403
    8CHTO  C108 3040   6.241   8.948   1.489 -0.3887  0.0733 -0.2743
    8CHTO   O71 3041   6.316   8.973   1.364 -0.2767 -0.0640  0.3616
    8CHTO  H171 3042   6.288   9.049   1.317 -1.4170 -0.4434  0.4160
    8CHTO   O62 3043   6.149   9.398   1.567 -0.4948 -0.4094 -0.3439
    8CHTO   C91 3044   6.224   9.469   1.466  0.3014 -0.2551  0.0139
    8CHTO  H178 3045   6.310   9.411   1.432  1.1114  1.0304 -0.1329
    8CHTO   C92 3046   6.288   9.603   1.520  1.1353  0.1561  0.5430
    8CHTO  H179 3047   6.209   9.673   1.551  0.6278 -0.3423  0.3926
    8CHTO   O66 3048   6.372   9.569   1.632  0.0980 -0.7872 -0.0263
    8CHTO  H166 3049   6.406   9.649   1.668 -1.6882 -0.2261  0.4925
    8CHTO   C93 3050   6.375   9.674   1.416  0.1476  0.0228 -0.8404
    8CHTO  H180 3051   6.468   9.616   1.405 -0.2901 -0.8772  0.1871
    8CHTO   N16 3052   6.418   9.811   1.457 -0.3379 -0.4966  0.0895
    8CHTO  H172 3053   6.332   9.873   1.475  0.2080  0.4158 -0.4181
    8CHTO  H173 3054   6.475   9.803   1.548  2.8331  2.9454 -1.5122
    8CHTO   C94 3055   6.304   9.683   1.278  0.0471  0.8615  0.3453
    8CHTO  H181 3056   6.230   9.763   1.274 -0.4341  0.4051  0.0611
    8CHTO   O61 3057   6.241   9.560   1.230  0.1519  0.3160 -0.1014
    8CHTO   C95 3058   6.150   9.507   1.329  0.6822 -1.1745 -0.2268
    8CHTO  H182 3059   6.066   9.575   1.347  0.7422 -1.4261  1.0592
    8CHTO  C106 3060   6.073   9.384   1.277 -0.7285  0.2693  0.1501
    8CHTO   O69 3061   5.971   9.422   1.188 -0.1341 -0.3565  0.0082
    8CHTO  H169 3062   5.891   9.410   1.235 -0.7343  0.1465 -0.8650
    8CHTO   O63 3063   6.407   9.727   1.164 -0.3388 -0.3869  0.0908
    8CHTO   C96 3064   6.368   9.733   1.031  0.0560  0.2404  0.4396
    8CHTO  H183 3065   6.272   9.682   1.022  0.7578 -1.3002  1.4174
    8CHTO   C98 3066   6.465   9.660   0.928 -0.8126 -0.2660  0.5753
    8CHTO  H185 3067   6.567   9.700   0.939 -1.2065  0.7169  0.7250
    8CHTO   O67 3068   6.471   9.525   0.979  0.5000  0.1564  0.0904
    8CHTO  H167 3069   6.518   9.459   0.933 -1.1710 -1.2924  0.4042
    8CHTO  C102 3070   6.414   9.668   0.773  0.2201  0.0150  0.0459
    8CHTO  H189 3071   6.325   9.604   0.766  1.1262 -1.2046 -0.5347
    8CHTO   N18 3072   6.505   9.624   0.668 -0.2893  0.3297 -0.1048
    8CHTO  H176 3073   6.503   9.516   0.669  0.4469  0.3170  0.2060
    8CHTO  H177 3074   6.604   9.659   0.692 -0.0803  0.4002 -1.0226
    8CHTO  C105 3075   6.358   9.812   0.746 -0.5822 -0.4201 -0.1639
    8CHTO  H192 3076   6.440   9.877   0.715 -0.4782  0.5004  1.9571
    8CHTO   O65 3077   6.286   9.876   0.853  0.5010 -0.7343  0.0175
    8CHTO  C100 3078   6.345   9.885   0.980 -0.6837 -0.2165 -0.1123
    8CHTO  H187 3079   6.447   9.925   0.971 -1.0835  0.5638 -1.1416
    8CHTO  C107 3080   6.256   9.982   1.067 -0.2339  0.3398  0.1288
    8CHTO   O70 3081   6.134   9.903   1.077 -0.0668 -0.4371  0.1898
    8CHTO  H170 3082   6.066   9.939   1.024 -0.6871 -1.9277 -0.0581
    8CHTO   O57 3083   6.250   9.793   0.616  0.0087 -0.0235  0.2877
    8CHTO   C85 3084   6.210   9.912   0.541  0.2861  0.0165 -0.8539
    8CHTO  H157 3085   6.305   9.965   0.519  0.2823  0.4702  0.2105
    8CHTO   C83 3086   6.135  10.008   0.640  0.9701 -0.4568 -0.4489
    8CHTO  H155 3087   6.212  10.043   0.708 -0.7074  1.0837  0.7078
    8CHTO   O56 3088   6.029   9.941   0.707  0.8322  0.0598 -0.1764
    8CHTO  H135 3089   6.064   9.873   0.762  0.1447 -1.2210 -1.3005
    8CHTO   C81 3090   6.091  10.136   0.563 -0.6001  0.2340  0.3277
    8CHTO  H153 3091   6.182  10.173   0.515 -1.0017  1.7886  0.7465
    8CHTO   N14 3092   6.044  10.243   0.649  0.3307  0.3116 -0.1369
    8CHTO  H141 3093   6.089  10.258   0.745  0.4499 -0.1957 -0.1158
    8CHTO  H142 3094   5.938  10.257   0.654  0.4912  1.9731 -0.8798
    8CHTO   C79 3095   5.985  10.092   0.452  0.2067 -0.3885 -0.7448
    8CHTO  H151 3096   5.964  10.183   0.397  2.5874  1.1975  0.8872
    8CHTO   O52 3097   6.062  10.012   0.358 -0.2806  0.1569 -0.2649
    8CHTO   C86 3098   6.122   9.890   0.416 -0.2042  0.0506  0.2221
    8CHTO  H158 3099   6.032   9.834   0.448 -0.8271  1.1333  0.3854
    8CHTO   C90 3100   6.184   9.801   0.302 -0.0725  0.2846 -0.2615
    8CHTO   O60 3101   6.285   9.885   0.249  0.5985 -0.1623 -0.1796
    8CHTO  H138 3102   6.342   9.835   0.195  0.7887 -1.0328  0.8171
    8CHTO   O50 3103   5.866  10.027   0.500 -0.0130 -0.1362 -0.0585
    8CHTO   C73 3104   5.729  10.021   0.460  0.1728 -0.3410  0.4443
    8CHTO  H145 3105   5.713   9.964   0.368 -0.8466  0.6997 -0.0358
    8CHTO   C74 3106   5.668  10.168   0.444 -0.0993  0.3220 -0.7505
    8CHTO  H146 3107   5.732  10.220   0.371  0.6750 -0.0902 -0.3714
    8CHTO   O54 3108   5.532  10.157   0.399 -0.2709 -0.8296  0.1024
    8CHTO  H133 3109   5.514  10.091   0.334 -2.6158 -1.6599  1.5229
    8CHTO   C75 3110   5.678  10.236   0.589  0.2539  0.3926 -0.3462
    8CHTO  H147 3111   5.783  10.243   0.620  0.0289 -0.4669  0.6374
    8CHTO   N13 3112   5.626  10.371   0.596 -0.1244  0.1883  0.0882
    8CHTO  H139 3113   5.608  10.407   0.496  0.1398 -1.5518 -0.6065
    8CHTO  H140 3114   5.704  10.435   0.635  0.6682 -0.5477 -0.2552
    8CHTO   C76 3115   5.602  10.144   0.701 -0.1049  0.2788 -0.2408
    8CHTO  H148 3116   5.496  10.140   0.677 -0.4262 -0.2266  1.1862
    8CHTO   O49 3117   5.652  10.003   0.694 -0.1603 -0.0947 -0.7203
    8CHTO   C77 3118   5.648   9.945   0.566 -0.7239  0.3856  0.0904
    8CHTO  H149 3119   5.547   9.932   0.528 -1.2326 -1.2738  1.9622
    8CHTO   C88 3120   5.699   9.803   0.578  0.3312 -0.1387  0.5493
    8CHTO   O58 3121   5.664   9.706   0.460  0.4437 -0.4904  0.4611
    8CHTO  H136 3122   5.654   9.618   0.491 -0.4256 -0.4862  0.2051
    8CHTO   O51 3123   5.627  10.214   0.861  0.1313 -0.4649 -0.8455
    8CHTO   C78 3124   5.605  10.121   0.964  0.2948 -0.0021  0.3125
    8CHTO  H150 3125   5.618  10.023   0.913 -1.4238  0.3006 -0.7286
    8CHTO   C80 3126   5.465  10.133   1.015 -0.1404 -0.0433  0.0588
    8CHTO  H152 3127   5.443  10.242   1.023 -0.2247 -0.0087 -0.5509
    8CHTO   O55 3128   5.370  10.074   0.920 -0.1214  0.0416  0.1889
    8CHTO  H134 3129   5.357   9.982   0.933 -1.8608  0.1310 -0.8531
    8CHTO   C84 3130   5.445  10.058   1.162 -0.4912  0.0956  0.5364
    8CHTO  H156 3131   5.419   9.955   1.138 -1.5666  0.0476  1.8334
    8CHTO   N15 3132   5.320  10.102   1.235 -0.4143  0.5263  0.0049
    8CHTO  H143 3133   5.312  10.209   1.243 -0.3259  0.4550  1.0351
    8CHTO  H144 3134   5.304  10.058   1.331 -1.0268 -0.6079 -0.6083
    8CHTO   C87 3135   5.570  10.073   1.249 -0.0512 -0.2293 -0.2711
    8CHTO  H159 3136   5.575  10.179   1.274 -1.7152 -0.7434  2.4733
    8CHTO   O53 3137   5.684  10.044   1.172  0.1648 -0.1390  0.0449
    8CHTO   C82 3138   5.707  10.147   1.075 -0.4639 -0.3508 -0.1071
    8CHTO  H154 3139   5.703  10.247   1.119  0.2317  0.0867 -1.0174
    8CHTO   C89 3140   5.850  10.132   1.018 -0.1158  0.1530 -0.9276
    8CHTO   O59 3141   5.871  10.009   0.947  0.0899 -0.1873  0.1345
    8CHTO  H137 3142   5.941  10.014   0.885 -0.8115 -0.5057 -0.9466
    8CHTO   O45 3143   5.564   9.968   1.396  0.9578  0.3209 -0.0190
    8CHTO   C67 3144   5.593   9.829   1.374  0.0214  0.5875 -0.1524
    8CHTO  H124 3145   5.562   9.801   1.274 -0.0358  0.5382 -0.1206
    8CHTO   C65 3146   5.747   9.804   1.389 -0.0956  0.1625 -0.2174
    8CHTO  H122 3147   5.796   9.900   1.401  1.6872 -0.7684  0.2723
    8CHTO   O44 3148   5.805   9.736   1.277 -0.2088  0.3394  0.4590
    8CHTO  H102 3149   5.740   9.681   1.238 -0.8224  2.3668 -1.5020
    8CHTO   C63 3150   5.777   9.732   1.525 -0.8531  0.1437  0.2344
    8CHTO  H120 3151   5.744   9.793   1.609  0.7118 -0.2108  1.1450
    8CHTO   N11 3152   5.918   9.706   1.569  0.4940  0.5109 -0.5912
    8CHTO  H108 3153   5.925   9.689   1.674  2.7029  1.9397 -0.4724
    8CHTO  H109 3154   5.978   9.791   1.543  0.7141  0.1957 -1.1333
    8CHTO   C61 3155   5.685   9.598   1.525 -0.0999  0.7935 -0.6305
    8CHTO  H118 3156   5.688   9.549   1.623  0.6378 -0.7019 -1.3906
    8CHTO   O40 3157   5.542   9.612   1.481 -0.3761  0.8151 -0.3315
    8CHTO   C68 3158   5.500   9.752   1.475 -0.3324 -0.3588  1.0496
    8CHTO  H125 3159   5.512   9.803   1.573  0.2288  1.8495 -0.1424
    8CHTO   C72 3160   5.349   9.755   1.444  0.6011 -0.2667  0.6852
    8CHTO   O48 3161   5.305   9.660   1.349  0.6080 -0.1700  0.3012
    8CHTO  H105 3162   5.222   9.623   1.371 -0.5537  2.0690 -0.2820
    8CHTO   O38 3163   5.735   9.502   1.432 -0.3678  0.0491  0.5101
    8CHTO   C55 3164   5.681   9.371   1.463  0.1857  0.1041  0.4307
    8CHTO  H112 3165   5.590   9.389   1.521  1.3654 -0.6506  2.5585
    8CHTO   C56 3166   5.784   9.277   1.547 -0.3364 -0.5471  0.6252
    8CHTO  H113 3167   5.869   9.277   1.477 -0.4823 -1.5400  0.4418
    8CHTO   O42 3168   5.823   9.350   1.665 -0.6376 -0.1283  0.5826
    8CHTO  H100 3169   5.891   9.298   1.704 -0.8236 -0.2441  0.7573
    8CHTO   C57 3170   5.720   9.139   1.569 -0.0834  0.5086  0.2591
    8CHTO  H114 3171   5.640   9.160   1.640  0.3014  3.0835 -0.0139
    8CHTO   N10 3172   5.813   9.046   1.633  0.0074 -0.1812  0.1063
    8CHTO  H106 3173   5.873   9.100   1.704 -0.1681 -0.9666  0.8695
    8CHTO  H107 3174   5.772   8.958   1.681 -0.1395 -0.5532 -0.6898
    8CHTO   C58 3175   5.658   9.076   1.440 -0.5357  0.2630 -0.6396
    8CHTO  H115 3176   5.734   9.033   1.373  0.3664 -1.1840  1.2694
    8CHTO   O37 3177   5.582   9.176   1.368  0.2191 -0.4775 -0.5046
    8CHTO   C59 3178   5.638   9.302   1.328  0.2246 -0.0412  0.4671
    8CHTO  H116 3179   5.730   9.285   1.273  0.7078  1.1652  0.8746
    8CHTO   C70 3180   5.538   9.388   1.247  0.0442  1.0823  0.0322
    8CHTO   O46 3181   5.486   9.311   1.142  0.0046  0.2050 -0.0060
    8CHTO  H103 3182   5.543   9.307   1.068 -0.0214 -0.4054  0.0076
    8CHTO   O39 3183   5.551   8.956   1.480  0.3644 -0.0240 -0.3465
    8CHTO   C60 3184   5.425   8.993   1.543  0.9048 -0.5538  0.1857
    8CHTO  H117 3185   5.444   9.087   1.595  0.2388 -1.3113  1.8327
    8CHTO   C62 3186   5.301   9.020   1.444  0.0360 -0.3450  0.2661
    8CHTO  H119 3187   5.339   9.091   1.368 -1.1925  1.0474  0.9152
    8CHTO   O43 3188   5.278   8.905   1.364  0.1647 -0.2124  0.0881
    8CHTO  H101 3189   5.229   8.853   1.424  1.3579 -0.0196  1.2648
    8CHTO   C66 3190   5.169   9.071   1.528 -0.0365  0.5506 -0.1022
    8CHTO  H123 3191   5.196   9.165   1.576  2.2648 -0.1066 -0.0618
    8CHTO   N12 3192   5.057   9.106   1.443  0.7285 -0.2078 -0.0402
    8CHTO  H110 3193   5.088   9.109   1.339 -1.7553  4.2852 -0.7911
    8CHTO  H111 3194   4.993   9.189   1.469 -1.6345 -2.2577  0.8709
    8CHTO   C69 3195   5.144   8.962   1.636 -0.0741  0.1150 -0.2475
    8CHTO  H126 3196   5.114   8.870   1.581  0.2491  0.5810 -1.2211
    8CHTO   O41 3197   5.255   8.931   1.717  0.0304 -0.6021  0.2460
    8CHTO   C64 3198   5.383   8.886   1.653 -0.7297  0.9201 -0.6619
    8CHTO  H121 3199   5.368   8.785   1.609 -2.4298  0.8082  0.1430
    8CHTO   C71 3200   5.490   8.867   1.768  0.3095 -0.3159  0.1595
    8CHTO   O47 3201   5.589   8.775   1.722 -0.4820  0.3761  0.4460
    8CHTO  H104 3202   5.654   8.759   1.787 -0.2367  0.4081  0.2084
    8CHTO   O34 3203   5.021   8.994   1.728  0.4036  0.4696 -0.2021
    8CHTO   C49 3204   4.950   9.112   1.832  0.0176  0.1723  0.9095
    8CHTO   H91 3205   4.978   9.079   1.932  1.4126 -0.6441  0.2616
    8CHTO   C47 3206   4.801   9.092   1.815 -0.2358  0.1192  1.1877
    8CHTO   H89 3207   4.753   9.151   1.896 -1.8971 -0.4291  0.6210
    8CHTO   O33 3208   4.773   8.957   1.834 -0.0264 -0.2272 -0.2225
    8CHTO   H70 3209   4.681   8.942   1.827 -0.0487  0.2540 -1.0229
    8CHTO   C45 3210   4.760   9.151   1.671  0.8464  0.1237 -0.1306
    8CHTO   H87 3211   4.798   9.086   1.591  0.9371 -1.0151  0.8196
    8CHTO    N8 3212   4.609   9.146   1.667 -0.3618 -0.5313 -0.3479
    8CHTO   H75 3213   4.583   9.221   1.594 -1.5864 -2.6020 -2.1183
    8CHTO   H76 3214   4.557   9.165   1.760 -2.1384 -0.2548 -1.3771
    8CHTO   C43 3215   4.814   9.299   1.652 -0.0279 -0.4718 -0.5477
    8CHTO   H85 3216   4.790   9.309   1.546 -0.6168  0.6671 -0.3123
    8CHTO   O29 3217   4.959   9.314   1.677 -0.1084 -0.6787  0.4243
    8CHTO   C50 3218   4.995   9.255   1.804 -0.4008  0.5728 -0.4823
    8CHTO   H92 3219   5.104   9.253   1.818 -0.6156  0.4927  1.2812
    8CHTO   C54 3220   4.967   9.359   1.916 -0.0841  0.5596  0.4617
    8CHTO   O36 3221   5.031   9.341   2.045 -0.5894 -0.0307 -0.4345
    8CHTO   H72 3222   5.120   9.315   2.034 -0.6702 -0.3536 -0.3204
    8CHTO   O27 3223   4.731   9.399   1.720 -0.0153 -0.1534  0.2131
    8CHTO   C37 3224   4.697   9.537   1.696 -0.1287  0.0826  0.3486
    8CHTO   H79 3225   4.631   9.576   1.776 -0.8019  1.9247 -1.0707
    8CHTO   C38 3226   4.828   9.625   1.694  0.1238  0.7215  0.0829
    8CHTO   H80 3227   4.911   9.560   1.664 -0.1705  0.5554 -0.3626
    8CHTO   O31 3228   4.839   9.652   1.833 -0.0761  0.0742 -0.2761
    8CHTO   H68 3229   4.902   9.592   1.869  0.0314 -0.2645 -1.0305
    8CHTO   C39 3230   4.827   9.767   1.621  0.0258  0.9281 -0.3600
    8CHTO   H81 3231   4.786   9.840   1.690  0.4838  0.4686  0.4020
    8CHTO    N7 3232   4.971   9.798   1.582 -0.0747 -0.0967  0.9661
    8CHTO   H73 3233   5.031   9.813   1.671  0.5394  0.9710  0.3878
    8CHTO   H74 3234   5.017   9.713   1.533 -1.1301 -2.0089  3.1893
    8CHTO   C40 3235   4.729   9.760   1.495  0.0485 -0.1278 -0.0520
    8CHTO   H82 3236   4.778   9.713   1.410 -0.8620 -0.2771 -0.5030
    8CHTO   O26 3237   4.609   9.691   1.528 -0.0238 -0.1115 -0.6069
    8CHTO   C41 3238   4.623   9.548   1.560  0.7994 -0.2089  0.8135
    8CHTO   H83 3239   4.678   9.505   1.476 -1.8041  0.1664 -1.1393
    8CHTO   C52 3240   4.480   9.488   1.568 -0.0950 -0.5809  0.4754
    8CHTO   O35 3241   4.411   9.489   1.444 -0.5853 -0.4047  0.1599
    8CHTO   H71 3242   4.333   9.542   1.448 -0.5991 -0.4613  0.7825
    8CHTO   O28 3243   4.687   9.896   1.470  0.4767 -0.4169  0.0063
    8CHTO   C42 3244   4.651   9.962   1.345  0.4087  0.1353 -0.0874
    8CHTO   H84 3245   4.599  10.054   1.369 -1.3119 -1.1010  1.0633
    8CHTO   C44 3246   4.548   9.883   1.257  0.3028 -0.2158  0.0630
    8CHTO   H86 3247   4.592   9.791   1.219 -0.1769 -0.4187  0.0078
    8CHTO   O32 3248   4.437   9.857   1.342 -0.1655  0.1036  0.0294
    8CHTO   H69 3249   4.383   9.802   1.288  1.5027  1.9902 -3.7284
    8CHTO   C48 3250   4.509   9.965   1.133  0.4877 -0.3102 -0.3206
    8CHTO   H90 3251   4.461  10.059   1.160  0.4049 -0.0428 -1.3633
    8CHTO    N9 3252   4.397   9.893   1.053  0.0989 -0.0242 -0.1173
    8CHTO   H77 3253   4.301   9.889   1.103  0.8452  0.8000  1.4301
    8CHTO   H78 3254   4.433   9.799   1.014 -3.3319 -0.7627 -1.6474
    8CHTO   C51 3255   4.639   9.997   1.050  0.3131  0.4527  0.4054
    8CHTO   H93 3256   4.681   9.901   1.019 -0.8326 -0.3681  1.3412
    8CHTO   O30 3257   4.735  10.064   1.128 -0.3331 -0.2628  0.5368
    8CHTO   C46 3258   4.774  10.006   1.259 -0.2842 -0.7069 -0.4320
    8CHTO   H88 3259   4.840   9.922   1.234  0.8046 -0.5261  1.6935
    8CHTO   C53 3260   4.864  10.109   1.326  0.1208 -0.1629  0.0535
    8CHTO   O72 3261   4.801  10.218   1.389  0.2921  0.1575 -0.6366
    8CHTO  H199 3262   4.737  10.258   1.334  2.0293  1.1664 -1.9751
    8CHTO   O22 3263   4.615  10.091   0.940  0.6814 -0.1695  0.1209
    8CHTO   C31 3264   4.719  10.105   0.837 -1.0107  0.0084  0.0542
    8CHTO   H59 3265   4.680  10.180   0.765  0.1983  2.1832  1.6254
    8CHTO   C29 3266   4.860  10.155   0.883  0.4699  0.3250  0.0728
    8CHTO   H57 3267   4.893  10.076   0.953 -0.7116  2.5169  3.1950
    8CHTO   O21 3268   4.857  10.266   0.969  0.1552  0.2247  0.5997
    8CHTO   H37 3269   4.946  10.284   0.995 -0.2771  1.6110  1.1584
    8CHTO   C27 3270   4.953  10.169   0.757 -0.0128  0.1945  0.7300
    8CHTO   H55 3271   4.919  10.253   0.695  0.2182 -1.7862 -2.1494
    8CHTO    N5 3272   5.090  10.202   0.796  0.3428  0.1864 -0.6115
    8CHTO   H43 3273   5.148  10.218   0.706  1.3945  0.4998  0.1192
    8CHTO   H44 3274   5.082  10.293   0.853 -1.2459 -1.0860  1.2751
    8CHTO   C25 3275   4.952  10.039   0.674 -1.0824 -0.1109 -0.2332
    8CHTO   H53 3276   4.986   9.962   0.745 -2.0053  1.9098  2.5135
    8CHTO   O17 3277   4.822   9.994   0.637  0.3370  0.7229  0.1851
    8CHTO   C32 3278   4.744   9.970   0.751  0.2710  0.5799  0.0858
    8CHTO   H60 3279   4.801   9.898   0.810 -2.1139 -1.9014 -0.4808
    8CHTO   C36 3280   4.609   9.903   0.707 -0.4496 -0.3896 -0.0782
    8CHTO   O25 3281   4.532   9.976   0.605  0.1393  0.7399 -0.1006
    8CHTO   H40 3282   4.457   9.928   0.578 -0.2682  1.8524 -1.0041
    8CHTO   O15 3283   5.033  10.056   0.542 -0.1431 -0.3543  0.2332
    8CHTO   C19 3284   5.036   9.958   0.434 -0.4798  0.2546  0.2842
    8CHTO   H47 3285   4.959   9.884   0.461 -1.7938  2.0178  1.4238
    8CHTO   C20 3286   5.005  10.008   0.290  0.5473  0.1450  0.4561
    8CHTO   H48 3287   5.070  10.092   0.262  0.2985  0.4341  0.7394
    8CHTO   O19 3288   4.866  10.052   0.303  0.1666  0.0059 -0.0294
    8CHTO   H35 3289   4.850  10.110   0.232  0.9751  1.2416  0.7861
    8CHTO   C21 3290   5.001   9.888   0.189  0.4026 -0.2079 -0.2821
    8CHTO   H49 3291   4.921   9.821   0.222  1.3191 -0.7478  0.8494
    8CHTO    N4 3292   4.969   9.920   0.044 -0.5948 -0.5037 -0.8674
    8CHTO   H41 3293   4.977  10.024   0.016 -2.0473 -0.0169  0.4605
    8CHTO   H42 3294   4.876   9.877   0.011 -0.3407 -3.2312  1.7088
    8CHTO   C22 3295   5.139   9.817   0.200  0.1124 -0.1005  0.2073
    8CHTO   H50 3296   5.214   9.885   0.160 -0.9037  0.5146 -0.6757
    8CHTO   O14 3297   5.176   9.779   0.333  0.3333  0.0238 -0.4786
    8CHTO   C23 3298   5.175   9.881   0.436 -0.7098  0.6247  0.0587
    8CHTO   H51 3299   5.258   9.941   0.396 -1.6150  0.3352 -2.3280
    8CHTO   C34 3300   5.232   9.833   0.569  0.4287 -0.1683 -0.6673
    8CHTO   O23 3301   5.132   9.730   0.609 -0.3845  0.1432  0.0003
    8CHTO   H38 3302   5.135   9.722   0.703  0.3922 -1.1320 -0.1328
    8CHTO   O16 3303   5.135   9.695   0.129  0.0612  0.5917 -0.2817
    8CHTO   C24 3304   5.292   9.654   0.061  0.7178 -0.9964 -0.1567
    8CHTO   H52 3305   5.373   9.713   0.104  0.9314 -1.3300 -0.1055
    8CHTO   C26 3306   5.279   9.682  -0.094  0.2713  0.6165  0.2446
    8CHTO   H54 3307   5.194   9.620  -0.130  0.7945  0.3081 -0.4731
    8CHTO   O20 3308   5.253   9.819  -0.116 -0.6903  0.3005 -0.8511
    8CHTO   H36 3309   5.164   9.837  -0.094  0.3174  0.8054  3.4496
    8CHTO   C30 3310   5.407   9.623  -0.157  0.5821  0.3127 -0.0872
    8CHTO   H58 3311   5.487   9.685  -0.116  0.4366 -1.2028  2.6290
    8CHTO    N6 3312   5.405   9.633  -0.304 -0.3189 -0.1820 -0.6082
    8CHTO   H45 3313   5.449   9.545  -0.348  0.7216  0.1033 -0.1637
    8CHTO   H46 3314   5.458   9.720  -0.339 -0.1901  0.7382  1.7626
    8CHTO   C33 3315   5.435   9.475  -0.113 -0.2977 -0.2562 -0.0364
    8CHTO   H61 3316   5.351   9.414  -0.149  1.2003 -2.0622 -0.4857
    8CHTO   O18 3317   5.439   9.468   0.030  0.1858  0.3194 -0.2627
    8CHTO   C28 3318   5.319   9.507   0.099  0.4046 -0.7471  0.4228
    8CHTO   H56 3319   5.238   9.445   0.062  0.5118 -0.5211 -0.1945
    8CHTO   C35 3320   5.343   9.485   0.246 -0.1753 -0.5420 -0.9960
    8CHTO   O24 3321   5.377   9.349   0.270 -0.2483  0.1035  0.0326
    8CHTO   H39 3322   5.464   9.337   0.238  0.1675 -0.0567  1.1927
    8CHTO    O9 3323   5.554   9.419  -0.169  0.7299 -0.4512  0.1897
    8CHTO   C13 3324   5.526   9.273  -0.251 -0.3195 -0.3006 -0.3804
    8CHTO   H26 3325   5.444   9.289  -0.324  0.9730  3.0557 -1.1681
    8CHTO   C11 3326   5.491   9.156  -0.144  0.7378  0.1892  0.0777
    8CHTO   H24 3327   5.381   9.155  -0.131  0.5493  1.9986 -1.0893
    8CHTO    O8 3328   5.555   9.192  -0.018 -0.4403  0.2168  0.1996
    8CHTO    H3 3329   5.506   9.179   0.061  0.6157  0.3321  0.8821
    8CHTO    C9 3330   5.541   9.012  -0.187  0.0710  0.0012  1.0479
    8CHTO   H22 3331   5.489   8.987  -0.281  1.1921  0.3598  0.3308
    8CHTO    N2 3332   5.489   8.905  -0.098 -0.2781 -0.5295 -0.2696
    8CHTO   H10 3333   5.523   8.806  -0.126  1.5780  0.0891 -0.2358
    8CHTO   H11 3334   5.381   8.896  -0.097 -0.1790 -1.7037  0.2957
    8CHTO    C7 3335   5.698   9.017  -0.214 -0.0114 -0.2692  0.5723
    8CHTO   H20 3336   5.706   8.945  -0.298 -2.0593  1.1447 -0.8990
    8CHTO    O4 3337   5.742   9.151  -0.259  0.1839 -0.3051  0.1812
    8CHTO   C14 3338   5.653   9.226  -0.338  0.1661 -0.2119  0.3644
    8CHTO   H27 3339   5.632   9.171  -0.432  2.0109 -0.7433  0.2547
    8CHTO   C18 3340   5.731   9.349  -0.377 -0.0017 -0.5556 -0.1757
    8CHTO   O13 3341   5.657   9.438  -0.460  0.4816  0.7212  0.4918
    8CHTO    H7 3342   5.662   9.406  -0.549 -1.1481 -0.7178  0.8832
    8CHTO    O2 3343   5.781   8.975  -0.086 -0.7811  0.3842 -0.0058
    8CHTO    C1 3344   5.922   8.971  -0.088  0.0650  0.7885 -0.1479
    8CHTO   H14 3345   5.953   9.076  -0.108  4.5406  0.2451  3.2928
    8CHTO    C2 3346   5.993   8.875  -0.199  0.5086  0.3244 -0.0293
    8CHTO   H15 3347   5.938   8.780  -0.195  0.7484  0.1197 -1.3335
    8CHTO    O6 3348   5.992   8.936  -0.328 -0.1588 -0.4774 -0.4697
    8CHTO    H1 3349   6.021   8.873  -0.391 -1.0524 -0.3313 -1.0387
    8CHTO    C3 3350   6.151   8.842  -0.166 -0.2812  0.0392  0.2430
    8CHTO   H16 3351   6.210   8.936  -0.170 -1.7027  1.0047  1.4258
    8CHTO    N1 3352   6.210   8.739  -0.264 -0.0597  0.4937  0.0570
    8CHTO    H8 3353   6.298   8.779  -0.313  1.8740 -0.0299  2.9706
    8CHTO    H9 3354   6.140   8.684  -0.325 -0.8261  1.4740  0.0484
    8CHTO    C4 3355   6.163   8.799  -0.018  0.1762 -0.1010  0.4286
    8CHTO   H17 3356   6.105   8.707  -0.007  0.5567 -0.4279 -0.3088
    8CHTO    O1 3357   6.109   8.904   0.069 -0.2802 -0.2320 -0.3155
    8CHTO    C5 3358   5.968   8.925   0.056 -0.4808 -0.3128 -0.1582
    8CHTO   H18 3359   5.933   8.823   0.073  2.5233 -1.1355  1.3069
    8CHTO   C16 3360   5.910   9.019   0.162  0.5540 -0.0030  0.1501
    8CHTO   O11 3361   5.907   8.966   0.292 -0.1776  0.1250 -0.2387
    8CHTO    H5 3362   5.867   8.881   0.286  3.4155 -1.5371 -2.9214
    8CHTO    O3 3363   6.299   8.796   0.041  0.1936  0.3801  0.0599
    8CHTO    C6 3364   6.298   8.700   0.154 -0.8197  0.0017  0.0629
    8CHTO   H19 3365   6.201   8.680   0.198 -0.6496  2.0419  1.4553
    8CHTO    C8 3366   6.361   8.559   0.113 -0.0382 -0.0107  0.0205
    8CHTO   H21 3367   6.450   8.576   0.054 -0.0546 -0.6207 -0.1829
    8CHTO    O7 3368   6.268   8.497   0.028  0.2611  0.3130  0.3536
    8CHTO    H2 3369   6.267   8.545  -0.053 -0.0174  0.5419  0.4956
    8CHTO   C12 3370   6.372   8.470   0.242  0.2671  0.7042  0.2841
    8CHTO   H25 3371   6.272   8.467   0.290  0.1115 -3.4961 -0.1544
    8CHTO    N3 3372   6.415   8.328   0.211 -0.6681  0.4495 -0.2084
    8CHTO   H12 3373   6.340   8.294   0.140  2.8414 -3.7750 -2.1965
    8CHTO   H13 3374   6.426   8.261   0.295 -0.3066 -1.7468 -1.9263
    8CHTO   C15 3375   6.470   8.552   0.336  1.0284  0.4637  0.3423
    8CHTO   H28 3376   6.557   8.573   0.273 -0.8394 -0.1987 -2.5566
    8CHTO   O10 3377   6.507   8.485   0.466 -0.4630 -0.0693  0.2543
    8CHTO    H4 3378   6.595   8.510   0.488 -0.6822 -1.3102  2.7159
    8CHTO    O5 3379   6.401   8.674   0.377 -0.0407  0.3089  0.3469
    8CHTO   C10 3380   6.383   8.764   0.262 -0.1163 -0.1856  0.0907
    8CHTO   H23 3381   6.480   8.785   0.219 -0.1089 -0.8211 -0.2075
    8CHTO   C17 3382   6.310   8.882   0.322  0.8393  0.3343  0.2137
    8CHTO   O12 3383   6.171   8.873   0.343 -0.6010 -0.9581 -0.0071
    8CHTO    H6 3384   6.136   8.948   0.299 -0.2602 -1.0540 -0.4454
    9CHTO  H203 3385   7.955   4.163   0.898  0.1937  1.0547  2.5546
    9CHTO   O82 3386   8.010   4.105   0.947  0.8352 -0.5050  0.1195
    9CHTO  C123 3387   8.141   4.111   0.880  0.2772 -0.1861  0.0532
    9CHTO  H227 3388   8.198   4.184   0.939 -1.0412  2.5028 -1.9486
    9CHTO   O77 3389   8.191   3.973   0.897 -0.8221  0.2984 -0.2065
    9CHTO  C118 3390   8.319   3.945   0.843  0.1529 -0.6141 -0.6858
    9CHTO  H222 3391   8.389   4.014   0.893 -1.4960  0.8723 -0.3584
    9CHTO  C125 3392   8.361   3.799   0.884 -0.7287 -0.4790  0.3254
    9CHTO   O84 3393   8.353   3.792   1.034 -0.3939 -0.1417  0.3698
    9CHTO  H205 3394   8.426   3.840   1.068  0.9174 -1.2904 -0.7608
    9CHTO  C114 3395   8.324   3.960   0.693  0.5145 -0.1201 -0.6187
    9CHTO  H218 3396   8.254   3.890   0.648 -0.7300  1.2976 -0.9421
    9CHTO  C116 3397   8.284   4.111   0.659 -0.1299 -0.2120  0.1496
    9CHTO  H220 3398   8.360   4.189   0.682 -0.4347  0.9660 -2.5739
    9CHTO   O79 3399   8.276   4.128   0.518 -0.1280 -0.6590  0.0866
    9CHTO  H201 3400   8.255   4.053   0.465  0.2411 -0.7551  0.0722
    9CHTO  C120 3401   8.144   4.146   0.730  0.2923  0.3786 -0.5965
    9CHTO  H224 3402   8.060   4.094   0.680  0.4665 -0.6456  0.1606
    9CHTO   N21 3403   8.112   4.289   0.713  0.7139  0.0272 -0.4488
    9CHTO  H211 3404   8.161   4.349   0.789 -1.6081  2.9346 -1.1642
    9CHTO  H212 3405   8.148   4.324   0.617  0.8749  2.5480  0.4758
    9CHTO   O75 3406   8.452   3.912   0.656 -0.0404 -0.1549  0.5959
    9CHTO  C112 3407   8.459   3.847   0.481  0.2126  0.6155 -0.0919
    9CHTO  H216 3408   8.369   3.878   0.427  0.8605  1.2304 -0.8439
    9CHTO   O73 3409   8.471   3.706   0.483  0.3569 -0.2545  0.8557
    9CHTO  C113 3410   8.485   3.638   0.360 -0.6175 -0.3863  0.0211
    9CHTO  H217 3411   8.389   3.652   0.306  0.2902 -0.6881 -1.7209
    9CHTO  C124 3412   8.503   3.487   0.391  0.0912  0.5292  0.1145
    9CHTO   O83 3413   8.399   3.424   0.466 -0.2393 -0.0811  0.1622
    9CHTO  H204 3414   8.427   3.364   0.533 -2.3567 -0.8423  0.3951
    9CHTO  C109 3415   8.611   3.680   0.278  0.3752  0.3754 -0.3542
    9CHTO  H213 3416   8.699   3.636   0.327 -0.5980 -1.5372 -0.2866
    9CHTO  C110 3417   8.613   3.841   0.274 -0.6493 -0.3363 -0.4918
    9CHTO  H214 3418   8.532   3.870   0.207  0.3215  0.4449 -1.3449
    9CHTO   O78 3419   8.746   3.876   0.221  0.3061  0.4176 -0.7736
    9CHTO  H200 3420   8.818   3.861   0.279  0.9447 -1.0050 -1.9048
    9CHTO  C111 3421   8.590   3.903   0.416 -0.1395  0.2424 -0.2202
    9CHTO  H215 3422   8.679   3.877   0.475 -0.4624 -0.4667 -0.0380
    9CHTO   N19 3423   8.586   4.051   0.410 -0.3664 -0.3842 -0.3253
    9CHTO  H207 3424   8.688   4.085   0.404 -0.6947  0.2924 -3.1483
    9CHTO  H208 3425   8.537   4.071   0.504 -0.9552 -0.8788 -0.5225
    9CHTO   O74 3426   8.601   3.639   0.145 -1.0417 -0.0535 -0.2129
    9CHTO  C115 3427   8.718   3.568   0.088 -0.4613 -0.4021  0.2689
    9CHTO  H219 3428   8.813   3.606   0.127 -1.3727  1.3320  0.8637
    9CHTO   O76 3429   8.712   3.413   0.121 -0.3110  0.0418 -0.0910
    9CHTO  C122 3430   8.604   3.348   0.048  0.3450 -0.2391 -0.8658
    9CHTO  H226 3431   8.511   3.385   0.090  0.6583  0.4033 -0.7339
    9CHTO  C126 3432   8.612   3.189   0.080 -0.2389  0.5503 -1.0015
    9CHTO   O85 3433   8.497   3.108   0.032  0.0108 -0.0668 -0.3015
    9CHTO  H206 3434   8.498   3.093  -0.060  0.1608  0.2322 -0.3511
    9CHTO  C121 3435   8.609   3.373  -0.110 -0.5129  0.7837  0.0336
    9CHTO  H225 3436   8.700   3.328  -0.152 -0.2143  0.0271  1.4495
    9CHTO   O81 3437   8.492   3.318  -0.178  0.1661  0.1744  0.2239
    9CHTO  H202 3438   8.415   3.346  -0.133 -0.7257 -1.5751 -0.1401
    9CHTO  C119 3439   8.610   3.529  -0.133  0.1818  0.8205 -0.3168
    9CHTO  H223 3440   8.619   3.541  -0.241 -0.1251 -1.2642 -0.5913
    9CHTO  C117 3441   8.729   3.606  -0.065  0.6278  0.4588 -0.1274
    9CHTO  H221 3442   8.725   3.714  -0.073  1.4491  0.3149 -3.1554
    9CHTO   N20 3443   8.867   3.567  -0.125  0.1445  0.4002 -0.0927
    9CHTO  H209 3444   8.905   3.476  -0.081 -2.3059 -0.6124  0.0024
    9CHTO  H210 3445   8.934   3.651  -0.127  1.5757 -0.6976  0.4700
    9CHTO   O80 3446   8.465   3.608  -0.100 -0.0675 -0.2787 -0.3056
    9CHTO  C103 3447   8.389   3.718  -0.220  0.0444  0.3550  0.4287
    9CHTO  H190 3448   8.309   3.778  -0.176  0.2341  0.9350 -0.0095
    9CHTO  C101 3449   8.493   3.821  -0.289  0.0223 -0.6949 -0.5845
    9CHTO  H188 3450   8.570   3.770  -0.347  1.4169  0.3503  0.3002
    9CHTO   O68 3451   8.558   3.918  -0.168 -0.6726 -0.4563 -0.3228
    9CHTO  H168 3452   8.625   3.973  -0.205  1.4726 -1.9265  1.2347
    9CHTO   C99 3453   8.412   3.916  -0.392  0.3882  0.6422 -0.0885
    9CHTO  H186 3454   8.328   3.959  -0.334  0.1374  2.2931 -1.6522
    9CHTO   N17 3455   8.489   4.027  -0.457  0.0496 -0.3439 -0.2187
    9CHTO  H174 3456   8.453   4.044  -0.557 -1.7276 -1.9699  0.1226
    9CHTO  H175 3457   8.591   3.991  -0.467 -0.2104 -0.6015 -2.1397
    9CHTO   C97 3458   8.337   3.818  -0.494  0.2572  0.1471 -0.9627
    9CHTO  H184 3459   8.406   3.765  -0.561  1.2319  1.7012 -1.2224
    9CHTO   O64 3460   8.256   3.726  -0.420 -0.0186 -0.5002 -0.4762
    9CHTO  C104 3461   8.334   3.637  -0.340 -0.0286 -0.4770 -0.2809
    9CHTO  H191 3462   8.415   3.596  -0.399 -0.6238 -0.4339 -1.1357
    9CHTO  C108 3463   8.243   3.511  -0.311  0.1611  0.1578  0.5158
    9CHTO   O71 3464   8.140   3.540  -0.214 -0.7318 -0.1312  0.3907
    9CHTO  H171 3465   8.174   3.565  -0.130  1.5275  2.4214 -1.1802
    9CHTO   O62 3466   8.236   3.890  -0.567  0.3641 -0.3665 -0.0051
    9CHTO   C91 3467   8.236   3.861  -0.712 -0.5321  0.7404 -0.1093
    9CHTO  H178 3468   8.282   3.763  -0.718 -0.3494  0.8739 -0.9467
    9CHTO   C92 3469   8.318   3.967  -0.797 -0.3399 -0.1184  0.1197
    9CHTO  H179 3470   8.415   3.986  -0.748 -0.7508  0.7021  0.6220
    9CHTO   O66 3471   8.345   3.913  -0.930  0.1996 -0.2244  0.4404
    9CHTO  H166 3472   8.270   3.922  -0.985 -0.5016  0.3928  1.4807
    9CHTO   C93 3473   8.229   4.102  -0.811 -0.2955 -0.3593  0.0955
    9CHTO  H180 3474   8.262   4.142  -0.907  2.2785 -0.3579  0.9389
    9CHTO   N16 3475   8.262   4.204  -0.707  0.3979  0.3448 -0.4655
    9CHTO  H172 3476   8.289   4.295  -0.759 -0.2158  0.5594 -0.4095
    9CHTO  H173 3477   8.192   4.226  -0.628  1.0997 -1.3118  0.6451
    9CHTO   C94 3478   8.075   4.073  -0.811  0.4645 -0.0108  0.0160
    9CHTO  H181 3479   8.034   4.070  -0.711  0.5240  0.9415  0.0699
    9CHTO   O61 3480   8.053   3.944  -0.871 -0.3886  0.2072  0.1101
    9CHTO   C95 3481   8.094   3.848  -0.769 -0.1558  0.2468  0.1122
    9CHTO  H182 3482   8.021   3.850  -0.688 -0.2380  1.1742  0.0209
    9CHTO  C106 3483   8.064   3.712  -0.843  0.1351 -0.7312 -0.0964
    9CHTO   O69 3484   8.086   3.590  -0.769  0.5205  0.0401  0.3447
    9CHTO  H169 3485   8.045   3.597  -0.685  1.2629 -3.0840  1.0636
    9CHTO   O63 3486   7.992   4.192  -0.891  0.0993 -0.9426 -0.0127
    9CHTO   C96 3487   7.869   4.247  -0.798  0.0344  0.2965  0.7124
    9CHTO  H183 3488   7.913   4.241  -0.698  2.2267  2.7561 -0.0547
    9CHTO   C98 3489   7.733   4.181  -0.799  0.2867  0.3595  0.0481
    9CHTO  H185 3490   7.682   4.186  -0.896 -0.3368 -2.0050  0.2307
    9CHTO   O67 3491   7.739   4.039  -0.769  0.3922 -0.2347  0.2435
    9CHTO  H167 3492   7.654   4.003  -0.785  0.0704  0.7987 -0.4776
    9CHTO  C102 3493   7.636   4.245  -0.688  0.0312 -0.4780  0.4309
    9CHTO  H189 3494   7.690   4.222  -0.595  0.6537 -0.9371 -0.0402
    9CHTO   N18 3495   7.501   4.187  -0.675  0.1029  0.1773  0.0206
    9CHTO  H176 3496   7.489   4.139  -0.579  0.4383 -1.1848 -0.6072
    9CHTO  H177 3497   7.476   4.120  -0.756 -0.6136 -0.5011  0.7883
    9CHTO  C105 3498   7.632   4.397  -0.708 -0.7244  0.0595  0.5762
    9CHTO  H192 3499   7.583   4.419  -0.803 -1.3722 -1.4036  0.5682
    9CHTO   O65 3500   7.762   4.458  -0.716  0.5383 -0.0141 -0.0588
    9CHTO  C100 3501   7.846   4.399  -0.820 -0.4765  0.8051  0.0420
    9CHTO  H187 3502   7.804   4.411  -0.921  3.5497 -2.4928 -2.1757
    9CHTO  C107 3503   7.973   4.480  -0.821  0.1777 -0.9300  0.5163
    9CHTO   O70 3504   7.965   4.612  -0.870  0.2414 -0.4848 -0.5462
    9CHTO  H170 3505   7.918   4.612  -0.951 -0.1015  0.8926 -0.3573
    9CHTO   O57 3506   7.557   4.464  -0.580  0.4304  0.2066  0.6023
    9CHTO   C85 3507   7.509   4.596  -0.585  0.4844 -0.2922  0.2695
    9CHTO  H157 3508   7.502   4.626  -0.691  0.4986 -0.7277  0.1435
    9CHTO   C83 3509   7.612   4.688  -0.527  0.0197 -0.1904 -0.3805
    9CHTO  H155 3510   7.707   4.675  -0.579  0.5046 -0.9717  0.6757
    9CHTO   O56 3511   7.636   4.652  -0.388 -0.1223  0.2373 -0.0563
    9CHTO  H135 3512   7.728   4.637  -0.378 -0.4489 -0.8643  1.6082
    9CHTO   C81 3513   7.571   4.835  -0.538  0.6412 -0.2377 -0.2115
    9CHTO  H153 3514   7.564   4.857  -0.645  1.7768 -2.9941 -0.9113
    9CHTO   N14 3515   7.669   4.940  -0.496  0.3606  0.4923  0.0460
    9CHTO  H141 3516   7.766   4.934  -0.539  0.4489  2.4424 -0.0877
    9CHTO  H142 3517   7.680   4.969  -0.393  2.0616  2.3836 -0.6403
    9CHTO   C79 3518   7.431   4.850  -0.465 -0.2796 -0.3272  0.2331
    9CHTO  H151 3519   7.392   4.950  -0.480 -1.8638 -1.2975 -2.6118
    9CHTO   O52 3520   7.328   4.762  -0.516 -0.2035  0.5842 -0.5516
    9CHTO   C86 3521   7.375   4.626  -0.509  0.2438  0.2896  0.0995
    9CHTO  H158 3522   7.389   4.599  -0.402 -0.3675 -0.7170 -0.0692
    9CHTO   C90 3523   7.262   4.531  -0.561 -0.1068 -0.0038  0.2737
    9CHTO   O60 3524   7.154   4.560  -0.476 -0.1004  0.2494  0.4008
    9CHTO  H138 3525   7.099   4.625  -0.516 -1.2670 -1.2903 -0.5768
    9CHTO   O50 3526   7.434   4.833  -0.321 -0.0705  0.0741 -0.3512
    9CHTO   C73 3527   7.363   4.879  -0.208 -0.7500  0.0820 -0.7205
    9CHTO  H145 3528   7.256   4.861  -0.226 -1.1706  1.2800  0.5135
    9CHTO   C74 3529   7.386   5.030  -0.186 -0.2212 -0.1850  0.5950
    9CHTO  H146 3530   7.350   5.086  -0.274  0.1868  2.3724  1.9871
    9CHTO   O54 3531   7.291   5.074  -0.087 -0.1459 -0.1626  0.0921
    9CHTO  H133 3532   7.311   5.160  -0.054 -1.4864 -0.0346  0.5802
    9CHTO   C75 3533   7.537   5.060  -0.156  0.3131 -0.2711  1.1436
    9CHTO  H147 3534   7.588   5.052  -0.253 -1.1236 -1.0643  0.4457
    9CHTO   N13 3535   7.580   5.198  -0.127 -0.1261 -0.1008  0.1112
    9CHTO  H139 3536   7.518   5.225  -0.043 -1.2587 -0.7218 -0.5049
    9CHTO  H140 3537   7.686   5.198  -0.108 -0.2465 -0.4201  0.7776
    9CHTO   C76 3538   7.596   4.960  -0.050 -0.0308  0.2808 -1.0396
    9CHTO  H148 3539   7.561   4.989   0.049  2.6956 -0.3122  0.1418
    9CHTO   O49 3540   7.558   4.818  -0.072 -0.5160  0.0104  0.0474
    9CHTO   C77 3541   7.416   4.802  -0.085  0.3751  0.1567  0.4270
    9CHTO  H149 3542   7.366   4.836   0.005  0.2654  0.9133  0.0820
    9CHTO   C88 3543   7.387   4.649  -0.101 -0.2131 -0.1708 -0.1933
    9CHTO   O58 3544   7.245   4.622  -0.096 -0.3416 -0.4900  0.1239
    9CHTO  H136 3545   7.221   4.584  -0.179  0.8630  1.1546 -1.0067
    9CHTO   O51 3546   7.744   4.957  -0.070  0.1796  0.1043 -0.2326
    9CHTO   C78 3547   7.836   4.884   0.028  0.0177 -0.0451 -0.1586
    9CHTO  H150 3548   7.782   4.819   0.099 -1.7965  0.3620 -1.1381
    9CHTO   C80 3549   7.899   4.998   0.105 -0.3122 -0.2801 -0.3909
    9CHTO  H152 3550   7.944   5.071   0.036  1.8896  0.6482  1.9360
    9CHTO   O55 3551   7.801   5.070   0.183  0.3987  0.1518 -0.4753
    9CHTO  H134 3552   7.817   5.162   0.192 -0.3079  0.3133 -0.9005
    9CHTO   C84 3553   8.022   4.949   0.200  0.6391 -0.9617 -0.0524
    9CHTO  H156 3554   7.974   4.894   0.281 -1.8661  0.9521 -0.1945
    9CHTO   N15 3555   8.105   5.056   0.270 -0.1419  0.6115  0.3180
    9CHTO  H143 3556   8.208   5.054   0.240 -0.5088 -0.0293 -0.9132
    9CHTO  H144 3557   8.100   5.049   0.377  0.1656  1.3827  0.3831
    9CHTO   C87 3558   8.111   4.847   0.124  0.1556  0.5312 -0.6969
    9CHTO  H159 3559   8.184   4.897   0.060  0.1309  0.6330 -0.6466
    9CHTO   O53 3560   8.022   4.752   0.038  0.5557 -0.0924  0.3256
    9CHTO   C82 3561   7.937   4.811  -0.058 -0.1010 -0.5012  0.6592
    9CHTO  H154 3562   7.996   4.878  -0.122  0.5962 -1.5927  0.1501
    9CHTO   C89 3563   7.864   4.705  -0.148 -0.2302 -0.0753 -0.2609
    9CHTO   O59 3564   7.956   4.636  -0.233 -0.9759 -0.3129  0.1882
    9CHTO  H137 3565   8.014   4.583  -0.183 -0.6468  1.3822  1.6218
    9CHTO   O45 3566   8.191   4.755   0.236  0.0115  0.6977 -0.1014
    9CHTO   C67 3567   8.230   4.623   0.199 -0.5531  0.1172  0.0370
    9CHTO  H124 3568   8.162   4.589   0.121 -1.1622 -0.7034  0.9206
    9CHTO   C65 3569   8.382   4.625   0.149 -0.4931  0.0518 -0.3028
    9CHTO  H122 3570   8.436   4.712   0.187 -0.1234  0.4282 -1.6489
    9CHTO   O44 3571   8.377   4.627   0.009  0.4078 -0.3656  0.1598
    9CHTO  H102 3572   8.323   4.698  -0.019  1.4656  0.2511 -0.3428
    9CHTO   C63 3573   8.467   4.509   0.215 -0.7739  0.1095 -0.3634
    9CHTO  H120 3574   8.485   4.533   0.319 -1.9196  0.4339 -0.2334
    9CHTO   N11 3575   8.613   4.507   0.166  0.1167  0.1335  0.6912
    9CHTO  H108 3576   8.664   4.439   0.231 -2.6035 -2.5481  0.1532
    9CHTO  H109 3577   8.623   4.466   0.067  1.6623  2.3828 -0.1255
    9CHTO   C61 3578   8.380   4.380   0.213 -0.4856 -0.7102  0.4636
    9CHTO  H118 3579   8.435   4.303   0.268 -0.9453 -1.2376  0.1915
    9CHTO   O40 3580   8.255   4.400   0.292  0.5053  0.5785  0.1821
    9CHTO   C68 3581   8.211   4.530   0.315 -0.4982  0.2097 -0.3616
    9CHTO  H125 3582   8.266   4.566   0.404 -0.3270 -0.1708 -0.3120
    9CHTO   C72 3583   8.056   4.518   0.361  0.0234 -0.1616 -0.2002
    9CHTO   O48 3584   7.969   4.472   0.255 -0.3677  0.2876 -0.1190
    9CHTO  H105 3585   7.983   4.381   0.238  1.3064  0.0031  2.5751
    9CHTO   O38 3586   8.355   4.327   0.078  0.0796  0.3254  0.0524
    9CHTO   C55 3587   8.248   4.230   0.049 -0.4138 -0.2949  0.4329
    9CHTO  H112 3588   8.155   4.274   0.089 -0.3945  0.7812 -0.6785
    9CHTO   C56 3589   8.278   4.089   0.099 -0.6075  0.4128  0.2146
    9CHTO  H113 3590   8.367   4.052   0.047 -0.8282 -1.2527  0.9975
    9CHTO   O42 3591   8.307   4.097   0.237 -0.1637  0.2153  0.2819
    9CHTO  H100 3592   8.346   4.014   0.259 -0.8703  0.0110  0.7749
    9CHTO   C57 3593   8.150   3.998   0.072 -0.0560 -0.0401  0.7146
    9CHTO  H114 3594   8.076   4.042   0.139  0.2315  0.8590  0.4410
    9CHTO   N10 3595   8.162   3.855   0.111  0.4706 -0.1149 -0.3029
    9CHTO  H106 3596   8.066   3.814   0.139  0.6910 -1.0276 -0.8762
    9CHTO  H107 3597   8.231   3.843   0.194 -0.1737 -0.4012  0.1955
    9CHTO   C58 3598   8.104   4.014  -0.076  0.4779  0.1159 -0.4514
    9CHTO  H115 3599   8.171   3.951  -0.137  0.3177  1.0205 -1.5800
    9CHTO   O37 3600   8.104   4.147  -0.130  0.0562  0.1560 -0.1996
    9CHTO   C59 3601   8.226   4.223  -0.105  0.6289  0.2597  0.0649
    9CHTO  H116 3602   8.310   4.178  -0.158 -0.2036 -0.1424 -0.9131
    9CHTO   C70 3603   8.191   4.363  -0.160  0.8513  0.0965 -0.1855
    9CHTO   O46 3604   8.192   4.355  -0.304  0.0909  0.2605 -0.1375
    9CHTO  H103 3605   8.121   4.406  -0.336  0.5826  0.6396 -0.6193
    9CHTO   O39 3606   7.945   3.964  -0.086  0.0422  0.1992  0.2865
    9CHTO   C60 3607   7.915   3.828  -0.140 -0.0547 -0.2861 -0.1014
    9CHTO  H117 3608   8.005   3.766  -0.145  0.6597  0.8193 -1.0751
    9CHTO   C62 3609   7.815   3.766  -0.040  0.4664 -0.1353 -0.5899
    9CHTO  H119 3610   7.865   3.756   0.058  0.3096  1.3245 -0.3570
    9CHTO   O43 3611   7.697   3.856  -0.026 -0.1304 -0.3322  0.1055
    9CHTO  H101 3612   7.717   3.942   0.006 -0.7789  0.0262 -0.4361
    9CHTO   C66 3613   7.768   3.617  -0.087 -0.1476  0.4705  0.1839
    9CHTO  H123 3614   7.857   3.555  -0.097 -0.4813  0.1955 -1.1640
    9CHTO   N12 3615   7.673   3.552   0.008  0.4434  0.1285 -0.2885
    9CHTO  H110 3616   7.572   3.591   0.003  0.0104 -1.0477 -0.7909
    9CHTO  H111 3617   7.665   3.446  -0.011  0.8888  0.7399 -4.3372
    9CHTO   C69 3618   7.700   3.626  -0.226 -0.5024 -0.7607  0.1048
    9CHTO  H126 3619   7.611   3.692  -0.222 -0.3837 -0.5964  0.0347
    9CHTO   O41 3620   7.800   3.692  -0.330 -0.1055  0.2839 -0.6726
    9CHTO   C64 3621   7.851   3.830  -0.283 -0.3966  0.3508 -0.1443
    9CHTO  H121 3622   7.772   3.909  -0.280 -0.1030  0.6357  0.1667
    9CHTO   C71 3623   7.944   3.890  -0.393 -0.0715 -0.0616  0.2192
    9CHTO   O47 3624   7.885   3.950  -0.505 -0.3379 -0.2677  0.7152
    9CHTO  H104 3625   7.865   4.041  -0.494  1.0631 -0.1191  2.3552
    9CHTO   O34 3626   7.638   3.484  -0.287  0.2139  0.2936 -0.1120
    9CHTO   C49 3627   7.678   3.400  -0.400  0.2160 -0.1920  0.1328
    9CHTO   H91 3628   7.668   3.464  -0.487 -2.9243  0.5186  0.9700
    9CHTO   C47 3629   7.580   3.277  -0.394  0.0338 -0.6254 -0.1622
    9CHTO   H89 3630   7.611   3.231  -0.490 -2.0667 -1.9550 -0.2345
    9CHTO   O33 3631   7.442   3.315  -0.411 -0.6084  0.1398  0.1528
    9CHTO   H70 3632   7.417   3.401  -0.385  2.8827  0.8916  1.2121
    9CHTO   C45 3633   7.603   3.180  -0.263 -0.1426  0.1508  0.1313
    9CHTO   H87 3634   7.523   3.195  -0.190 -1.0335  0.1251 -0.8188
    9CHTO    N8 3635   7.592   3.041  -0.309 -0.1462  0.2996  0.6951
    9CHTO   H75 3636   7.496   2.996  -0.288 -1.8691  3.5346  0.0500
    9CHTO   H76 3637   7.678   2.982  -0.279 -0.0527  0.4774  0.7762
    9CHTO   C43 3638   7.752   3.210  -0.209 -0.2750 -0.0179  0.6285
    9CHTO   H85 3639   7.732   3.297  -0.146 -1.6262 -2.7891  4.1552
    9CHTO   O29 3640   7.847   3.234  -0.318  0.3890  0.4684  0.0214
    9CHTO   C50 3641   7.826   3.351  -0.398  0.2095  0.2206 -0.4415
    9CHTO   H92 3642   7.885   3.436  -0.361 -0.5595  0.5588  0.0040
    9CHTO   C54 3643   7.884   3.330  -0.537  0.0625  0.3299  0.0810
    9CHTO   O36 3644   8.029   3.336  -0.529  0.1847 -0.1697 -0.3194
    9CHTO   H72 3645   8.058   3.328  -0.618  1.4657 -1.7497  0.2362
    9CHTO   O27 3646   7.806   3.111  -0.118 -0.1788 -0.3701  0.4062
    9CHTO   C37 3647   7.894   3.124  -0.002 -0.4708 -0.3831  0.0475
    9CHTO   H79 3648   7.945   3.031   0.026  1.6884  1.0126  0.9129
    9CHTO   C38 3649   7.998   3.232  -0.027  0.3770 -0.6000 -0.1572
    9CHTO   H80 3650   7.944   3.320  -0.065  0.0007 -0.3244  0.9943
    9CHTO   O31 3651   8.086   3.178  -0.129  0.1562 -0.5494  0.4270
    9CHTO   H68 3652   8.156   3.240  -0.138 -0.0934 -0.1124  1.4475
    9CHTO   C39 3653   8.073   3.273   0.105  0.6746  0.7389  0.1696
    9CHTO   H81 3654   8.124   3.185   0.144  2.1693  1.5295  0.0369
    9CHTO    N7 3655   8.178   3.378   0.088 -0.1812 -0.4023  0.2515
    9CHTO   H73 3656   8.137   3.477   0.074  0.4478 -0.0992  0.5475
    9CHTO   H74 3657   8.228   3.362  -0.007 -1.4362  0.0884 -0.4958
    9CHTO   C40 3658   7.965   3.305   0.214  0.0629  0.3820  0.0063
    9CHTO   H82 3659   7.909   3.396   0.194  0.5044  0.2123 -2.1392
    9CHTO   O26 3660   7.877   3.191   0.235 -0.4603 -0.0168  0.6645
    9CHTO   C41 3661   7.806   3.160   0.116  0.1868  0.0121  0.3915
    9CHTO   H83 3662   7.748   3.245   0.075  0.9240 -0.0282 -0.7553
    9CHTO   C52 3663   7.709   3.043   0.139  0.5267 -0.4537 -0.0665
    9CHTO   O35 3664   7.606   3.032   0.039 -0.3397  0.1305  0.0984
    9CHTO   H71 3665   7.632   2.957  -0.012  0.6125  0.5225  0.0082
    9CHTO   O28 3666   8.026   3.339   0.343  0.0774 -0.0856 -0.3532
    9CHTO   C42 3667   7.963   3.428   0.434 -0.2243 -0.8700 -0.0869
    9CHTO   H84 3668   8.021   3.413   0.526  2.6460 -0.6459 -1.8105
    9CHTO   C44 3669   7.812   3.381   0.463 -0.1114 -0.2723 -0.2934
    9CHTO   H86 3670   7.769   3.346   0.369 -1.5178 -0.0063  0.2305
    9CHTO   O32 3671   7.827   3.256   0.537  1.0510  0.0458 -0.0682
    9CHTO   H69 3672   7.741   3.230   0.563  1.4636 -1.8129 -0.5492
    9CHTO   C48 3673   7.723   3.489   0.533  0.1200  0.8949  0.4017
    9CHTO   H90 3674   7.756   3.502   0.636  0.0444  0.4975  0.4780
    9CHTO    N9 3675   7.579   3.443   0.527 -0.2489  0.1904  0.2747
    9CHTO   H77 3676   7.575   3.348   0.578  0.5938 -0.7734 -1.4193
    9CHTO   H78 3677   7.504   3.510   0.567 -0.8018  0.1114 -0.6017
    9CHTO   C51 3678   7.752   3.627   0.462  0.6154 -0.0687 -0.7459
    9CHTO   H93 3679   7.726   3.619   0.357 -1.2510 -0.6492 -0.2572
    9CHTO   O30 3680   7.892   3.659   0.483  0.7914  0.3158  0.1587
    9CHTO   C46 3681   7.972   3.583   0.402 -0.1968  0.3108  0.3347
    9CHTO   H88 3682   7.944   3.588   0.297 -0.4057  0.2579  0.3875
    9CHTO   C53 3683   8.118   3.630   0.425 -0.4936 -0.0601  0.3494
    9CHTO   O72 3684   8.171   3.639   0.562 -0.0768  0.4457 -0.8732
    9CHTO  H199 3685   8.244   3.581   0.570 -1.9128 -1.7496  0.8270
    9CHTO   O22 3686   7.687   3.734   0.532  0.1290 -0.7278 -0.2775
    9CHTO   C31 3687   7.688   3.868   0.471  0.3637  0.7872 -0.6038
    9CHTO   H59 3688   7.619   3.931   0.531 -0.8191 -0.0122 -1.0957
    9CHTO   C29 3689   7.823   3.942   0.471 -0.0313  0.4200 -0.2560
    9CHTO   H57 3690   7.897   3.886   0.412  0.1677  0.2686  0.1388
    9CHTO   O21 3691   7.879   3.938   0.605 -0.5640  0.0286  0.2982
    9CHTO   H37 3692   7.850   4.008   0.660 -0.3459  0.1525  0.2536
    9CHTO   C27 3693   7.807   4.088   0.409  0.1774  0.0978  0.2344
    9CHTO   H55 3694   7.745   4.144   0.481 -0.9482  0.5733 -1.0835
    9CHTO    N5 3695   7.940   4.154   0.388  0.1405  0.2441 -0.2995
    9CHTO   H43 3696   7.987   4.172   0.484  0.1612 -0.3010 -0.2083
    9CHTO   H44 3697   7.999   4.101   0.315  0.1644 -1.0343  0.6225
    9CHTO   C25 3698   7.734   4.077   0.270 -0.3205  0.0713 -0.2636
    9CHTO   H53 3699   7.796   4.025   0.196  2.2907  0.4390  1.6027
    9CHTO   O17 3700   7.605   4.008   0.282 -0.3647 -0.1228  0.2003
    9CHTO   C32 3701   7.626   3.870   0.326  0.1672 -0.2395  0.3245
    9CHTO   H60 3702   7.697   3.820   0.260  1.7864  0.6579  1.3386
    9CHTO   C36 3703   7.489   3.791   0.317  0.5437  0.2767 -0.2236
    9CHTO   O25 3704   7.445   3.779   0.185  0.8502 -0.0362  0.4184
    9CHTO   H40 3705   7.508   3.724   0.143 -1.7235 -2.8167  0.0218
    9CHTO   O15 3706   7.719   4.227   0.205  0.5213  0.2580  0.7389
    9CHTO   C19 3707   7.651   4.272   0.091 -0.0631 -0.0343  0.5106
    9CHTO   H47 3708   7.665   4.379   0.112  3.2027 -0.2478 -0.2313
    9CHTO   C20 3709   7.718   4.233  -0.049 -0.2249 -0.2875  0.5324
    9CHTO   H48 3710   7.724   4.124  -0.063 -0.2064 -0.2276  0.0549
    9CHTO   O19 3711   7.850   4.299  -0.063 -0.1400  0.4703  0.0383
    9CHTO   H35 3712   7.890   4.288  -0.147  0.1521  0.2723  0.2026
    9CHTO   C21 3713   7.632   4.281  -0.171  0.3186  0.3459 -0.4639
    9CHTO   H49 3714   7.628   4.390  -0.173  0.1630  0.3422 -3.7021
    9CHTO    N4 3715   7.691   4.238  -0.302  0.4509 -0.1382  0.6166
    9CHTO   H41 3716   7.710   4.319  -0.371  0.4911  0.2176  1.0469
    9CHTO   H42 3717   7.617   4.171  -0.344 -0.4228  0.4060  1.2601
    9CHTO   C22 3718   7.484   4.238  -0.140 -0.9048 -0.2494  0.0887
    9CHTO   H50 3719   7.483   4.129  -0.130 -2.5760 -0.2456 -0.0071
    9CHTO   O14 3720   7.441   4.301  -0.024 -0.4915  0.0190  0.1178
    9CHTO   C23 3721   7.498   4.243   0.095  0.4975  0.3161  0.2577
    9CHTO   H51 3722   7.478   4.135   0.103  0.1051  0.4631  1.3101
    9CHTO   C34 3723   7.425   4.303   0.214 -0.3860 -0.2392  0.0904
    9CHTO   O23 3724   7.453   4.437   0.232 -0.1156  0.0166 -0.2495
    9CHTO   H38 3725   7.377   4.485   0.259  1.4554  1.6476  1.4257
    9CHTO   O16 3726   7.391   4.282  -0.238  0.3642 -0.3765 -0.2108
    9CHTO   C24 3727   7.267   4.174  -0.243  0.2024  0.0898  0.0519
    9CHTO   H52 3728   7.263   4.111  -0.154  0.3744  1.1101  0.7907
    9CHTO   C26 3729   7.292   4.087  -0.367  0.5808 -0.2670 -0.3920
    9CHTO   H54 3730   7.321   4.156  -0.449  0.7010 -0.5555 -0.5911
    9CHTO   O20 3731   7.405   4.006  -0.342  0.3167 -0.4354 -0.2083
    9CHTO   H36 3732   7.486   4.052  -0.356  1.0729 -1.9513 -0.9289
    9CHTO   C30 3733   7.168   3.999  -0.404 -0.0840  0.2452  0.7261
    9CHTO   H58 3734   7.159   3.917  -0.331 -1.1381 -1.0704 -0.8435
    9CHTO    N6 3735   7.185   3.932  -0.538 -0.3078  0.1320  0.0195
    9CHTO   H45 3736   7.205   4.007  -0.613 -0.6646 -0.5936 -0.8171
    9CHTO   H46 3737   7.090   3.886  -0.559 -0.1955  0.0222 -0.2499
    9CHTO   C33 3738   7.037   4.074  -0.388 -0.0908  0.0587 -0.0623
    9CHTO   H61 3739   7.028   4.149  -0.469 -1.1622  1.4146  1.2788
    9CHTO   O18 3740   7.029   4.144  -0.260 -0.1086 -0.0509 -0.1712
    9CHTO   C28 3741   7.130   4.245  -0.249  0.2179  0.3382  0.0022
    9CHTO   H56 3742   7.129   4.312  -0.335 -2.0446  1.3820  0.8218
    9CHTO   C35 3743   7.117   4.336  -0.127  0.1461 -0.0650  0.5440
    9CHTO   O24 3744   7.019   4.431  -0.150 -0.7035  0.0142  0.5418
    9CHTO   H39 3745   7.065   4.497  -0.197  2.7067 -2.8025 -0.2546
    9CHTO    O9 3746   6.923   3.989  -0.406 -0.4842 -0.4433 -0.6474
    9CHTO   C13 3747   6.794   4.049  -0.482  0.3870  0.0451 -0.0927
    9CHTO   H26 3748   6.819   4.080  -0.585 -2.2611 -0.8289 -1.0367
    9CHTO   C11 3749   6.732   4.173  -0.402 -0.5339  0.4914 -0.4341
    9CHTO   H24 3750   6.795   4.263  -0.413  0.8486 -0.0735  2.3361
    9CHTO    O8 3751   6.743   4.136  -0.263 -0.2801  0.3097 -0.1879
    9CHTO    H3 3752   6.661   4.115  -0.223 -0.9398 -0.0964 -1.7037
    9CHTO    C9 3753   6.592   4.212  -0.451 -0.1920 -0.2010  0.2342
    9CHTO   H22 3754   6.604   4.226  -0.559  0.4641 -3.3839 -0.1367
    9CHTO    N2 3755   6.533   4.330  -0.391  0.0680 -0.8024 -0.2846
    9CHTO   H10 3756   6.583   4.415  -0.436 -2.5449  0.5343 -0.7734
    9CHTO   H11 3757   6.428   4.338  -0.417  0.4540  3.0510 -1.0297
    9CHTO    C7 3758   6.502   4.082  -0.433  0.5134  0.5959 -0.3157
    9CHTO   H20 3759   6.406   4.107  -0.483  1.8385  2.0780 -2.2152
    9CHTO    O4 3760   6.550   3.971  -0.510  0.0346 -0.2409  0.4098
    9CHTO   C14 3761   6.682   3.926  -0.502  0.1489  1.2510 -0.0052
    9CHTO   H27 3762   6.694   3.872  -0.598  0.4081 -0.3316  0.9015
    9CHTO   C18 3763   6.688   3.812  -0.396  0.3293  0.6549  0.1519
    9CHTO   O13 3764   6.801   3.725  -0.406 -0.0690 -0.2261  0.2171
    9CHTO    H7 3765   6.830   3.699  -0.321 -0.0087 -1.6099 -0.2268
    9CHTO    O2 3766   6.483   4.027  -0.286 -0.7658  0.1506  0.4441
    9CHTO    C1 3767   6.357   3.991  -0.227 -0.2194 -0.2867  0.0583
    9CHTO   H14 3768   6.374   3.932  -0.134  0.9629  1.1109  0.7569
    9CHTO    C2 3769   6.259   3.918  -0.318 -0.1254  0.4133  0.1216
    9CHTO   H15 3770   6.282   3.957  -0.419 -3.1201  0.7623 -0.4712
    9CHTO    O6 3771   6.289   3.780  -0.320 -0.2090  0.3587 -0.2724
    9CHTO    H1 3772   6.370   3.748  -0.356  0.2689  0.6538  0.5140
    9CHTO    C3 3773   6.099   3.926  -0.274  0.0072 -0.4024  0.2856
    9CHTO   H16 3774   6.075   3.848  -0.200  2.3165 -1.9259 -0.4975
    9CHTO    N1 3775   6.000   3.885  -0.386 -0.4411  0.2360 -0.6814
    9CHTO    H8 3776   6.022   3.939  -0.477  0.6796  1.6820  0.4136
    9CHTO    H9 3777   6.013   3.778  -0.388 -3.1896 -0.2357  2.1156
    9CHTO    C4 3778   6.057   4.065  -0.204 -0.3054  0.5609 -0.5247
    9CHTO   H17 3779   6.042   4.142  -0.279  0.3966  1.8430  0.6276
    9CHTO    O1 3780   6.163   4.099  -0.119  0.1041 -0.1314  0.2801
    9CHTO    C5 3781   6.288   4.124  -0.179 -0.8237  0.2764  0.1881
    9CHTO   H18 3782   6.286   4.187  -0.268 -1.3553 -0.6478 -0.4611
    9CHTO   C16 3783   6.374   4.195  -0.076 -0.0748  0.2099  0.3070
    9CHTO   O11 3784   6.394   4.127   0.051 -0.5690  0.2371  0.4815
    9CHTO    H5 3785   6.482   4.138   0.081  0.1692 -2.7026 -0.4947
    9CHTO    O3 3786   5.944   4.043  -0.110 -0.4781  0.1128  0.7530
    9CHTO    C6 3787   5.849   4.157  -0.096 -0.0393  0.3292 -0.5476
    9CHTO   H19 3788   5.890   4.253  -0.128  1.3469 -0.0723 -0.0268
    9CHTO    C8 3789   5.714   4.119  -0.174 -0.0553  0.2618 -0.1012
    9CHTO   H21 3790   5.677   4.025  -0.132  0.3520  0.7335  1.3564
    9CHTO    O7 3791   5.738   4.097  -0.312  0.0899 -0.3657  0.4111
    9CHTO    H2 3792   5.756   4.174  -0.363 -3.0311 -1.6970 -2.9191
    9CHTO   C12 3793   5.602   4.223  -0.138 -0.6899  0.6345 -0.2429
    9CHTO   H25 3794   5.637   4.323  -0.172 -0.9886  0.0076 -2.4678
    9CHTO    N3 3795   5.473   4.206  -0.215 -0.7700  1.1397  0.4359
    9CHTO   H12 3796   5.440   4.294  -0.269  1.0339  0.8609 -1.2060
    9CHTO   H13 3797   5.396   4.166  -0.152 -0.1188  0.1537  0.6146
    9CHTO   C15 3798   5.593   4.230   0.019  0.3783 -0.5137  0.1831
    9CHTO   H28 3799   5.563   4.132   0.058  0.2655 -1.2108 -1.6446
    9CHTO   O10 3800   5.497   4.343   0.062 -0.1554  0.7137  0.7531
    9CHTO    H4 3801   5.522   4.418   0.010  2.6131 -1.7958 -1.7009
    9CHTO    O5 3802   5.719   4.271   0.076 -0.4440 -0.7038  0.3704
    9CHTO   C10 3803   5.823   4.172   0.058 -0.1174  0.4323  0.7837
    9CHTO   H23 3804   5.792   4.078   0.103 -0.0014 -0.2955 -0.6102
    9CHTO   C17 3805   5.946   4.213   0.135 -0.3302 -0.1672  0.6264
    9CHTO   O12 3806   5.929   4.300   0.249 -0.2601 -0.4574  0.2293
    9CHTO    H6 3807   5.848   4.285   0.294 -0.2873  1.6444  0.9752
   10CHTO  H203 3808   5.332   6.260   2.467 -2.4922 -0.4848  0.1668
   10CHTO   O82 3809   5.335   6.338   2.519 -0.5894  0.0317 -0.6633
   10CHTO  C123 3810   5.216   6.409   2.512 -0.1153 -0.6222 -0.6471
   10CHTO  H227 3811   5.193   6.422   2.405 -1.1660  1.1304 -0.2416
   10CHTO   O77 3812   5.134   6.315   2.583  0.3056  0.7271  0.3374
   10CHTO  C118 3813   4.991   6.350   2.587 -0.7832 -0.3589 -0.8663
   10CHTO  H222 3814   4.950   6.343   2.485 -0.7609 -0.7689 -0.8474
   10CHTO  C125 3815   4.926   6.239   2.674  0.5146 -0.3406  0.4051
   10CHTO   O84 3816   4.917   6.115   2.606 -0.3522  0.2214  0.0225
   10CHTO  H205 3817   4.838   6.073   2.635  0.4849  0.5678  2.9376
   10CHTO  C114 3818   4.985   6.493   2.650  0.0774 -0.0483 -0.4328
   10CHTO  H218 3819   5.016   6.483   2.754  1.0251  0.8382 -0.6255
   10CHTO  C116 3820   5.080   6.601   2.586 -0.3541  0.3624 -0.0077
   10CHTO  H220 3821   5.048   6.634   2.485 -1.4699 -1.6668 -0.3472
   10CHTO   O79 3822   5.077   6.721   2.664  0.2692 -0.1108 -0.3172
   10CHTO  H201 3823   4.999   6.767   2.641 -0.8617 -0.3257  2.7906
   10CHTO  C120 3824   5.228   6.549   2.577  0.3270  1.2521 -0.5168
   10CHTO  H224 3825   5.261   6.536   2.682  0.3561  1.1547 -0.5381
   10CHTO   N21 3826   5.319   6.639   2.509 -0.3928 -1.0881  0.4798
   10CHTO  H211 3827   5.367   6.695   2.588  0.2605  0.5185 -1.0280
   10CHTO  H212 3828   5.397   6.586   2.457 -1.9849 -1.2787 -1.7939
   10CHTO   O75 3829   4.856   6.543   2.641 -0.0778 -0.0335 -0.2701
   10CHTO  C112 3830   4.772   6.547   2.796  0.9891  0.2279 -0.3886
   10CHTO  H216 3831   4.837   6.584   2.877 -0.2699  0.2225  0.6350
   10CHTO   O73 3832   4.723   6.415   2.826  0.0655 -0.0588 -0.1984
   10CHTO  C113 3833   4.663   6.407   2.952 -0.2448 -0.9905 -0.2437
   10CHTO  H217 3834   4.736   6.441   3.029 -2.5168  0.3387  1.3867
   10CHTO  C124 3835   4.630   6.259   2.980  0.0849  0.2778 -0.1989
   10CHTO   O83 3836   4.743   6.175   3.010  0.5929  0.3296  0.1518
   10CHTO  H204 3837   4.811   6.175   2.946 -0.3544  2.4909 -0.8815
   10CHTO  C109 3838   4.536   6.497   2.973 -0.5292 -1.0260  0.5069
   10CHTO  H213 3839   4.458   6.452   2.911 -0.7444  0.3133 -0.2232
   10CHTO  C110 3840   4.569   6.639   2.917  0.1451 -0.4044 -0.3357
   10CHTO  H214 3841   4.626   6.690   2.995  0.6621 -0.9765 -0.3325
   10CHTO   O78 3842   4.447   6.701   2.887 -0.0513  0.3447 -0.6058
   10CHTO  H200 3843   4.390   6.650   2.832  0.3682 -1.7182  0.8148
   10CHTO  C111 3844   4.657   6.648   2.789 -0.2596  0.5795  0.0710
   10CHTO  H215 3845   4.601   6.607   2.703  0.6799  0.6951 -0.5970
   10CHTO   N19 3846   4.705   6.788   2.754  0.1576  0.3034 -0.1544
   10CHTO  H207 3847   4.626   6.861   2.756  0.6836  1.0591 -3.3473
   10CHTO  H208 3848   4.787   6.822   2.816  0.9767 -1.9007  0.0198
   10CHTO   O74 3849   4.481   6.495   3.112  0.3185  0.3112  0.1616
   10CHTO  C115 3850   4.319   6.501   3.130  0.3525  0.3244 -0.0524
   10CHTO  H219 3851   4.272   6.548   3.044  2.1640  1.3247 -0.5266
   10CHTO   O76 3852   4.249   6.335   3.129  0.1716 -0.3644 -0.4240
   10CHTO  C122 3853   4.269   6.280   3.261  0.3794  0.3613  0.5761
   10CHTO  H226 3854   4.375   6.273   3.288  0.7843 -0.8238 -1.2501
   10CHTO  C126 3855   4.209   6.133   3.265  0.2055  0.1341 -0.2377
   10CHTO   O85 3856   4.217   6.076   3.397  0.8817 -0.0920  0.0901
   10CHTO  H206 3857   4.274   6.003   3.384  1.6203  0.7667 -1.8022
   10CHTO  C121 3858   4.211   6.374   3.376 -0.2229 -0.6616  0.5161
   10CHTO  H225 3859   4.121   6.321   3.415 -1.9251  1.8711  0.1371
   10CHTO   O81 3860   4.290   6.386   3.495 -0.2961 -0.0879  0.2964
   10CHTO  H202 3861   4.361   6.446   3.483  0.0559 -0.9832 -2.4276
   10CHTO  C119 3862   4.172   6.506   3.327  0.4900 -0.3741 -0.4408
   10CHTO  H223 3863   4.092   6.493   3.254 -1.2362  0.9401  1.1593
   10CHTO  C117 3864   4.291   6.577   3.260 -0.3783  0.1046 -0.7704
   10CHTO  H221 3865   4.386   6.566   3.311 -0.4825 -0.3005 -0.6529
   10CHTO   N20 3866   4.266   6.725   3.238 -0.2752  0.3572 -0.5268
   10CHTO  H209 3867   4.165   6.757   3.256  0.2211  0.5421  2.0548
   10CHTO  H210 3868   4.301   6.755   3.140  0.2381 -1.4126 -0.9057
   10CHTO   O80 3869   4.086   6.601   3.445  0.7958 -0.4905 -0.1266
   10CHTO  C103 3870   3.922   6.583   3.457 -0.4531 -0.1224  0.1520
   10CHTO  H190 3871   3.894   6.677   3.504  1.5095  1.0966 -1.0050
   10CHTO  C101 3872   3.848   6.565   3.320 -0.8776 -1.0264 -0.2342
   10CHTO  H188 3873   3.879   6.478   3.262  0.8115  1.4684 -3.2308
   10CHTO   O68 3874   3.891   6.693   3.228  0.4086 -0.1746 -0.5030
   10CHTO  H168 3875   3.867   6.675   3.140  2.4289 -0.6900 -0.9800
   10CHTO   C99 3876   3.692   6.555   3.350 -0.2804 -0.5245 -0.5521
   10CHTO  H186 3877   3.657   6.636   3.419  0.4560 -0.2691 -0.4801
   10CHTO   N17 3878   3.609   6.545   3.226 -0.3032 -0.4850  0.1798
   10CHTO  H174 3879   3.661   6.477   3.161 -1.5108  0.8721 -2.2559
   10CHTO  H175 3880   3.517   6.502   3.264 -0.5099  2.3963  3.1466
   10CHTO   C97 3881   3.679   6.428   3.439  0.1622  0.0756 -0.3636
   10CHTO  H184 3882   3.713   6.340   3.383  0.0886  1.2104 -2.2490
   10CHTO   O64 3883   3.743   6.438   3.570 -0.3172  0.7220 -0.5814
   10CHTO  C104 3884   3.887   6.459   3.550 -0.8809 -0.0611  0.4456
   10CHTO  H191 3885   3.923   6.370   3.499 -0.3081  1.6136 -2.1627
   10CHTO  C108 3886   3.968   6.474   3.683  1.1571  0.2970  0.3041
   10CHTO   O71 3887   3.922   6.583   3.760 -0.2034 -0.5455  0.2791
   10CHTO  H171 3888   3.958   6.659   3.718  0.9444 -2.1023 -1.6170
   10CHTO   O62 3889   3.543   6.422   3.490  0.7464  0.1632  0.5444
   10CHTO   C91 3890   3.493   6.283   3.493 -0.3473 -0.6770  0.0976
   10CHTO  H178 3891   3.478   6.245   3.392 -0.3313 -0.0511 -0.1454
   10CHTO   C92 3892   3.344   6.289   3.550  0.5150 -0.1504 -0.3111
   10CHTO  H179 3893   3.291   6.370   3.497  1.7607  0.5278 -0.5331
   10CHTO   O66 3894   3.278   6.162   3.522  0.4597  0.3521 -0.1919
   10CHTO  H166 3895   3.316   6.089   3.567  0.3112 -1.4250 -2.8380
   10CHTO   C93 3896   3.335   6.308   3.710  0.1204 -0.2003 -0.0490
   10CHTO  H180 3897   3.237   6.270   3.741 -0.4898  2.2927  1.2550
   10CHTO   N16 3898   3.340   6.446   3.744  0.4127 -0.0648  0.0422
   10CHTO  H172 3899   3.440   6.482   3.723 -0.2546  2.2760  0.7344
   10CHTO  H173 3900   3.268   6.512   3.699  0.4439  0.0003  0.0884
   10CHTO   C94 3901   3.444   6.220   3.787  0.6402 -0.0508  0.7960
   10CHTO  H181 3902   3.538   6.273   3.803  0.6795 -0.3380  1.5640
   10CHTO   O61 3903   3.494   6.121   3.693  0.1795  0.4788  0.3393
   10CHTO   C95 3904   3.568   6.173   3.578  0.3311 -0.9749 -0.3779
   10CHTO  H182 3905   3.665   6.210   3.612 -0.4910  0.3315  0.5990
   10CHTO  C106 3906   3.610   6.047   3.494  0.2015  0.0150 -0.0524
   10CHTO   O69 3907   3.730   5.991   3.549 -0.2045  0.2201 -0.1777
   10CHTO  H169 3908   3.790   5.970   3.481  0.9948 -1.1706  1.2827
   10CHTO   O63 3909   3.382   6.159   3.922  0.1066  0.2004 -0.7157
   10CHTO   C96 3910   3.492   6.106   4.016  0.6217 -0.1550  0.4084
   10CHTO  H183 3911   3.588   6.141   3.979  0.9191  0.7126  1.9813
   10CHTO   C98 3912   3.507   5.952   4.014  0.3034 -0.2802  0.2605
   10CHTO  H185 3913   3.408   5.906   4.025  0.6212 -1.1852 -0.5899
   10CHTO   O67 3914   3.558   5.907   3.883  0.4563 -0.2503  0.1556
   10CHTO  H167 3915   3.605   5.825   3.883 -1.0922 -1.1737 -1.8197
   10CHTO  C102 3916   3.608   5.901   4.130 -0.1439 -0.0843 -0.2716
   10CHTO  H189 3917   3.710   5.931   4.101  0.7724 -3.9133 -1.3840
   10CHTO   N18 3918   3.627   5.756   4.157  1.2933 -0.1136 -0.2225
   10CHTO  H176 3919   3.624   5.697   4.066  0.5734  0.0703 -0.3197
   10CHTO  H177 3920   3.728   5.740   4.192  0.7882 -2.4447  0.2752
   10CHTO  C105 3921   3.573   5.968   4.265  0.3758 -0.1524  0.7376
   10CHTO  H192 3922   3.475   5.940   4.304 -0.4599  0.6628 -0.7419
   10CHTO   O65 3923   3.579   6.110   4.243  0.6976 -0.0558 -0.3805
   10CHTO  C100 3924   3.468   6.153   4.165 -0.2289 -0.0033 -0.3548
   10CHTO  H187 3925   3.367   6.123   4.194 -0.8570  1.7001 -0.7157
   10CHTO  C107 3926   3.478   6.308   4.183  0.5740  0.2530  0.2829
   10CHTO   O70 3927   3.446   6.342   4.319  0.2704 -0.5438  0.5922
   10CHTO  H170 3928   3.355   6.327   4.335 -0.0186 -1.5506 -1.8014
   10CHTO   O57 3929   3.678   5.948   4.390  0.1197  0.2723 -0.1966
   10CHTO   C85 3930   3.641   5.928   4.535  0.0913  0.3516  0.2528
   10CHTO  H157 3931   3.542   5.878   4.531 -0.8342  2.1691  0.0186
   10CHTO   C83 3932   3.621   6.069   4.586  0.3564  0.7281  0.6293
   10CHTO  H155 3933   3.544   6.122   4.530 -0.2111 -0.4574  0.2703
   10CHTO   O56 3934   3.742   6.148   4.580 -0.0725 -0.3143 -0.0558
   10CHTO  H135 3935   3.787   6.142   4.498 -1.8358 -1.3908 -0.9506
   10CHTO   C81 3936   3.568   6.064   4.734  0.0802 -0.4808  0.3483
   10CHTO  H153 3937   3.480   6.000   4.736 -1.3075  1.4034  1.0106
   10CHTO   N14 3938   3.535   6.197   4.795  0.3766 -0.3390 -0.2845
   10CHTO  H141 3939   3.624   6.256   4.807 -0.5907  1.0550  0.0938
   10CHTO  H142 3940   3.473   6.254   4.729 -1.2669  1.4891  2.7355
   10CHTO   C79 3941   3.677   5.990   4.822  0.0044 -0.1003  0.3284
   10CHTO  H151 3942   3.631   5.980   4.921  0.0859 -0.1791  0.3587
   10CHTO   O52 3943   3.707   5.853   4.766  0.4289 -0.1489 -0.3440
   10CHTO   C86 3944   3.743   5.861   4.627 -0.0404  0.3871 -0.0911
   10CHTO  H158 3945   3.843   5.907   4.632 -0.0714  0.3073  1.6690
   10CHTO   C90 3946   3.781   5.716   4.593  0.2044  0.2425  0.0429
   10CHTO   O60 3947   3.849   5.710   4.466 -0.2761  0.4533  0.0398
   10CHTO  H138 3948   3.917   5.645   4.459 -0.7987 -0.3777  2.2623
   10CHTO   O50 3949   3.800   6.063   4.837 -0.4980 -0.0854 -0.1562
   10CHTO   C73 3950   3.898   6.061   4.941  0.5464 -0.2507  0.3881
   10CHTO  H145 3951   3.932   5.964   4.980  2.2046 -0.5641 -1.7213
   10CHTO   C74 3952   3.842   6.124   5.074  0.3145 -0.4136 -0.3586
   10CHTO  H146 3953   3.747   6.070   5.090  0.0031  0.5037  1.0238
   10CHTO   O54 3954   3.929   6.082   5.183  0.5595  0.5299 -0.2790
   10CHTO  H133 3955   3.930   5.989   5.194  2.0422  0.5919  0.2975
   10CHTO   C75 3956   3.817   6.281   5.057  0.1896 -0.0643  0.6646
   10CHTO  H147 3957   3.744   6.301   4.977 -0.2212 -1.7219  0.6059
   10CHTO   N13 3958   3.744   6.332   5.171  0.0212 -0.2610 -0.4790
   10CHTO  H139 3959   3.803   6.309   5.258 -2.1742 -3.8237  0.1314
   10CHTO  H140 3960   3.741   6.437   5.144  1.0539 -0.9639 -3.5691
   10CHTO   C76 3961   3.961   6.340   5.013 -0.7184  0.2356  0.4984
   10CHTO  H148 3962   4.035   6.315   5.089 -0.5638  2.1671  1.0129
   10CHTO   O49 3963   3.993   6.281   4.884 -0.5673 -0.0467  1.1233
   10CHTO   C77 3964   4.020   6.136   4.890  0.8608  0.1805 -0.0306
   10CHTO  H149 3965   4.098   6.127   4.966  1.2642 -0.3089 -0.4991
   10CHTO   C88 3966   4.083   6.084   4.768  0.0308  0.2876 -0.0530
   10CHTO   O58 3967   4.070   5.926   4.762  0.6817  0.0292 -0.0018
   10CHTO  H136 3968   4.111   5.898   4.683 -2.7658  1.5051 -2.4603
   10CHTO   O51 3969   3.949   6.493   4.986 -0.4080 -0.3050 -0.1038
   10CHTO   C78 3970   4.083   6.570   5.035  0.2734  0.0024  0.0177
   10CHTO  H150 3971   4.173   6.513   5.005  0.0078 -0.7969  0.7116
   10CHTO   C80 3972   4.088   6.597   5.190  0.9045 -0.3543  0.0122
   10CHTO  H152 3973   3.993   6.650   5.211  1.0374  0.1519 -0.6286
   10CHTO   O55 3974   4.093   6.480   5.269 -0.1712 -0.2415 -0.3052
   10CHTO  H134 3975   4.007   6.456   5.297  0.7139  1.4096  4.2349
   10CHTO   C84 3976   4.201   6.693   5.239 -0.4817  0.4455  0.3616
   10CHTO  H156 3977   4.290   6.630   5.247  0.5644  1.7839 -0.5896
   10CHTO   N15 3978   4.184   6.742   5.384  0.2180  0.3331 -0.7237
   10CHTO  H143 3979   4.114   6.821   5.405 -0.7276 -0.3163 -1.3802
   10CHTO  H144 3980   4.167   6.665   5.456 -2.1257  0.4066 -1.1461
   10CHTO   C87 3981   4.234   6.810   5.145  0.4457  0.2313  0.1183
   10CHTO  H159 3982   4.176   6.901   5.154  1.3299  1.1753 -3.0654
   10CHTO   O53 3983   4.224   6.760   4.997  0.3247 -0.0979  0.2646
   10CHTO   C82 3984   4.097   6.706   4.961  0.2283 -0.2699 -0.0144
   10CHTO  H154 3985   4.024   6.782   4.989  1.8232  2.3909 -2.8168
   10CHTO   C89 3986   4.090   6.688   4.808 -0.2331 -0.2989 -0.5406
   10CHTO   O59 3987   4.055   6.811   4.747 -0.7888 -0.8335 -0.0451
   10CHTO  H137 3988   4.094   6.814   4.661 -0.0465  0.0096  0.3160
   10CHTO   O45 3989   4.399   6.844   5.148  0.4429 -0.3428  0.2758
   10CHTO   C67 3990   4.421   6.983   5.140  0.2376  0.2217  0.2995
   10CHTO  H124 3991   4.349   7.037   5.079  2.2090  0.5093 -1.8454
   10CHTO   C65 3992   4.428   7.046   5.285  0.2772  0.4700  0.0469
   10CHTO  H122 3993   4.455   6.968   5.356  1.0203  1.1613  0.5372
   10CHTO   O44 3994   4.292   7.090   5.310 -0.0444  0.6117  0.2423
   10CHTO  H102 3995   4.238   7.018   5.335  0.1016  1.0258  1.8077
   10CHTO   C63 3996   4.543   7.152   5.306 -0.0907  0.0010 -0.0374
   10CHTO  H120 3997   4.636   7.095   5.319  0.1078 -0.4148 -2.9299
   10CHTO   N11 3998   4.532   7.230   5.433  0.0543 -0.2576 -0.3566
   10CHTO  H108 3999   4.451   7.299   5.418 -1.1380 -1.8919 -1.5849
   10CHTO  H109 4000   4.625   7.283   5.445 -0.0221 -0.1580 -0.2071
   10CHTO   C61 4001   4.554   7.237   5.172 -1.1492  0.1726  0.1440
   10CHTO  H118 4002   4.641   7.304   5.190 -2.3896  2.1767 -1.1550
   10CHTO   O40 4003   4.593   7.147   5.063 -0.1451  0.4956  0.5786
   10CHTO   C68 4004   4.554   7.003   5.069  0.0696  0.0562  0.3960
   10CHTO  H125 4005   4.637   6.951   5.121 -0.8560 -0.2096  1.6258
   10CHTO   C72 4006   4.552   6.942   4.931 -0.8548 -0.5225  0.0369
   10CHTO   O48 4007   4.651   6.991   4.839  0.5683  0.3082 -0.0901
   10CHTO  H105 4008   4.681   6.918   4.788  0.5105  1.3265 -1.6267
   10CHTO   O38 4009   4.445   7.316   5.135  0.7212 -0.0787 -0.1189
   10CHTO   C55 4010   4.466   7.446   5.071 -0.5767  0.2105  0.4697
   10CHTO  H112 4011   4.369   7.479   5.029 -0.0272  1.6886  0.3081
   10CHTO   C56 4012   4.582   7.447   4.959  0.2731 -0.2303 -0.3732
   10CHTO  H113 4013   4.668   7.401   5.011 -0.2703 -1.5300 -0.6052
   10CHTO   O42 4014   4.552   7.362   4.848  0.1262  0.6616 -0.6213
   10CHTO  H100 4015   4.594   7.279   4.847 -0.0282  0.5163  1.8512
   10CHTO   C57 4016   4.611   7.592   4.909  0.3671 -0.1706 -0.7003
   10CHTO  H114 4017   4.539   7.624   4.834 -1.0407 -0.2792  0.5958
   10CHTO   N10 4018   4.739   7.602   4.834 -0.3286 -0.4867 -0.0770
   10CHTO  H106 4019   4.820   7.551   4.884 -0.1093 -0.1932 -0.1265
   10CHTO  H107 4020   4.763   7.705   4.809 -0.7283 -0.6972 -1.3408
   10CHTO   C58 4021   4.610   7.699   5.027 -0.6355 -1.5628  0.8290
   10CHTO  H115 4022   4.703   7.689   5.086  2.3308  0.2306 -3.2633
   10CHTO   O37 4023   4.492   7.683   5.110  0.5587 -0.0829  0.3318
   10CHTO   C59 4024   4.491   7.554   5.180 -0.7045  0.8001  0.5203
   10CHTO  H116 4025   4.582   7.538   5.238  0.4806  2.7799 -0.7088
   10CHTO   C70 4026   4.375   7.553   5.286 -0.0233  0.7563 -0.9823
   10CHTO   O46 4027   4.410   7.645   5.395  0.1036 -0.4824 -0.3064
   10CHTO  H103 4028   4.352   7.637   5.468  0.4782 -1.7113 -0.1273
   10CHTO   O39 4029   4.594   7.847   4.967 -0.4882 -0.0590 -0.7398
   10CHTO   C60 4030   4.608   7.964   5.059 -0.9192 -0.6265 -0.0782
   10CHTO  H117 4031   4.595   8.057   5.003  2.0014 -0.1098 -0.0028
   10CHTO   C62 4032   4.508   7.985   5.171  0.3328  0.5010 -0.0328
   10CHTO  H119 4033   4.410   7.963   5.123  0.6049 -1.1788  0.1824
   10CHTO   O43 4034   4.516   7.884   5.280 -0.8490 -0.3182  0.1704
   10CHTO  H101 4035   4.438   7.888   5.332 -1.2459 -0.5122 -0.4049
   10CHTO   C66 4036   4.509   8.132   5.231 -0.3452 -0.4396 -0.1536
   10CHTO  H123 4037   4.483   8.202   5.152 -1.7571  0.3675  0.9770
   10CHTO   N12 4038   4.401   8.169   5.326  0.2902  0.5558  0.1679
   10CHTO  H110 4039   4.416   8.269   5.362  3.4880  0.7518 -1.5281
   10CHTO  H111 4040   4.303   8.169   5.280 -0.2506  3.4063  1.2007
   10CHTO   C69 4041   4.653   8.153   5.291  0.2372  0.3183 -0.2868
   10CHTO  H126 4042   4.651   8.098   5.388 -5.0435 -1.0959 -0.9976
   10CHTO   O41 4043   4.768   8.102   5.196 -0.0174  0.2270 -0.3296
   10CHTO   C64 4044   4.746   7.964   5.121  0.1676 -0.5257 -0.6101
   10CHTO  H121 4045   4.764   7.875   5.184  2.2958 -0.2852 -0.8502
   10CHTO   C71 4046   4.857   7.957   5.011 -0.0050 -0.8941  0.5478
   10CHTO   O47 4047   4.989   7.974   5.063 -0.7103 -0.3882 -0.2087
   10CHTO  H104 4048   5.035   7.893   5.053 -0.3225  0.1732 -3.4041
   10CHTO   O34 4049   4.674   8.303   5.321 -0.3356  0.3026 -0.3893
   10CHTO   C49 4050   4.756   8.395   5.209  0.0886  0.2868 -0.1586
   10CHTO   H91 4051   4.859   8.363   5.196 -0.2649 -1.3408  0.8190
   10CHTO   C47 4052   4.768   8.533   5.270 -0.9267  0.1597  0.2075
   10CHTO   H89 4053   4.834   8.595   5.205 -2.5266 -1.0507 -2.6931
   10CHTO   O33 4054   4.824   8.525   5.404  0.1715  0.2905  0.1150
   10CHTO   H70 4055   4.889   8.458   5.407 -0.4524 -0.4554 -2.2225
   10CHTO   C45 4056   4.623   8.599   5.272 -0.1048 -0.8631  0.9379
   10CHTO   H87 4057   4.557   8.533   5.330 -2.4376  0.4869 -0.0844
   10CHTO    N8 4058   4.619   8.733   5.333  0.1350 -0.3490 -0.0044
   10CHTO   H75 4059   4.713   8.758   5.380  0.0426 -0.3606  0.1878
   10CHTO   H76 4060   4.581   8.800   5.258 -3.5363 -0.2649  1.8187
   10CHTO   C43 4061   4.566   8.610   5.119 -0.3390 -0.0009  0.1556
   10CHTO   H85 4062   4.465   8.651   5.121 -0.5661 -0.3090 -2.4723
   10CHTO   O29 4063   4.572   8.481   5.047 -0.4447 -0.3621 -0.0627
   10CHTO   C50 4064   4.687   8.405   5.071 -0.0271  0.0529  0.1006
   10CHTO   H92 4065   4.664   8.304   5.035  2.3338 -0.0962 -1.1183
   10CHTO   C54 4066   4.784   8.444   4.961 -0.5727  0.1865  0.0061
   10CHTO   O36 4067   4.732   8.443   4.831  0.3135 -0.0465  0.7626
   10CHTO   H72 4068   4.776   8.508   4.779  0.1162 -1.5973 -1.4009
   10CHTO   O27 4069   4.641   8.704   5.040  0.2049  0.3455  0.0801
   10CHTO   C37 4070   4.624   8.820   4.962  0.7122 -0.0723  0.1645
   10CHTO   H79 4071   4.691   8.827   4.875 -1.0848  0.2067 -1.2564
   10CHTO   C38 4072   4.478   8.818   4.904 -0.5348 -0.5212  1.0663
   10CHTO   H80 4073   4.416   8.796   4.992 -0.9568  0.1713  0.9477
   10CHTO   O31 4074   4.460   8.712   4.808 -0.6428 -0.2486 -0.1093
   10CHTO   H68 4075   4.374   8.676   4.821 -0.5687 -0.9966 -1.5962
   10CHTO   C39 4076   4.427   8.950   4.842  0.1292  0.4721  0.3386
   10CHTO   H81 4077   4.482   8.958   4.747 -1.1319  0.6388 -0.3868
   10CHTO    N7 4078   4.282   8.950   4.812  0.2776  1.0070 -0.2204
   10CHTO   H73 4079   4.215   8.897   4.877  0.9787  2.1771  1.4880
   10CHTO   H74 4080   4.273   8.936   4.705  1.8284 -1.2035 -0.0841
   10CHTO   C40 4081   4.473   9.076   4.928 -0.5627  0.3642  0.3046
   10CHTO   H82 4082   4.411   9.108   5.011 -1.4571 -0.1418 -0.1640
   10CHTO   O26 4083   4.612   9.073   4.967 -0.0760  1.3035  0.2388
   10CHTO   C41 4084   4.642   8.950   5.042  0.5851 -0.3980 -0.1402
   10CHTO   H83 4085   4.567   8.945   5.123  2.8313 -2.3152  1.8916
   10CHTO   C52 4086   4.776   8.959   5.106 -0.3385  0.6181 -0.6344
   10CHTO   O35 4087   4.755   9.068   5.209 -0.8689 -0.2628  1.0404
   10CHTO   H71 4088   4.837   9.102   5.239 -2.4637  0.7011  4.4728
   10CHTO   O28 4089   4.483   9.192   4.837  0.0376  0.6225 -0.5348
   10CHTO   C42 4090   4.425   9.326   4.864  0.8366 -0.6159  0.0239
   10CHTO   H84 4091   4.369   9.319   4.957 -1.3216  0.7624 -1.1195
   10CHTO   C44 4092   4.327   9.380   4.759 -0.8266  0.5033  0.3868
   10CHTO   H86 4093   4.379   9.371   4.664 -0.6028  0.4286  0.5161
   10CHTO   O32 4094   4.216   9.291   4.754 -0.0394 -0.5097 -0.2161
   10CHTO   H69 4095   4.166   9.309   4.677 -1.0975  0.8903  0.7783
   10CHTO   C48 4096   4.272   9.522   4.774  0.5345  0.4840  0.3282
   10CHTO   H90 4097   4.206   9.526   4.860  0.2618  1.5199  0.0667
   10CHTO    N9 4098   4.194   9.575   4.663  0.7478 -0.2147  0.3707
   10CHTO   H77 4099   4.114   9.507   4.638 -0.5720  0.7689  1.8197
   10CHTO   H78 4100   4.145   9.665   4.696  0.4832  0.0727 -0.7584
   10CHTO   C51 4101   4.397   9.614   4.806 -0.3654 -0.3465  0.6307
   10CHTO   H93 4102   4.455   9.625   4.714 -0.8722  3.0931  0.6600
   10CHTO   O30 4103   4.471   9.562   4.922  0.5149 -0.1898 -0.9360
   10CHTO   C46 4104   4.536   9.431   4.891  0.2111  0.8021 -0.3802
   10CHTO   H88 4105   4.612   9.441   4.813 -0.0488  0.6162 -0.6595
   10CHTO   C53 4106   4.611   9.392   5.020  0.1358  0.0434  0.7804
   10CHTO   O72 4107   4.751   9.360   5.020  0.4186 -0.1892  0.4990
   10CHTO  H199 4108   4.799   9.385   5.096  2.0124 -0.8685 -0.2737
   10CHTO   O22 4109   4.358   9.749   4.848  0.5628 -0.1620  0.3031
   10CHTO   C31 4110   4.438   9.870   4.871 -0.0356  0.5662 -0.2401
   10CHTO   H59 4111   4.368   9.955   4.884  1.4797  1.4100  2.9640
   10CHTO   C29 4112   4.529   9.872   4.999  0.1816 -0.4006  0.5140
   10CHTO   H57 4113   4.604   9.791   4.992 -0.6735 -1.1436 -0.2650
   10CHTO   O21 4114   4.444   9.832   5.107  0.2759  0.1316 -0.1323
   10CHTO   H37 4115   4.416   9.742   5.111 -3.0949  0.9879 -2.7070
   10CHTO   C27 4116   4.596  10.014   5.017  0.1080 -0.3518  0.1950
   10CHTO   H55 4117   4.516  10.088   5.032 -0.7820 -0.9544 -1.4584
   10CHTO    N5 4118   4.692  10.020   5.127  0.4462 -0.2113  0.4544
   10CHTO   H43 4119   4.678  10.092   5.207  0.5259  0.0635  0.2244
   10CHTO   H44 4120   4.792  10.011   5.089  0.3244 -1.5172  0.4337
   10CHTO   C25 4121   4.669  10.061   4.883  0.1138 -0.0676 -0.4765
   10CHTO   H53 4122   4.753   9.990   4.870 -0.4307 -0.4784 -1.8281
   10CHTO   O17 4123   4.590  10.034   4.758 -0.3697  0.5789 -0.1334
   10CHTO   C32 4124   4.531   9.905   4.752  0.3633 -0.1054 -0.8982
   10CHTO   H60 4125   4.612   9.832   4.750  1.3592  0.8191  2.2764
   10CHTO   C36 4126   4.464   9.899   4.618  0.2743  0.0496  0.0530
   10CHTO   O25 4127   4.359   9.993   4.589  0.0572 -0.5941  0.4287
   10CHTO   H40 4128   4.384  10.075   4.629 -1.2540  1.2752 -2.4489
   10CHTO   O15 4129   4.698  10.204   4.888 -0.3075 -0.1250 -0.1663
   10CHTO   C19 4130   4.705  10.315   4.794 -0.0178  0.4946 -1.2319
   10CHTO   H47 4131   4.617  10.301   4.730  0.9312  0.4015 -2.5265
   10CHTO   C20 4132   4.696  10.456   4.874  0.5730 -0.1860  0.5960
   10CHTO   H48 4133   4.779  10.472   4.944  0.4699  0.1290  0.6491
   10CHTO   O19 4134   4.581  10.455   4.958 -0.2383 -0.1179  0.5096
   10CHTO   H35 4135   4.606  10.430   5.044  0.9703  0.9973  0.5076
   10CHTO   C21 4136   4.691  10.575   4.768 -0.1793 -0.6674  0.2842
   10CHTO   H49 4137   4.594  10.566   4.720 -0.6332  0.2113  1.0192
   10CHTO    N4 4138   4.684  10.709   4.831 -0.7415 -0.2862  0.7945
   10CHTO   H41 4139   4.596  10.734   4.889 -0.6547  3.1018 -0.3922
   10CHTO   H42 4140   4.777  10.744   4.874 -0.0505 -0.7380 -0.3291
   10CHTO   C22 4141   4.807  10.558   4.666 -0.0865  0.3716 -0.0794
   10CHTO   H50 4142   4.898  10.563   4.725 -0.2855 -0.5524  0.3189
   10CHTO   O14 4143   4.810  10.432   4.608 -0.3092 -0.2737  0.1008
   10CHTO   C23 4144   4.828  10.323   4.697 -0.0608 -0.0896 -0.0965
   10CHTO   H51 4145   4.923  10.344   4.747 -1.2591 -0.8247  2.5828
   10CHTO   C34 4146   4.821  10.207   4.601  0.2820  0.2225  0.9651
   10CHTO   O23 4147   4.880  10.085   4.655 -0.1379 -0.1509  0.0155
   10CHTO   H38 4148   4.879  10.089   4.749  0.5927  2.2979 -0.0451
   10CHTO   O16 4149   4.812  10.653   4.557  0.2351  0.4730 -0.3761
   10CHTO   C24 4150   4.973  10.687   4.515  0.1172 -0.1698  0.2167
   10CHTO   H52 4151   5.044  10.635   4.579 -0.2600 -0.4082  0.4455
   10CHTO   C26 4152   4.993  10.840   4.535  0.7617  0.3157 -0.1169
   10CHTO   H54 4153   4.918  10.892   4.473  1.2789  1.9979  0.6552
   10CHTO   O20 4154   4.961  10.867   4.672  0.5153 -0.1994 -0.6064
   10CHTO   H36 4155   4.950  10.959   4.684  1.8105 -0.1039 -0.0046
   10CHTO   C30 4156   5.138  10.876   4.493  0.4519  0.5556  0.4081
   10CHTO   H58 4157   5.208  10.830   4.564  0.5855  0.0412 -0.0490
   10CHTO    N6 4158   5.151  11.021   4.498 -0.8425 -0.5764  0.4016
   10CHTO   H45 4159   5.251  11.044   4.463 -0.3355 -0.2062  2.0172
   10CHTO   H46 4160   5.145  11.059   4.599 -1.2776 -1.2119  0.6149
   10CHTO   C33 4161   5.183  10.820   4.351  0.0590 -0.4273  0.3858
   10CHTO   H61 4162   5.133  10.880   4.273 -0.3524 -1.0595  0.1591
   10CHTO   O18 4163   5.141  10.680   4.340  1.0008  0.0591  0.0978
   10CHTO   C28 4164   5.001  10.643   4.364 -0.7228 -0.1730 -0.2265
   10CHTO   H56 4165   4.938  10.704   4.299  0.6323  2.2336  0.6463
   10CHTO   C35 4166   4.991  10.491   4.339  0.2857 -0.3353  0.6203
   10CHTO   O24 4167   5.059  10.423   4.434 -0.4488 -0.4726 -0.4265
   10CHTO   H39 4168   5.077  10.335   4.406  1.0821 -0.2933 -0.0457
   10CHTO    O9 4169   5.323  10.839   4.328 -0.0451  0.5282  0.0099
   10CHTO   C13 4170   5.381  10.835   4.166 -0.0255  0.3265  0.1361
   10CHTO   H26 4171   5.330  10.919   4.112 -0.1724  0.6428  0.7615
   10CHTO   C11 4172   5.356  10.691   4.105 -0.6681  0.5210  0.0922
   10CHTO   H24 4173   5.250  10.672   4.085 -0.7723  0.2966  0.8563
   10CHTO    O8 4174   5.387  10.596   4.211  0.8870 -0.4166  0.7866
   10CHTO    H3 4175   5.450  10.628   4.272  0.8892  2.0316 -0.4256
   10CHTO    C9 4176   5.431  10.668   3.970 -0.2229  0.0323  0.1071
   10CHTO   H22 4177   5.390  10.746   3.905 -2.0535  0.0104  1.1880
   10CHTO    N2 4178   5.398  10.541   3.897 -0.5185  0.0566 -0.1435
   10CHTO   H10 4179   5.407  10.553   3.790 -1.2981 -2.5058 -0.5363
   10CHTO   H11 4180   5.454  10.452   3.920  1.3813  1.7568  2.0852
   10CHTO    C7 4181   5.588  10.702   3.994  0.0854  0.1469 -0.3218
   10CHTO   H20 4182   5.617  10.769   3.911  0.8785  0.1002 -0.0863
   10CHTO    O4 4183   5.613  10.778   4.114 -0.0418 -0.3640 -0.7114
   10CHTO   C14 4184   5.526  10.885   4.150 -0.3743 -0.1594 -0.1071
   10CHTO   H27 4185   5.528  10.957   4.066  2.6821  0.3122  0.3305
   10CHTO   C18 4186   5.578  10.957   4.276 -0.1461 -0.2140 -0.1609
   10CHTO   O13 4187   5.711  11.005   4.262 -0.0391 -0.7279  0.0284
   10CHTO    H7 4188   5.723  11.089   4.222  2.6633  0.1247  2.4427
   10CHTO    O2 4189   5.678  10.572   4.012  0.2492  0.4367 -0.0356
   10CHTO    C1 4190   5.821  10.599   4.004  0.1185  0.0240 -0.2764
   10CHTO   H14 4191   5.839  10.706   4.031 -1.6319  0.6576 -1.5290
   10CHTO    C2 4192   5.882  10.578   3.863 -0.4366  0.6223 -0.2248
   10CHTO   H15 4193   5.844  10.479   3.833 -1.7721  0.4112  2.0730
   10CHTO    O6 4194   5.834  10.682   3.780 -0.1049 -0.6284  0.3640
   10CHTO    H1 4195   5.745  10.668   3.754 -0.3002 -0.1804  0.7720
   10CHTO    C3 4196   6.042  10.581   3.877 -0.0951 -0.0228  0.6849
   10CHTO   H16 4197   6.087  10.674   3.916  0.9299 -0.0129 -0.5137
   10CHTO    N1 4198   6.097  10.556   3.745  0.0245  0.2026  0.9824
   10CHTO    H8 4199   6.088  10.650   3.694  2.5601  0.0109  0.0860
   10CHTO    H9 4200   6.042  10.480   3.690 -1.4895  2.9981 -1.5109
   10CHTO    C4 4201   6.089  10.470   3.979 -0.1786  0.6463  0.0084
   10CHTO   H17 4202   6.053  10.373   3.945 -0.1947  0.7737 -0.3317
   10CHTO    O1 4203   6.032  10.501   4.110 -0.3723 -0.0306 -0.0066
   10CHTO    C5 4204   5.886  10.507   4.116  0.0418 -0.5003 -0.0011
   10CHTO   H18 4205   5.843  10.410   4.094  0.4845  0.1915 -4.5707
   10CHTO   C16 4206   5.837  10.552   4.257 -0.8690  0.0104 -0.7389
   10CHTO   O11 4207   5.902  10.465   4.352 -0.4786 -0.4759 -0.0865
   10CHTO    H5 4208   5.886  10.491   4.440  1.4081 -1.0230  0.4459
   10CHTO    O3 4209   6.230  10.472   4.003  0.5603  0.1284 -0.4441
   10CHTO    C6 4210   6.310  10.348   4.007 -0.3025  0.5066  0.3200
   10CHTO   H19 4211   6.257  10.260   3.971 -1.2052  0.3840  1.9107
   10CHTO    C8 4212   6.428  10.364   3.910  0.2820  0.3392  0.4626
   10CHTO   H21 4213   6.478  10.460   3.921  0.2279  0.5955 -1.4401
   10CHTO    O7 4214   6.365  10.369   3.779  0.0453  0.7208 -0.1926
   10CHTO    H2 4215   6.424  10.363   3.706 -1.1200 -0.5338 -1.0457
   10CHTO   C12 4216   6.532  10.240   3.936  0.8034 -0.3646  0.1193
   10CHTO   H25 4217   6.490  10.143   3.904  0.3609  0.4816 -1.9323
   10CHTO    N3 4218   6.648  10.270   3.848  0.0053 -0.1134 -0.1672
   10CHTO   H12 4219   6.638  10.344   3.770 -2.8627 -0.9228 -0.6197
   10CHTO   H13 4220   6.719  10.191   3.829  0.4158  0.5128 -1.2604
   10CHTO   C15 4221   6.566  10.234   4.089 -0.0581  0.2417 -0.0555
   10CHTO   H28 4222   6.620  10.326   4.115  0.0376 -0.3169  1.7919
   10CHTO   O10 4223   6.653  10.112   4.136 -0.0089  0.4850 -0.4955
   10CHTO    H4 4224   6.726  10.101   4.078  0.5657  3.4065 -0.3602
   10CHTO    O5 4225   6.445  10.217   4.166 -0.2498  0.5667  0.1986
   10CHTO   C10 4226   6.351  10.319   4.148  0.1535 -0.6206  0.3655
   10CHTO   H23 4227   6.399  10.400   4.204 -1.4943 -0.3135  1.3586
   10CHTO   C17 4228   6.235  10.273   4.233  0.4836  0.4431 -0.5391
   10CHTO   O12 4229   6.162  10.162   4.175  0.5266 -0.4322  0.2232
   10CHTO    H6 4230   6.070  10.175   4.185  0.1916 -1.9217 -0.7836
   11CHTO  H203 4231   7.736   5.122   0.556 -0.2932  1.4889 -0.2193
   11CHTO   O82 4232   7.811   5.142   0.504  0.6818  0.0065  0.5894
   11CHTO  C123 4233   7.786   5.266   0.438  0.1101  0.3235  0.4386
   11CHTO  H227 4234   7.854   5.276   0.352  0.8072  1.0862  1.0667
   11CHTO   O77 4235   7.650   5.251   0.390  0.2244  0.1439  0.2071
   11CHTO  C118 4236   7.586   5.369   0.333  0.2367 -0.3367  0.0675
   11CHTO  H222 4237   7.637   5.397   0.240 -0.5125  2.0130  0.3060
   11CHTO  C125 4238   7.446   5.327   0.293  0.0969  0.3168  0.5447
   11CHTO   O84 4239   7.449   5.227   0.190 -0.0182  0.4910  0.2451
   11CHTO  H205 4240   7.363   5.189   0.189 -0.1892  0.8148  1.3212
   11CHTO  C114 4241   7.582   5.490   0.432  0.3574  0.3638 -0.2511
   11CHTO  H218 4242   7.532   5.457   0.523  2.4638 -1.0108  0.4510
   11CHTO  C116 4243   7.735   5.518   0.474  0.0042 -0.4491  0.6211
   11CHTO  H220 4244   7.790   5.552   0.384 -1.9835  1.4984  0.1084
   11CHTO   O79 4245   7.732   5.629   0.566 -0.1015  0.2093 -0.6389
   11CHTO  H201 4246   7.652   5.677   0.563  0.3308  0.9942  0.1730
   11CHTO  C120 4247   7.807   5.390   0.539 -0.5460  0.5023 -0.3727
   11CHTO  H224 4248   7.758   5.362   0.635 -0.5412 -0.7715 -0.7397
   11CHTO   N21 4249   7.955   5.417   0.564  0.1420 -0.1367 -0.2174
   11CHTO  H211 4250   7.977   5.522   0.577  0.2476  0.2430 -3.1337
   11CHTO  H212 4251   8.004   5.347   0.631  0.4670  0.9871  0.7248
   11CHTO   O75 4252   7.516   5.598   0.369  0.0984 -0.3258 -0.1064
   11CHTO  C112 4253   7.426   5.676   0.449  0.9689  0.2502 -0.0934
   11CHTO  H216 4254   7.466   5.691   0.550 -0.4265 -0.6010  0.6114
   11CHTO   O73 4255   7.302   5.601   0.449  0.3319  0.3218  0.1614
   11CHTO  C113 4256   7.197   5.675   0.519 -0.8434 -0.3399  0.5654
   11CHTO  H217 4257   7.236   5.700   0.620 -2.3150  4.8296  0.0011
   11CHTO  C124 4258   7.083   5.575   0.532 -0.1300 -0.0770  0.0656
   11CHTO   O83 4259   7.012   5.567   0.409  0.3097  0.1218 -0.3103
   11CHTO  H204 4260   6.972   5.650   0.393  0.3179 -0.1062 -1.5783
   11CHTO  C109 4261   7.160   5.805   0.443 -0.0247 -0.0499  0.0468
   11CHTO  H213 4262   7.146   5.775   0.338  3.1968  0.0794 -0.4924
   11CHTO  C110 4263   7.287   5.900   0.449 -0.1274 -0.6067 -0.1278
   11CHTO  H214 4264   7.306   5.923   0.554  0.1511  1.2959 -0.5775
   11CHTO   O78 4265   7.268   6.031   0.387 -0.1447  0.1702 -0.1569
   11CHTO  H200 4266   7.253   6.026   0.294 -1.9473 -0.3641  0.1452
   11CHTO  C111 4267   7.409   5.821   0.387  0.2005  0.0687  0.1127
   11CHTO  H215 4268   7.386   5.806   0.281  0.5167 -0.5689  0.1366
   11CHTO   N19 4269   7.533   5.897   0.393 -0.0499 -0.1389 -0.2647
   11CHTO  H207 4270   7.523   5.967   0.311 -1.1056  0.1988  0.1368
   11CHTO  H208 4271   7.542   5.956   0.483  3.2663  0.0036 -0.6343
   11CHTO   O74 4272   7.047   5.871   0.509  0.0942  0.1944  0.5609
   11CHTO  C115 4273   6.947   5.953   0.411 -0.1055  0.2346 -0.1951
   11CHTO  H219 4274   6.992   5.969   0.313 -2.0530  1.2188 -0.9483
   11CHTO   O76 4275   6.820   5.869   0.381 -0.0589 -0.4639 -0.2885
   11CHTO  C122 4276   6.739   5.839   0.500 -0.5251 -0.3654  0.0905
   11CHTO  H226 4277   6.793   5.756   0.546 -0.6231 -0.2292  0.4550
   11CHTO  C126 4278   6.599   5.779   0.457 -0.6126 -0.1324 -0.2638
   11CHTO   O85 4279   6.529   5.853   0.360 -0.1604  0.4516 -0.1350
   11CHTO  H206 4280   6.525   5.942   0.391  0.3241  0.9123 -1.3443
   11CHTO  C121 4281   6.728   5.959   0.603 -0.3174  0.4557  0.0395
   11CHTO  H225 4282   6.620   5.966   0.629 -0.5221  0.0434 -0.6808
   11CHTO   O81 4283   6.800   5.924   0.723 -0.6953  0.0123 -0.3619
   11CHTO  H202 4284   6.744   5.942   0.796 -0.6472  1.8275 -0.7429
   11CHTO  C119 4285   6.767   6.096   0.538 -0.1862  0.1949 -0.2182
   11CHTO  H223 4286   6.710   6.099   0.445 -0.5888 -0.4845  0.0033
   11CHTO  C117 4287   6.913   6.088   0.491 -0.3548  0.0141 -0.0323
   11CHTO  H221 4288   6.984   6.080   0.573 -0.2304 -0.9396 -0.2315
   11CHTO   N20 4289   6.965   6.203   0.414 -0.3980  0.3170  0.1818
   11CHTO  H209 4290   7.071   6.206   0.395 -0.6309  2.0589 -1.0798
   11CHTO  H210 4291   6.898   6.221   0.330 -0.8434 -0.3985  0.3825
   11CHTO   O80 4292   6.720   6.222   0.611  0.0742 -0.6305 -0.1929
   11CHTO  C103 4293   6.771   6.253   0.762 -0.5583  0.1900 -0.2233
   11CHTO  H190 4294   6.814   6.162   0.806 -1.5834 -0.2134 -0.0491
   11CHTO  C101 4295   6.868   6.370   0.779 -0.0034  0.3787 -0.8482
   11CHTO  H188 4296   6.843   6.460   0.722 -0.1516  1.7338  1.2731
   11CHTO   O68 4297   7.000   6.315   0.740 -0.1023  0.0114 -0.2004
   11CHTO  H168 4298   7.064   6.358   0.794 -1.3678  1.9308 -0.1389
   11CHTO   C99 4299   6.869   6.421   0.932 -0.1496 -0.3691  0.5197
   11CHTO  H186 4300   6.897   6.344   1.008  0.5191 -0.5076  0.1362
   11CHTO   N17 4301   6.957   6.545   0.955  0.7181  0.5302  0.3311
   11CHTO  H174 4302   7.004   6.550   1.052 -0.8657 -2.7835  1.3579
   11CHTO  H175 4303   7.035   6.540   0.881 -0.9767  1.3413 -1.5694
   11CHTO   C97 4304   6.730   6.455   0.978  0.1813 -0.0472  0.4036
   11CHTO  H184 4305   6.694   6.539   0.916  0.9841  0.6248  0.8339
   11CHTO   O64 4306   6.650   6.338   0.960  0.1334 -0.1108  0.0933
   11CHTO  C104 4307   6.636   6.284   0.825  1.2623 -0.0407  0.4842
   11CHTO  H191 4308   6.572   6.340   0.757  1.8238 -0.7625 -0.6662
   11CHTO  C108 4309   6.561   6.153   0.840 -0.4567  0.4373  0.5385
   11CHTO   O71 4310   6.420   6.168   0.878 -0.6328 -0.2785  0.3874
   11CHTO  H171 4311   6.418   6.194   0.968  0.8413  1.9452 -0.1673
   11CHTO   O62 4312   6.713   6.478   1.123 -0.5635  0.2667  0.2128
   11CHTO   C91 4313   6.605   6.569   1.160  0.0012  0.3425 -0.3787
   11CHTO  H178 4314   6.534   6.579   1.077  0.4636  0.1469 -0.7961
   11CHTO   C92 4315   6.670   6.711   1.185 -0.1973 -0.4929  0.0215
   11CHTO  H179 4316   6.761   6.686   1.241 -0.7127 -2.2667  0.0993
   11CHTO   O66 4317   6.714   6.770   1.063  0.1990  0.9635  0.2988
   11CHTO  H166 4318   6.728   6.704   0.998  3.0309  1.6651  0.1551
   11CHTO   C93 4319   6.581   6.814   1.270 -0.1934 -0.2623  0.3453
   11CHTO  H180 4320   6.496   6.840   1.206 -0.3284 -0.6237  0.3768
   11CHTO   N16 4321   6.652   6.938   1.311 -0.2091  0.3705  0.2028
   11CHTO  H172 4322   6.567   7.000   1.334 -0.6839  0.6086 -2.1142
   11CHTO  H173 4323   6.715   6.917   1.397 -1.0506  1.2012  1.0478
   11CHTO   C94 4324   6.528   6.742   1.393  0.3672  0.4548  0.0676
   11CHTO  H181 4325   6.610   6.699   1.451  0.6862 -1.1176 -1.5187
   11CHTO   O61 4326   6.446   6.632   1.348 -0.2743  0.4165  0.3355
   11CHTO   C95 4327   6.512   6.526   1.281 -0.3029 -0.0966 -0.4448
   11CHTO  H182 4328   6.576   6.479   1.355 -1.4684  0.9599  1.2760
   11CHTO  C106 4329   6.413   6.413   1.220  0.1550  0.6501 -0.3929
   11CHTO   O69 4330   6.471   6.281   1.209 -0.2258  0.7903 -0.8656
   11CHTO  H169 4331   6.409   6.221   1.171 -2.2934  2.3914 -0.1437
   11CHTO   O63 4332   6.425   6.859   1.499  0.3197 -0.0248  0.0904
   11CHTO   C96 4333   6.463   6.864   1.653  0.0717  0.2399 -0.6101
   11CHTO  H183 4334   6.492   6.761   1.677  0.0923  0.6756  1.2653
   11CHTO   C98 4335   6.335   6.898   1.735 -0.1249  0.5552  0.2722
   11CHTO  H185 4336   6.293   6.993   1.700  1.4168  1.2104  0.1340
   11CHTO   O67 4337   6.237   6.801   1.701  0.3307  0.1387 -0.0886
   11CHTO  H167 4338   6.170   6.799   1.766 -0.7421 -0.3423 -1.2002
   11CHTO  C102 4339   6.373   6.903   1.891  0.3706 -0.2628 -0.1055
   11CHTO  H189 4340   6.410   6.803   1.920  1.5297  0.2187  0.1201
   11CHTO   N18 4341   6.256   6.933   1.982  0.5505  0.2803  0.2172
   11CHTO  H176 4342   6.235   6.850   2.047 -0.8495  0.3024 -0.1919
   11CHTO  H177 4343   6.169   6.964   1.925 -0.7468 -1.0709  1.4124
   11CHTO  C105 4344   6.492   7.003   1.913  0.7261 -0.1571  0.1462
   11CHTO  H192 4345   6.453   7.094   1.958  0.3995 -0.6343  0.8302
   11CHTO   O65 4346   6.561   7.048   1.797  0.5662  0.0597 -0.0272
   11CHTO  C100 4347   6.574   6.971   1.681 -0.6080  1.0442  0.3051
   11CHTO  H187 4348   6.582   7.043   1.598 -0.7976 -1.5059 -1.9990
   11CHTO  C107 4349   6.718   6.903   1.678  0.1084 -0.1835 -0.5631
   11CHTO   O70 4350   6.746   6.836   1.803  0.0455 -0.1379 -0.2324
   11CHTO  H170 4351   6.765   6.898   1.871 -1.5914  0.6377 -0.4754
   11CHTO   O57 4352   6.593   6.920   2.019 -0.6099 -0.1057  0.6648
   11CHTO   C85 4353   6.640   6.984   2.142 -0.3920 -0.5529 -0.1500
   11CHTO  H157 4354   6.547   7.012   2.196 -0.2652 -0.7742  0.1828
   11CHTO   C83 4355   6.718   7.114   2.102 -0.0812 -0.4285 -0.1992
   11CHTO  H155 4356   6.649   7.190   2.065  1.2673  2.0305  2.1228
   11CHTO   O56 4357   6.808   7.077   1.998 -0.2881 -0.0410 -0.2978
   11CHTO  H135 4358   6.896   7.092   2.025  0.3180  0.5033 -2.5268
   11CHTO   C81 4359   6.777   7.171   2.230 -0.0012 -0.4233  0.5662
   11CHTO  H153 4360   6.696   7.185   2.303  0.7957  0.8779  1.2258
   11CHTO   N14 4361   6.826   7.306   2.213  0.2612 -0.1140 -0.2630
   11CHTO  H141 4362   6.873   7.332   2.306  0.9773 -3.7337  0.4586
   11CHTO  H142 4363   6.740   7.369   2.207  0.3972  0.2842  1.5981
   11CHTO   C79 4364   6.890   7.071   2.291  0.9920  0.5644  0.3632
   11CHTO  H151 4365   6.924   7.115   2.385 -1.3932  2.2379  0.4868
   11CHTO   O52 4366   6.829   6.940   2.320  0.0950  0.2004 -0.3819
   11CHTO   C86 4367   6.726   6.883   2.227 -0.2992 -0.4605 -0.0120
   11CHTO  H158 4368   6.782   6.807   2.168  1.7056  0.2989  0.8470
   11CHTO   C90 4369   6.620   6.799   2.307 -0.0188 -0.3311 -0.7543
   11CHTO   O60 4370   6.517   6.744   2.222  0.1070  0.0919 -0.2013
   11CHTO  H138 4371   6.552   6.667   2.183  0.0309  0.3654 -0.8164
   11CHTO   O50 4372   7.008   7.054   2.203  0.4644 -0.1530 -0.2897
   11CHTO   C73 4373   7.131   6.988   2.185 -0.3468  0.0517 -0.2929
   11CHTO  H145 4374   7.124   6.887   2.229 -1.9009 -0.5554 -1.8565
   11CHTO   C74 4375   7.245   7.075   2.250 -0.1190 -0.0426  0.1901
   11CHTO  H146 4376   7.220   7.076   2.357  0.1126  2.8268  0.2388
   11CHTO   O54 4377   7.367   7.002   2.240 -0.9535 -0.4892  0.4523
   11CHTO  H133 4378   7.400   6.998   2.151 -1.7384 -1.1870  0.1904
   11CHTO   C75 4379   7.238   7.211   2.182 -0.2675 -0.6273  0.2717
   11CHTO  H147 4380   7.142   7.261   2.204 -0.9419 -0.5708 -2.6770
   11CHTO   N13 4381   7.335   7.306   2.240  0.3367  0.0497  0.2079
   11CHTO  H139 4382   7.328   7.402   2.191  1.9706 -0.3231 -0.7689
   11CHTO  H140 4383   7.432   7.260   2.232 -1.2088 -2.8988 -3.3321
   11CHTO   C76 4384   7.265   7.192   2.026 -0.4075  0.2956  0.1736
   11CHTO  H148 4385   7.365   7.149   2.024  0.3190  2.0140 -1.3627
   11CHTO   O49 4386   7.165   7.092   1.971 -0.3338 -0.3840  0.0589
   11CHTO   C77 4387   7.164   6.965   2.033 -0.4114  0.0939  1.1186
   11CHTO  H149 4388   7.254   6.905   2.020 -0.2791  0.6596 -0.6202
   11CHTO   C88 4389   7.054   6.883   1.974  0.4730 -0.0718  0.3205
   11CHTO   O58 4390   7.081   6.863   1.821  0.0268 -0.5062  0.0765
   11CHTO  H136 4391   7.002   6.840   1.777  1.5268 -0.3861 -2.7866
   11CHTO   O51 4392   7.239   7.315   1.948 -0.1655 -0.3576  0.1244
   11CHTO   C78 4393   7.359   7.382   1.864  0.5581  0.4050  0.3311
   11CHTO  H150 4394   7.458   7.356   1.909 -0.2016  0.1017  1.8610
   11CHTO   C80 4395   7.339   7.535   1.875 -0.2397 -0.4609 -0.7898
   11CHTO  H152 4396   7.240   7.561   1.832 -0.1363 -0.5950 -1.1117
   11CHTO   O55 4397   7.349   7.569   2.015 -0.5860 -0.2360 -0.2399
   11CHTO  H134 4398   7.430   7.536   2.049 -0.4544  0.3034 -0.0353
   11CHTO   C84 4399   7.439   7.624   1.795  0.5172  0.4912  0.0121
   11CHTO  H156 4400   7.543   7.608   1.824  0.5636  1.3905  0.3481
   11CHTO   N15 4401   7.423   7.773   1.806 -0.1453 -0.7004 -0.1075
   11CHTO  H143 4402   7.497   7.808   1.738 -0.0490 -1.6983 -0.5213
   11CHTO  H144 4403   7.457   7.798   1.904  1.7656 -2.5007 -0.2751
   11CHTO   C87 4404   7.436   7.568   1.652 -0.1045 -0.5895  0.6526
   11CHTO  H159 4405   7.349   7.605   1.598 -0.2044 -1.1502  0.4234
   11CHTO   O53 4406   7.443   7.407   1.642 -0.2769 -0.4438 -0.1854
   11CHTO   C82 4407   7.350   7.335   1.717 -0.2433  0.0415 -0.0846
   11CHTO  H154 4408   7.247   7.359   1.689 -0.9451 -1.8903  0.7899
   11CHTO   C89 4409   7.366   7.183   1.698 -0.1754  0.1340  0.3099
   11CHTO   O59 4410   7.345   7.149   1.564 -0.4377 -0.2479 -0.0912
   11CHTO  H137 4411   7.376   7.062   1.553  0.9650  0.2509 -0.1667
   11CHTO   O45 4412   7.566   7.630   1.565 -0.0211  0.8179  0.1630
   11CHTO   C67 4413   7.541   7.639   1.426  0.0458  0.7072  0.2908
   11CHTO  H124 4414   7.489   7.551   1.388 -0.7644  1.2895  0.0098
   11CHTO   C65 4415   7.449   7.758   1.397  0.2457 -0.1153 -0.6401
   11CHTO  H122 4416   7.449   7.820   1.487 -2.3105 -0.8824 -0.0657
   11CHTO   O44 4417   7.316   7.713   1.383  0.2470 -0.9889  0.0720
   11CHTO  H102 4418   7.305   7.639   1.440  1.8214 -0.8857  0.5222
   11CHTO   C63 4419   7.495   7.846   1.285 -0.0605 -0.6872 -0.7787
   11CHTO  H120 4420   7.588   7.894   1.318  0.2109 -0.9866 -1.0979
   11CHTO   N11 4421   7.399   7.957   1.245  0.2571  0.0855 -0.6404
   11CHTO  H108 4422   7.449   8.030   1.185 -0.5311  0.5537 -0.7450
   11CHTO  H109 4423   7.305   7.923   1.207  0.2768  0.8651 -1.3940
   11CHTO   C61 4424   7.534   7.754   1.162 -0.3354 -0.2099 -0.2640
   11CHTO  H118 4425   7.569   7.822   1.083  1.1267  2.1333  2.3312
   11CHTO   O40 4426   7.644   7.672   1.205 -0.2206 -0.3348  0.7596
   11CHTO   C68 4427   7.673   7.650   1.350 -0.2956  0.0476  0.8767
   11CHTO  H125 4428   7.740   7.733   1.382  3.0123 -1.6388 -1.3413
   11CHTO   C72 4429   7.752   7.518   1.359  0.3997 -0.3740 -0.1137
   11CHTO   O48 4430   7.836   7.514   1.244 -0.3404  0.1166  0.2341
   11CHTO  H105 4431   7.911   7.468   1.277  0.3431  3.0335  3.0575
   11CHTO   O38 4432   7.428   7.665   1.118 -0.4604  0.3929 -0.4118
   11CHTO   C55 4433   7.425   7.630   0.978 -0.2251  0.4305  0.4266
   11CHTO  H112 4434   7.519   7.655   0.927  0.1962  0.0526  1.0076
   11CHTO   C56 4435   7.300   7.699   0.907  0.3819  0.1944 -0.6288
   11CHTO  H113 4436   7.212   7.669   0.965  0.6145  0.2172 -0.2662
   11CHTO   O42 4437   7.303   7.848   0.921 -0.6522 -0.3122 -0.0016
   11CHTO  H100 4438   7.318   7.862   1.012  0.5692  1.9090 -0.5174
   11CHTO   C57 4439   7.274   7.656   0.758  0.2861 -0.1214  0.5258
   11CHTO  H114 4440   7.363   7.703   0.714 -0.1086  0.4468  0.3341
   11CHTO   N10 4441   7.153   7.708   0.693 -0.1844  0.1138  0.1728
   11CHTO  H106 4442   7.130   7.807   0.732  0.7219  0.1152  0.7051
   11CHTO  H107 4443   7.065   7.649   0.715 -1.4837  1.7368 -0.4444
   11CHTO   C58 4444   7.285   7.500   0.749 -0.0696 -0.3503 -0.1828
   11CHTO  H115 4445   7.200   7.456   0.805  0.2886  1.4224  1.8192
   11CHTO   O37 4446   7.407   7.455   0.803  0.1637  0.3409 -0.2418
   11CHTO   C59 4447   7.412   7.475   0.945 -0.7358 -0.0658 -0.5980
   11CHTO  H116 4448   7.321   7.436   0.990  0.7886 -0.7304  2.0078
   11CHTO   C70 4449   7.533   7.404   1.000 -0.7200  0.5516  0.6023
   11CHTO   O46 4450   7.534   7.383   1.140 -0.1152  0.1665  0.3003
   11CHTO  H103 4451   7.549   7.292   1.156  1.1001  0.5173  1.1996
   11CHTO   O39 4452   7.297   7.452   0.602 -0.7966  0.1639 -0.3926
   11CHTO   C60 4453   7.182   7.371   0.549 -0.8029  0.4129 -0.2353
   11CHTO  H117 4454   7.085   7.386   0.595 -0.6940 -1.3588  0.5880
   11CHTO   C62 4455   7.156   7.403   0.398 -0.1532  0.1256  0.3669
   11CHTO  H119 4456   7.133   7.512   0.395  0.6461  0.2998  0.6066
   11CHTO   O43 4457   7.275   7.388   0.315 -0.1430 -0.6217 -0.2335
   11CHTO  H101 4458   7.306   7.300   0.308  3.2841  0.6058 -2.0910
   11CHTO   C66 4459   7.022   7.330   0.345 -0.1720  0.4959 -0.5612
   11CHTO  H123 4460   6.939   7.358   0.410  0.0324 -2.3653  1.0337
   11CHTO   N12 4461   6.981   7.371   0.205 -0.1503  0.1724  0.0524
   11CHTO  H110 4462   6.896   7.315   0.169 -0.6930  0.5944  0.6719
   11CHTO  H111 4463   7.059   7.370   0.129 -0.9434 -0.6177 -0.7536
   11CHTO   C69 4464   7.047   7.178   0.361  0.1073 -0.2028  0.5825
   11CHTO  H126 4465   7.129   7.154   0.290 -1.5654 -1.1254 -1.0603
   11CHTO   O41 4466   7.112   7.141   0.508 -0.3371 -0.0721 -0.0052
   11CHTO   C64 4467   7.215   7.216   0.560  0.0131  0.2563  0.6792
   11CHTO  H121 4468   7.305   7.193   0.499  0.0047  2.6751 -0.2897
   11CHTO   C71 4469   7.233   7.159   0.706  0.2744  0.2961 -0.0457
   11CHTO   O47 4470   7.116   7.158   0.791 -0.3687  0.1557  0.1059
   11CHTO  H104 4471   7.084   7.246   0.798  0.4081  0.3871  0.8484
   11CHTO   O34 4472   6.922   7.090   0.335 -0.5689  0.6903  0.9366
   11CHTO   C49 4473   6.783   7.062   0.384  0.1181  0.1893 -0.4372
   11CHTO   H91 4474   6.731   7.149   0.344  1.4613  1.7027  1.0384
   11CHTO   C47 4475   6.782   7.066   0.537  0.4193 -0.7668  0.5469
   11CHTO   H89 4476   6.675   7.076   0.564 -0.6772 -3.6173 -2.3982
   11CHTO   O33 4477   6.858   7.188   0.580 -0.1300 -0.1909  0.0527
   11CHTO   H70 4478   6.925   7.172   0.643 -0.6753 -0.2249  0.6281
   11CHTO   C45 4479   6.845   6.932   0.599 -0.2327  0.6206 -0.7020
   11CHTO   H87 4480   6.952   6.937   0.576  0.0194 -1.1057  0.0409
   11CHTO    N8 4481   6.831   6.937   0.746  0.2197  0.4896  0.3644
   11CHTO   H75 4482   6.813   6.842   0.793  0.4146  0.3669  0.1879
   11CHTO   H76 4483   6.920   6.986   0.783  1.4894 -1.2009 -0.3705
   11CHTO   C43 4484   6.792   6.796   0.533 -0.0719 -0.2610  0.0342
   11CHTO   H85 4485   6.861   6.720   0.570 -0.5121 -1.2439 -1.1483
   11CHTO   O29 4486   6.789   6.811   0.389  0.1011  0.1010  0.0933
   11CHTO   C50 4487   6.720   6.928   0.332  0.6529  0.4826  0.5368
   11CHTO   H92 4488   6.739   6.921   0.224  0.3397  2.5580  0.3305
   11CHTO   C54 4489   6.564   6.921   0.338 -0.3129 -0.8869 -0.3006
   11CHTO   O36 4490   6.503   6.816   0.264 -0.3660  0.2418  0.2935
   11CHTO   H72 4491   6.555   6.744   0.235 -1.5645 -0.6120  0.2571
   11CHTO   O27 4492   6.661   6.770   0.581 -0.3781  0.2121 -0.2350
   11CHTO   C37 4493   6.583   6.659   0.630  0.5773 -0.0061  0.1711
   11CHTO   H79 4494   6.647   6.611   0.705  0.7166  1.3863  0.9718
   11CHTO   C38 4495   6.465   6.725   0.708  0.1703  0.3740  0.1519
   11CHTO   H80 4496   6.397   6.771   0.635  0.3651 -2.5371 -1.9667
   11CHTO   O31 4497   6.526   6.813   0.809  0.4969  0.1449  0.0885
   11CHTO   H68 4498   6.617   6.794   0.818  1.1575  3.0431 -0.0615
   11CHTO   C39 4499   6.374   6.610   0.774 -0.1967  0.2131 -0.2744
   11CHTO   H81 4500   6.434   6.548   0.839  0.3798  0.9839 -0.0615
   11CHTO    N7 4501   6.256   6.670   0.844  0.1290  0.2025 -0.0218
   11CHTO   H73 4502   6.290   6.761   0.891 -0.7151  0.4166  0.1773
   11CHTO   H74 4503   6.228   6.595   0.917 -0.5006  0.4829  0.0288
   11CHTO   C40 4504   6.328   6.512   0.656 -0.1789 -0.3455  0.6354
   11CHTO   H82 4505   6.251   6.551   0.590 -0.1290 -0.0789  0.7338
   11CHTO   O26 4506   6.443   6.464   0.584  0.2002 -0.0680  0.0408
   11CHTO   C41 4507   6.529   6.560   0.523  1.2241 -0.3206  0.5273
   11CHTO   H83 4508   6.463   6.616   0.455 -0.2447 -1.4279  1.0103
   11CHTO   C52 4509   6.636   6.478   0.439 -0.0725 -0.0866 -0.3061
   11CHTO   O35 4510   6.587   6.392   0.329 -0.0483  0.4454  0.0626
   11CHTO   H71 4511   6.560   6.450   0.259 -0.3335  1.4658  1.0047
   11CHTO   O28 4512   6.280   6.384   0.703  0.7783  0.4107 -0.2664
   11CHTO   C42 4513   6.174   6.298   0.652 -0.3490 -0.9931  0.2846
   11CHTO   H84 4514   6.162   6.316   0.546  1.0725 -0.1547  0.2575
   11CHTO   C44 4515   6.035   6.332   0.709 -0.4185  0.6649  0.1709
   11CHTO   H86 4516   6.046   6.350   0.815  0.2009 -0.9275  0.3899
   11CHTO   O32 4517   6.012   6.461   0.653  0.0317  0.2616 -0.0463
   11CHTO   H69 4518   5.990   6.454   0.562  0.6161  0.7705 -0.2326
   11CHTO   C48 4519   5.914   6.235   0.676  0.1927  0.1397 -0.1532
   11CHTO   H90 4520   5.895   6.249   0.569  2.4811 -1.5874 -0.8238
   11CHTO    N9 4521   5.784   6.269   0.748 -0.0897  0.6401 -0.1840
   11CHTO   H77 4522   5.762   6.372   0.721 -2.4993  0.3683  0.6079
   11CHTO   H78 4523   5.713   6.207   0.695  1.0525 -3.4876  2.9180
   11CHTO   C51 4524   5.960   6.088   0.709 -0.1516  0.0643 -0.5032
   11CHTO   H93 4525   5.982   6.084   0.816  0.1729 -0.3244 -0.5844
   11CHTO   O30 4526   6.078   6.063   0.625 -0.2152  0.0481  0.5999
   11CHTO   C46 4527   6.204   6.140   0.672 -0.0188  0.3699  0.4594
   11CHTO   H88 4528   6.229   6.126   0.777 -0.5882  0.5479  0.6213
   11CHTO   C53 4529   6.321   6.098   0.589 -0.2003 -0.1315  0.0766
   11CHTO   O72 4530   6.327   5.957   0.578 -0.3073  0.1971 -0.1823
   11CHTO  H199 4531   6.402   5.923   0.533 -1.2955 -1.6627 -0.4749
   11CHTO   O22 4532   5.866   5.982   0.676  0.0116  0.1944 -0.9550
   11CHTO   C31 4533   5.844   5.873   0.782 -0.4164  0.0850 -0.1267
   11CHTO   H59 4534   5.891   5.907   0.877  0.0661 -0.1422 -0.2841
   11CHTO   C29 4535   5.697   5.846   0.814 -0.1350 -0.1948  0.4653
   11CHTO   H57 4536   5.651   5.806   0.722  2.8807  0.7811 -1.5389
   11CHTO   O21 4537   5.640   5.970   0.851  0.0971 -0.1668 -0.8057
   11CHTO   H37 4538   5.667   5.998   0.936  0.2895  0.7709 -1.1703
   11CHTO   C27 4539   5.660   5.742   0.923  0.0613  0.2059  0.0554
   11CHTO   H55 4540   5.689   5.788   1.019  1.5051  2.0054 -1.2005
   11CHTO    N5 4541   5.514   5.708   0.934 -0.4608  0.0890  0.6089
   11CHTO   H43 4542   5.463   5.699   0.840  0.7902  1.5705 -0.2516
   11CHTO   H44 4543   5.494   5.633   1.009 -0.3740  0.4583  1.0028
   11CHTO   C25 4544   5.748   5.613   0.913  0.3726  0.3720  0.6318
   11CHTO   H53 4545   5.707   5.555   0.828  1.9819 -0.4159  0.3846
   11CHTO   O17 4546   5.884   5.642   0.870  0.2380 -0.5890 -0.1168
   11CHTO   C32 4547   5.899   5.730   0.756 -0.2839 -0.1463  0.4688
   11CHTO   H60 4548   5.855   5.686   0.667  0.4565  0.4644 -0.2033
   11CHTO   C36 4549   6.052   5.719   0.737  0.5639 -0.0256  0.2701
   11CHTO   O25 4550   6.100   5.779   0.615 -0.0984 -0.6462 -0.1128
   11CHTO   H40 4551   6.185   5.812   0.636 -0.0636 -0.2263 -0.8513
   11CHTO   O15 4552   5.741   5.523   1.052 -0.1025 -0.0034  0.2207
   11CHTO   C19 4553   5.660   5.417   1.110  0.3916  0.2370  0.0081
   11CHTO   H47 4554   5.725   5.354   1.172  0.0150  0.0787  0.2473
   11CHTO   C20 4555   5.549   5.484   1.201  0.7738 -0.4473 -0.4831
   11CHTO   H48 4556   5.485   5.552   1.144  0.0388  1.0820  2.0725
   11CHTO   O19 4557   5.618   5.560   1.298  0.2583 -0.4283 -0.2702
   11CHTO   H35 4558   5.670   5.630   1.263  1.7739 -1.1614  0.4651
   11CHTO   C21 4559   5.465   5.358   1.261 -0.4148  0.1179  0.1143
   11CHTO   H49 4560   5.532   5.296   1.321 -2.1957 -0.1051  1.9328
   11CHTO    N4 4561   5.355   5.400   1.350  0.1334  0.0306  0.7729
   11CHTO   H41 4562   5.256   5.363   1.328 -0.4830  0.2769  2.9979
   11CHTO   H42 4563   5.377   5.366   1.450 -4.1420 -1.3415  1.3482
   11CHTO   C22 4564   5.411   5.274   1.141  0.3511 -0.2474  0.3890
   11CHTO   H50 4565   5.344   5.332   1.077  0.8161 -1.5656 -1.3376
   11CHTO   O14 4566   5.523   5.222   1.067 -0.3399  0.1229  0.3442
   11CHTO   C23 4567   5.604   5.325   0.999 -0.0678  0.0602  0.3682
   11CHTO   H51 4568   5.544   5.382   0.926  2.1062  4.0710  1.5442
   11CHTO   C34 4569   5.708   5.251   0.916  0.9757 -0.6546  0.7567
   11CHTO   O23 4570   5.770   5.315   0.801  0.6535 -0.1454 -0.1576
   11CHTO   H38 4571   5.712   5.357   0.740  0.9166 -0.0647 -0.3540
   11CHTO   O16 4572   5.334   5.162   1.175  0.3265  0.0392 -0.4521
   11CHTO   C24 4573   5.247   5.105   1.026  0.1584 -0.0938 -0.0503
   11CHTO   H52 4574   5.279   5.158   0.936  0.4448 -0.1792  0.0033
   11CHTO   C26 4575   5.095   5.118   1.042  0.0141 -0.1681 -0.3817
   11CHTO   H54 4576   5.057   5.052   1.124 -3.5037  0.9488 -1.0064
   11CHTO   O20 4577   5.071   5.258   1.067  0.2321  0.6328  0.3111
   11CHTO   H36 4578   5.007   5.268   1.135 -1.0598 -0.0664 -0.7965
   11CHTO   C30 4579   5.025   5.075   0.910  0.0741 -0.0531  0.1106
   11CHTO   H58 4580   5.060   5.144   0.831  0.6666  1.6559  1.8482
   11CHTO    N6 4581   4.877   5.078   0.914 -0.0849 -0.1684 -0.2405
   11CHTO   H45 4582   4.838   5.131   0.828  1.2645 -0.5222 -1.0854
   11CHTO   H46 4583   4.837   4.978   0.904  0.6175 -0.4789  0.0780
   11CHTO   C33 4584   5.081   4.937   0.863  0.6319 -0.0319 -0.6253
   11CHTO   H61 4585   5.022   4.868   0.925 -0.0562  0.6365 -0.5324
   11CHTO   O18 4586   5.220   4.914   0.885 -0.1376  0.1892  0.3506
   11CHTO   C28 4587   5.283   4.954   1.003 -0.1770  0.0203 -0.5815
   11CHTO   H56 4588   5.237   4.896   1.084  1.7336 -1.8965 -0.8075
   11CHTO   C35 4589   5.431   4.923   0.991  0.2715  0.4614 -0.6994
   11CHTO   O24 4590   5.462   4.791   0.952 -0.5400  0.1213  0.0980
   11CHTO   H39 4591   5.460   4.731   1.024  2.6411 -1.2764 -0.8701
   11CHTO    O9 4592   5.045   4.915   0.725  0.0656  0.2457  0.1517
   11CHTO   C13 4593   5.123   5.010   0.607  0.0507  0.0931 -0.3807
   11CHTO   H26 4594   5.181   5.084   0.664 -2.6104  1.2961  0.8547
   11CHTO   C11 4595   5.008   5.082   0.527 -0.2572  0.5760 -0.7790
   11CHTO   H24 4596   4.955   5.153   0.591 -0.1280  0.6420 -0.7450
   11CHTO    O8 4597   4.917   4.984   0.477 -0.0064 -0.5496 -0.7155
   11CHTO    H3 4598   4.868   4.945   0.547 -1.4541  0.7175 -1.0002
   11CHTO    C9 4599   5.077   5.170   0.419  0.1005  0.5350  0.6082
   11CHTO   H22 4600   5.110   5.263   0.468 -0.3873  1.0635 -0.0649
   11CHTO    N2 4601   4.988   5.226   0.312  0.6453  0.1765 -0.2783
   11CHTO   H10 4602   4.956   5.324   0.343  0.1667  0.1869 -0.7971
   11CHTO   H11 4603   5.042   5.235   0.219  1.1126 -0.4824 -0.0770
   11CHTO    C7 4604   5.202   5.101   0.356 -0.6789  0.2644  0.1738
   11CHTO   H20 4605   5.285   5.151   0.409  0.2478 -0.6601 -0.4024
   11CHTO    O4 4606   5.201   4.956   0.378 -0.2781 -0.0854  0.8054
   11CHTO   C14 4607   5.225   4.929   0.516 -0.3915  0.3976  0.8614
   11CHTO   H27 4608   5.327   4.967   0.538 -1.0172  3.6121 -1.3528
   11CHTO   C18 4609   5.231   4.778   0.533 -0.7727 -0.1353  0.0126
   11CHTO   O13 4610   5.275   4.739   0.665  0.0390  0.7905 -0.1308
   11CHTO    H7 4611   5.342   4.799   0.693  0.2358  0.7451 -0.4941
   11CHTO    O2 4612   5.232   5.135   0.192 -0.3811  0.1109 -0.5532
   11CHTO    C1 4613   5.346   5.225   0.170  0.8697  0.2544  0.1372
   11CHTO   H14 4614   5.423   5.208   0.248 -0.0884 -0.4948  0.9292
   11CHTO    C2 4615   5.305   5.372   0.171 -0.4234  0.2943 -0.4838
   11CHTO   H15 4616   5.222   5.393   0.103 -0.1285  0.4332 -0.8018
   11CHTO    O6 4617   5.255   5.408   0.303  0.1991 -0.0138 -0.1066
   11CHTO    H1 4618   5.184   5.350   0.323  0.5553 -0.5320 -0.3124
   11CHTO    C3 4619   5.420   5.474   0.134 -0.0809 -0.2691 -0.5424
   11CHTO   H16 4620   5.496   5.462   0.212 -0.2651  0.9675 -0.1614
   11CHTO    N1 4621   5.378   5.623   0.136 -0.5493 -0.2003 -0.0432
   11CHTO    H8 4622   5.403   5.690   0.055  1.5798  1.8599  2.2325
   11CHTO    H9 4623   5.285   5.646   0.187 -0.3485 -1.9496  1.1604
   11CHTO    C4 4624   5.492   5.426  -0.000  0.7077 -0.7269  0.0509
   11CHTO   H17 4625   5.432   5.455  -0.087 -1.6016  2.0793  2.4802
   11CHTO    O1 4626   5.516   5.289   0.001 -0.1206 -0.0711  0.1791
   11CHTO    C5 4627   5.414   5.195   0.037 -0.5497  0.0592  0.4994
   11CHTO   H18 4628   5.337   5.206  -0.040  2.5576  0.2291 -2.7143
   11CHTO   C16 4629   5.472   5.056   0.042 -0.6277 -0.1098  0.6666
   11CHTO   O11 4630   5.583   5.043   0.133 -0.3112 -0.0128  0.0660
   11CHTO    H5 4631   5.638   5.119   0.140 -0.1062  0.0209 -1.5555
   11CHTO    O3 4632   5.617   5.496  -0.012  0.3202 -0.0220  0.8055
   11CHTO    C6 4633   5.678   5.515  -0.145  0.1220 -0.6197 -0.1066
   11CHTO   H19 4634   5.636   5.437  -0.209 -1.7904 -1.8798  2.5551
   11CHTO    C8 4635   5.659   5.659  -0.207 -0.1885  0.0557 -0.0807
   11CHTO   H21 4636   5.681   5.731  -0.128 -1.4565 -1.2943  1.5623
   11CHTO    O7 4637   5.519   5.666  -0.234 -0.2721  0.2865  0.5342
   11CHTO    H2 4638   5.487   5.739  -0.284  0.3927  0.0182 -0.3042
   11CHTO   C12 4639   5.746   5.682  -0.331  0.6541 -0.2086  0.1885
   11CHTO   H25 4640   5.708   5.620  -0.415 -0.4079 -0.9064  1.1778
   11CHTO    N3 4641   5.724   5.821  -0.385 -0.5864  0.2600 -0.9402
   11CHTO   H12 4642   5.736   5.888  -0.302 -1.6710 -2.2511  1.3485
   11CHTO   H13 4643   5.620   5.823  -0.413 -0.9567  2.2962  0.5278
   11CHTO   C15 4644   5.895   5.639  -0.297 -0.0278  0.1372 -0.2752
   11CHTO   H28 4645   5.934   5.701  -0.216 -0.1836  1.4546 -1.2141
   11CHTO   O10 4646   5.981   5.619  -0.396 -0.4005 -0.0273 -0.2273
   11CHTO    H4 4647   5.936   5.584  -0.470 -0.2110 -1.2631  0.2269
   11CHTO    O5 4648   5.891   5.502  -0.256  0.2445 -0.2953  0.1425
   11CHTO   C10 4649   5.830   5.481  -0.130 -0.1428  0.4847  0.1682
   11CHTO   H23 4650   5.871   5.548  -0.054  0.8306 -1.1054  1.0831
   11CHTO   C17 4651   5.864   5.338  -0.086  0.0802  0.0711  0.1112
   11CHTO   O12 4652   5.783   5.238  -0.148 -0.1808 -0.0958 -0.7964
   11CHTO    H6 4653   5.772   5.168  -0.086 -1.8844  0.9520  0.1342
   12CHTO  H203 4654   5.285   2.006   2.295 -0.7565  0.0797  1.4701
   12CHTO   O82 4655   5.341   1.932   2.304 -0.7552 -0.1180 -0.0206
   12CHTO  C123 4656   5.328   1.884   2.433  0.8747  0.0853 -0.3732
   12CHTO  H227 4657   5.344   1.967   2.502  0.7913 -0.1664 -0.0515
   12CHTO   O77 4658   5.189   1.842   2.450 -0.1169  0.7577  0.2150
   12CHTO  C118 4659   5.151   1.788   2.574 -0.4341  0.4001 -0.6772
   12CHTO  H222 4660   5.166   1.858   2.658 -2.9247  0.1043  0.0445
   12CHTO  C125 4661   5.001   1.752   2.554  0.2999 -0.4316 -0.8383
   12CHTO   O84 4662   4.942   1.877   2.536  0.0308 -0.1521  0.3064
   12CHTO  H205 4663   4.858   1.870   2.494 -0.0813  1.4218  0.2087
   12CHTO  C114 4664   5.241   1.666   2.597  0.2176  0.1088  0.0005
   12CHTO  H218 4665   5.229   1.593   2.517  1.8042 -1.0324  0.7938
   12CHTO  C116 4666   5.397   1.708   2.594  0.1785  0.3376 -0.2696
   12CHTO  H220 4667   5.413   1.785   2.673 -3.2448  0.5904  0.2488
   12CHTO   O79 4668   5.477   1.594   2.622 -0.3267 -0.2780  0.1108
   12CHTO  H201 4669   5.453   1.522   2.566 -2.4058 -0.4166  1.1294
   12CHTO  C120 4670   5.433   1.769   2.455  0.1039 -0.5647  0.2239
   12CHTO  H224 4671   5.422   1.682   2.387  0.2121 -0.1845 -0.2778
   12CHTO   N21 4672   5.575   1.825   2.450  0.5562  0.1790  0.1813
   12CHTO  H211 4673   5.634   1.756   2.509 -0.9090 -1.1630  0.1197
   12CHTO  H212 4674   5.599   1.823   2.345  0.6441 -1.4362  0.2152
   12CHTO   O75 4675   5.201   1.625   2.723 -0.0998  0.1478 -0.6121
   12CHTO  C112 4676   5.177   1.458   2.734  0.1859  0.0879 -0.2386
   12CHTO  H216 4677   5.230   1.413   2.649  2.4320 -0.0138  1.1580
   12CHTO   O73 4678   5.036   1.440   2.730  0.4113 -0.1993 -0.0713
   12CHTO  C113 4679   4.996   1.310   2.703  0.0320  0.1305 -0.8609
   12CHTO  H217 4680   5.049   1.273   2.613  0.5169  2.0002 -1.3721
   12CHTO  C124 4681   4.846   1.308   2.666 -0.2702  0.1143 -0.2498
   12CHTO   O83 4682   4.803   1.177   2.619 -0.3010  0.1087 -0.1554
   12CHTO  H204 4683   4.716   1.150   2.644 -1.8412  3.1851 -1.9238
   12CHTO  C109 4684   5.029   1.220   2.825 -0.6482 -0.4029  0.3250
   12CHTO  H213 4685   4.979   1.262   2.913  2.1789 -0.1202  1.8536
   12CHTO  C110 4686   5.192   1.229   2.851  0.6921 -0.1958  0.3238
   12CHTO  H214 4687   5.254   1.198   2.767 -1.2085  0.8528 -1.5241
   12CHTO   O78 4688   5.215   1.149   2.972  0.2083  0.1125 -0.7658
   12CHTO  H200 4689   5.306   1.138   2.992 -0.4721 -3.7981  0.6040
   12CHTO  C111 4690   5.223   1.384   2.868 -0.4817  0.4790 -0.3003
   12CHTO  H215 4691   5.157   1.418   2.949 -1.8283 -1.4414 -0.5698
   12CHTO   N19 4692   5.366   1.407   2.909  0.0395 -0.7336  0.2313
   12CHTO  H207 4693   5.434   1.353   2.845  0.5611  0.2076 -0.0119
   12CHTO  H208 4694   5.380   1.513   2.918 -0.1921 -0.8980  2.8088
   12CHTO   O74 4695   4.979   1.083   2.804 -0.0324  0.3048  0.3898
   12CHTO  C115 4696   4.900   1.022   2.910  0.4995  0.9538 -0.2605
   12CHTO  H219 4697   4.944   1.039   3.009 -0.3544 -1.1399  0.5084
   12CHTO   O76 4698   4.765   1.078   2.920 -0.4703 -0.2315  0.4263
   12CHTO  C122 4699   4.670   1.009   3.008  0.1010  0.0618 -0.3807
   12CHTO  H226 4700   4.578   1.064   2.990  0.2582  0.7331  0.8527
   12CHTO  C126 4701   4.704   1.029   3.157  0.4589 -0.0527  0.0041
   12CHTO   O85 4702   4.674   1.170   3.183  0.3901 -0.2820 -0.4482
   12CHTO  H206 4703   4.753   1.213   3.158  0.1956  0.5125  0.2834
   12CHTO  C121 4704   4.667   0.855   2.973 -0.8603 -1.2589 -0.1855
   12CHTO  H225 4705   4.599   0.809   3.048 -2.2554 -0.7962 -1.1520
   12CHTO   O81 4706   4.603   0.848   2.844  0.9587 -0.2520  0.2744
   12CHTO  H202 4707   4.666   0.828   2.778 -1.1754 -1.4345 -1.4317
   12CHTO  C119 4708   4.806   0.786   2.983  0.1763 -0.1139  0.1484
   12CHTO  H223 4709   4.848   0.809   3.081 -0.8623  1.1860  0.2893
   12CHTO  C117 4710   4.891   0.865   2.877  0.3066  0.3822  0.2620
   12CHTO  H221 4711   4.842   0.868   2.779 -0.1744  0.7756  0.5115
   12CHTO   N20 4712   5.022   0.798   2.855  0.0570  0.6658 -0.5097
   12CHTO  H209 4713   5.061   0.772   2.953  0.6954  3.5961  0.0712
   12CHTO  H210 4714   5.079   0.854   2.783  1.2838  1.9594  1.4108
   12CHTO   O80 4715   4.798   0.607   2.983 -0.6263  0.0396  0.4735
   12CHTO  C103 4716   4.704   0.531   2.883  0.4404  0.3446 -0.3391
   12CHTO  H190 4717   4.605   0.577   2.886 -1.6302 -3.8954  0.0215
   12CHTO  C101 4718   4.755   0.522   2.737  0.0853 -0.4148 -0.1812
   12CHTO  H188 4719   4.862   0.500   2.739 -0.3917 -2.8887 -0.1095
   12CHTO   O68 4720   4.743   0.663   2.661  0.7063 -0.3110 -0.4251
   12CHTO  H168 4721   4.658   0.676   2.623 -0.6175 -0.3495  2.3659
   12CHTO   C99 4722   4.684   0.392   2.659 -0.2672 -0.1767 -0.0903
   12CHTO  H186 4723   4.583   0.414   2.617  0.4696  1.4926 -1.0823
   12CHTO   N17 4724   4.761   0.353   2.538  0.0053 -0.0754 -0.1266
   12CHTO  H174 4725   4.723   0.362   2.437  0.9419 -1.9455 -0.6619
   12CHTO  H175 4726   4.866   0.376   2.536 -0.0177 -0.0315 -1.3402
   12CHTO   C97 4727   4.672   0.267   2.756 -0.1779  0.1114  0.2052
   12CHTO  H184 4728   4.775   0.232   2.772  0.3216  1.5816  0.2811
   12CHTO   O64 4729   4.606   0.302   2.881 -0.0787 -0.2203 -0.4587
   12CHTO  C104 4730   4.689   0.388   2.953  0.0786 -0.4123 -0.0530
   12CHTO  H191 4731   4.788   0.347   2.973  0.2870 -0.5733 -1.3761
   12CHTO  C108 4732   4.622   0.408   3.092 -0.3648 -0.1964 -0.3345
   12CHTO   O71 4733   4.656   0.301   3.183  0.0526  0.0552 -0.1033
   12CHTO  H171 4734   4.619   0.310   3.268 -1.0384  2.2149 -0.7690
   12CHTO   O62 4735   4.603   0.159   2.695  0.1101  0.0019  0.0023
   12CHTO   C91 4736   4.613   0.024   2.746  0.4613 -0.3249  0.2331
   12CHTO  H178 4737   4.693   0.016   2.820  0.1713  0.2746  0.6160
   12CHTO   C92 4738   4.663  -0.068   2.635  0.1675  0.4324  0.3429
   12CHTO  H179 4739   4.589  -0.058   2.554 -1.2409 -1.7455  1.2992
   12CHTO   O66 4740   4.792  -0.022   2.599  0.7153 -0.1949  0.5284
   12CHTO  H166 4741   4.834  -0.083   2.542  1.5209  3.0028 -2.4571
   12CHTO   C93 4742   4.682  -0.221   2.680  0.5141 -0.0442  0.6957
   12CHTO  H180 4743   4.767  -0.235   2.747 -0.6267 -1.4726  1.8864
   12CHTO   N16 4744   4.712  -0.312   2.561  0.1192  0.1181  0.3795
   12CHTO  H172 4745   4.756  -0.402   2.602  1.4908 -0.4359 -2.2074
   12CHTO  H173 4746   4.628  -0.344   2.502 -1.5435  0.0985  2.6897
   12CHTO   C94 4747   4.554  -0.267   2.752  0.2110 -0.6327  0.1241
   12CHTO  H181 4748   4.474  -0.297   2.685 -0.9966 -0.4050  1.4334
   12CHTO   O61 4749   4.498  -0.166   2.841  0.2908  0.6161 -0.3234
   12CHTO   C95 4750   4.478  -0.032   2.795  0.2601 -0.6265  0.4237
   12CHTO  H182 4751   4.403  -0.032   2.716 -0.1627  1.0344  0.8122
   12CHTO  C106 4752   4.407   0.037   2.914  0.2125  0.2041  0.0118
   12CHTO   O69 4753   4.266   0.023   2.915 -0.4924 -0.0985  0.1820
   12CHTO  H169 4754   4.245   0.020   3.006 -0.4082  0.2531  0.2119
   12CHTO   O63 4755   4.577  -0.396   2.837  0.1893  0.0313  0.2140
   12CHTO   C96 4756   4.682  -0.385   2.960  0.7609 -0.3426  0.0832
   12CHTO  H183 4757   4.710  -0.280   2.968 -2.2235  0.4403  0.9610
   12CHTO   C98 4758   4.794  -0.489   2.950  0.2384 -0.2075  0.0210
   12CHTO  H185 4759   4.744  -0.585   2.928 -2.4191  0.8327  1.3119
   12CHTO   O67 4760   4.883  -0.466   2.841 -0.2065  0.0491 -0.2958
   12CHTO  H167 4761   4.845  -0.432   2.763 -1.1697  0.4433  0.3364
   12CHTO  C102 4762   4.873  -0.507   3.090 -0.0374  0.6243  0.3249
   12CHTO  H189 4763   4.920  -0.410   3.110  0.2239  0.6328 -0.3172
   12CHTO   N18 4764   4.978  -0.613   3.095  0.6608 -0.1597  0.0185
   12CHTO  H176 4765   5.033  -0.598   3.186 -0.8711  0.9433  0.7954
   12CHTO  H177 4766   5.041  -0.620   3.008 -1.0688  0.0648 -1.2715
   12CHTO  C105 4767   4.778  -0.538   3.204 -0.0388  0.2680 -0.5416
   12CHTO  H192 4768   4.731  -0.636   3.194 -2.0550  1.0273  1.1611
   12CHTO   O65 4769   4.674  -0.447   3.206 -0.4116 -0.3071  0.2097
   12CHTO  C100 4770   4.599  -0.429   3.089  0.4142 -0.2219  0.0685
   12CHTO  H187 4771   4.555  -0.526   3.060  1.1109 -0.2131 -1.0572
   12CHTO  C107 4772   4.491  -0.322   3.133 -0.0774 -0.0780  0.1891
   12CHTO   O70 4773   4.555  -0.204   3.171  0.0981 -0.4930 -0.2429
   12CHTO  H170 4774   4.487  -0.140   3.171  0.2249 -0.3359  0.8602
   12CHTO   O57 4775   4.856  -0.517   3.349 -0.0523  0.0592  0.6161
   12CHTO   C85 4776   4.812  -0.580   3.466 -0.8757 -0.2698 -0.1496
   12CHTO  H157 4777   4.735  -0.654   3.436 -0.5741 -0.1912 -1.1203
   12CHTO   C83 4778   4.736  -0.486   3.556  0.4779  0.0189  0.3119
   12CHTO  H155 4779   4.649  -0.454   3.500 -0.3028  0.8901  2.0144
   12CHTO   O56 4780   4.814  -0.373   3.581  0.2077 -0.1362  0.0118
   12CHTO  H135 4781   4.870  -0.381   3.656  1.7797  0.3692 -1.0725
   12CHTO   C81 4782   4.689  -0.555   3.688  0.2530  0.1798 -0.8248
   12CHTO  H153 4783   4.621  -0.637   3.664  0.1543 -0.4724  1.5429
   12CHTO   N14 4784   4.612  -0.463   3.778 -0.5796  0.1422  0.2394
   12CHTO  H141 4785   4.655  -0.463   3.876 -0.6315  1.2457  0.2710
   12CHTO  H142 4786   4.509  -0.490   3.789 -0.6601  0.0854 -0.6109
   12CHTO   C79 4787   4.814  -0.617   3.756 -0.4235 -0.1770 -0.7176
   12CHTO  H151 4788   4.784  -0.679   3.841  0.3915  0.6508  0.1815
   12CHTO   O52 4789   4.892  -0.707   3.670 -0.1619  0.2165 -0.2887
   12CHTO   C86 4790   4.927  -0.650   3.541  0.2943  0.7477  0.0815
   12CHTO  H158 4791   5.015  -0.583   3.549  2.6346 -1.8887 -2.2675
   12CHTO   C90 4792   4.975  -0.771   3.465 -0.3509  0.5574  0.0900
   12CHTO   O60 4793   5.090  -0.742   3.381  0.1420  0.0586 -0.0674
   12CHTO  H138 4794   5.069  -0.745   3.289  0.5625  0.4964 -0.1787
   12CHTO   O50 4795   4.913  -0.531   3.815  0.0515 -0.1615 -0.1468
   12CHTO   C73 4796   4.975  -0.502   3.940  0.4227 -0.0045  0.5777
   12CHTO  H145 4797   4.913  -0.545   4.020 -0.3575  1.1004  0.5741
   12CHTO   C74 4798   4.998  -0.352   3.954  0.4786 -0.6298 -0.5893
   12CHTO  H146 4799   4.900  -0.302   3.951  1.0424  0.4569 -1.0552
   12CHTO   O54 4800   5.047  -0.333   4.091  0.1562 -0.5405  1.0166
   12CHTO  H133 4801   4.974  -0.300   4.140  1.3414  0.8004  1.9271
   12CHTO   C75 4802   5.097  -0.297   3.849 -0.1880 -0.2992  0.2638
   12CHTO  H147 4803   5.054  -0.313   3.749  1.2890 -3.3019  0.0713
   12CHTO   N13 4804   5.117  -0.148   3.851  0.5852  0.3010 -0.1454
   12CHTO  H139 4805   5.153  -0.122   3.949 -0.0645  2.1420 -0.3706
   12CHTO  H140 4806   5.019  -0.103   3.851  0.4999  0.1270  1.1717
   12CHTO   C76 4807   5.232  -0.379   3.862  0.1593 -0.1363 -0.1905
   12CHTO  H148 4808   5.280  -0.375   3.960  2.0027 -1.4905 -0.9885
   12CHTO   O49 4809   5.204  -0.518   3.841 -0.2816  0.0793  0.1561
   12CHTO   C77 4810   5.121  -0.570   3.944 -0.5404 -0.3668 -0.2700
   12CHTO  H149 4811   5.166  -0.540   4.039  1.5071  1.5189 -1.8146
   12CHTO   C88 4812   5.123  -0.724   3.940  0.1086  0.0783  0.0654
   12CHTO   O58 4813   5.241  -0.786   3.993 -0.2207  0.4783 -0.0768
   12CHTO  H136 4814   5.239  -0.780   4.087  0.7922 -0.6101  0.0251
   12CHTO   O51 4815   5.353  -0.351   3.733 -0.6029  0.1578 -0.3982
   12CHTO   C78 4816   5.455  -0.449   3.715  0.0720 -0.2609  0.3384
   12CHTO  H150 4817   5.448  -0.534   3.786 -0.1219  0.7098  1.5163
   12CHTO   C80 4818   5.578  -0.368   3.747 -0.6393  0.0631 -1.0457
   12CHTO  H152 4819   5.583  -0.273   3.690  1.2839 -0.6034 -2.0209
   12CHTO   O55 4820   5.584  -0.327   3.883 -0.0626  0.8378  0.9045
   12CHTO  H134 4821   5.550  -0.391   3.943  1.1503 -0.8417 -0.1903
   12CHTO   C84 4822   5.716  -0.440   3.719 -0.7950 -0.1526  0.6297
   12CHTO  H156 4823   5.715  -0.528   3.783 -0.4384 -1.4352 -1.0831
   12CHTO   N15 4824   5.842  -0.362   3.739  0.5129  0.0218 -0.0351
   12CHTO  H143 4825   5.898  -0.337   3.651 -1.2136  0.1330 -1.1325
   12CHTO  H144 4826   5.908  -0.407   3.810  1.8634  1.5349 -0.3215
   12CHTO   C87 4827   5.717  -0.510   3.580  0.0008  0.1391  0.0996
   12CHTO  H159 4828   5.738  -0.439   3.500  0.0986  0.5157  0.4573
   12CHTO   O53 4829   5.572  -0.593   3.553 -0.1974  0.0834 -0.4188
   12CHTO   C82 4830   5.466  -0.500   3.568  0.2396 -0.3441 -0.1985
   12CHTO  H154 4831   5.483  -0.416   3.501 -1.4056 -0.2779 -0.5414
   12CHTO   C89 4832   5.332  -0.556   3.531 -0.1992  0.9621  0.5549
   12CHTO   O59 4833   5.320  -0.556   3.391  0.5641 -0.0065  0.1599
   12CHTO  H137 4834   5.231  -0.575   3.369  0.4982  0.1206  0.3156
   12CHTO   O45 4835   5.836  -0.618   3.569 -0.1356  0.6079 -1.0472
   12CHTO   C67 4836   5.908  -0.638   3.447  0.3471  0.2889  0.7600
   12CHTO  H124 4837   5.979  -0.718   3.466 -1.3653 -1.1271  1.2794
   12CHTO   C65 4838   5.814  -0.685   3.329 -0.0615 -0.2320  0.3542
   12CHTO  H122 4839   5.713  -0.676   3.370 -0.2691 -0.5493 -0.0844
   12CHTO   O44 4840   5.842  -0.822   3.294 -0.4214  0.9158 -0.3089
   12CHTO  H102 4841   5.852  -0.824   3.201  2.2393  0.0761 -0.0462
   12CHTO   C63 4842   5.823  -0.583   3.204 -0.4146  0.2712  0.0371
   12CHTO  H120 4843   5.787  -0.485   3.233  1.2635  0.9663 -0.1926
   12CHTO   N11 4844   5.726  -0.617   3.092  0.5377 -0.1558 -0.1825
   12CHTO  H108 4845   5.769  -0.680   3.017  0.5639 -0.7387  0.3124
   12CHTO  H109 4846   5.700  -0.523   3.049 -1.1027  0.2198  1.5536
   12CHTO   C61 4847   5.971  -0.550   3.160 -1.2671  0.6473  0.2201
   12CHTO  H118 4848   5.979  -0.460   3.096  0.1152  0.1246 -0.3755
   12CHTO   O40 4849   6.050  -0.523   3.273  0.4237  0.0764  0.1438
   12CHTO   C68 4850   5.994  -0.515   3.405 -0.2126 -0.5913 -0.4510
   12CHTO  H125 4851   5.937  -0.420   3.411  1.4388  0.3476  1.0520
   12CHTO   C72 4852   6.114  -0.488   3.491 -0.6228 -0.1114  0.0522
   12CHTO   O48 4853   6.202  -0.597   3.519 -0.1192 -0.4815 -0.2571
   12CHTO  H105 4854   6.188  -0.637   3.603 -0.3720 -2.5716 -1.2497
   12CHTO   O38 4855   6.037  -0.656   3.098  0.0270 -0.5783  0.0928
   12CHTO   C55 4856   6.134  -0.631   2.987 -0.1719 -0.0467  0.0320
   12CHTO  H112 4857   6.171  -0.530   3.008  1.4468 -0.4407 -0.8165
   12CHTO   C56 4858   6.076  -0.645   2.838 -0.1427  0.3287 -0.2532
   12CHTO  H113 4859   6.035  -0.747   2.838 -2.2457  1.1396  0.7714
   12CHTO   O42 4860   5.971  -0.544   2.819 -0.8200 -0.3527 -0.4163
   12CHTO  H100 4861   5.902  -0.538   2.883 -1.4073  0.5975 -1.1194
   12CHTO   C57 4862   6.189  -0.625   2.730 -0.6248  0.5572  0.1374
   12CHTO  H114 4863   6.240  -0.529   2.734  0.5065  0.0873 -1.9865
   12CHTO   N10 4864   6.146  -0.644   2.589 -0.4206  0.2051  0.0088
   12CHTO  H106 4865   6.224  -0.677   2.522  0.1283 -0.7663  1.1134
   12CHTO  H107 4866   6.111  -0.545   2.563  0.9626  1.3436  2.3289
   12CHTO   C58 4867   6.293  -0.731   2.771  0.5791  0.1787  0.7880
   12CHTO  H115 4868   6.243  -0.828   2.788  0.0266  0.5708  1.4132
   12CHTO   O37 4869   6.349  -0.684   2.894 -0.4285 -0.0191 -0.2263
   12CHTO   C59 4870   6.264  -0.710   3.004 -0.8390 -0.0889 -0.2443
   12CHTO  H116 4871   6.241  -0.817   3.010 -1.2787  0.0029 -0.2576
   12CHTO   C70 4872   6.335  -0.676   3.137  0.1608 -0.4109  0.1461
   12CHTO   O46 4873   6.284  -0.747   3.251  0.3188  0.1364  0.9975
   12CHTO  H103 4874   6.330  -0.730   3.331 -0.3063  0.6308  1.2470
   12CHTO   O39 4875   6.419  -0.754   2.650 -0.1969  0.1326 -0.0328
   12CHTO   C60 4876   6.542  -0.817   2.696 -0.5412 -0.7692 -0.3470
   12CHTO  H117 4877   6.576  -0.761   2.784 -0.2264 -1.5198  0.0152
   12CHTO   C62 4878   6.521  -0.969   2.736  0.4567 -0.1199 -0.9372
   12CHTO  H119 4879   6.437  -0.961   2.808  2.3368 -1.6900  1.5221
   12CHTO   O43 4880   6.477  -1.042   2.616  0.0462 -0.0342  0.2086
   12CHTO  H101 4881   6.557  -1.055   2.568  1.6020  0.8980  2.4116
   12CHTO   C66 4882   6.657  -1.024   2.803  0.2117 -0.0543 -0.4168
   12CHTO  H123 4883   6.680  -0.963   2.890  1.4707 -1.8259  0.5187
   12CHTO   N12 4884   6.647  -1.161   2.858  0.5047  0.8265  0.5689
   12CHTO  H110 4885   6.635  -1.236   2.782 -0.3621  1.7106 -0.1836
   12CHTO  H111 4886   6.561  -1.169   2.923  0.8914 -0.4737  0.9249
   12CHTO   C69 4887   6.776  -1.016   2.701 -0.2497  0.0576 -0.0341
   12CHTO  H126 4888   6.763  -1.087   2.617 -0.1654 -0.5030  0.4320
   12CHTO   O41 4889   6.781  -0.864   2.642  0.1957  0.1750 -0.0346
   12CHTO   C64 4890   6.658  -0.802   2.596 -0.8830  0.6891  0.2874
   12CHTO  H121 4891   6.625  -0.853   2.503  1.3397  2.7311 -1.6956
   12CHTO   C71 4892   6.696  -0.655   2.559 -0.6293  0.2245  0.4264
   12CHTO   O47 4893   6.615  -0.613   2.451 -0.0891 -0.0649 -0.5297
   12CHTO  H104 4894   6.623  -0.673   2.379 -0.7660 -0.3227 -0.3989
   12CHTO   O34 4895   6.905  -1.036   2.757 -0.7152  0.1597 -0.0817
   12CHTO   C49 4896   7.041  -0.959   2.795 -0.2559 -0.0061  0.0415
   12CHTO   H91 4897   7.088  -0.920   2.704  0.3666 -2.7680 -0.8530
   12CHTO   C47 4898   7.139  -1.058   2.858  0.2595  0.6349  0.1762
   12CHTO   H89 4899   7.234  -1.002   2.871  1.1457 -0.8402  0.1554
   12CHTO   O33 4900   7.157  -1.173   2.766 -0.1913 -0.8875  0.0299
   12CHTO   H70 4901   7.248  -1.178   2.743 -0.0113 -0.3334  0.6088
   12CHTO   C45 4902   7.079  -1.106   2.999 -0.2688  0.3245 -0.3180
   12CHTO   H87 4903   7.022  -1.198   2.978 -0.2792  0.6358 -1.6988
   12CHTO    N8 4904   7.195  -1.144   3.082 -0.3373  0.1245 -0.7994
   12CHTO   H75 4905   7.171  -1.179   3.182 -0.0583 -1.0043 -1.1174
   12CHTO   H76 4906   7.268  -1.065   3.090  1.0940 -0.9992 -2.2646
   12CHTO   C43 4907   6.974  -1.004   3.064  0.0165 -0.5322 -0.1837
   12CHTO   H85 4908   6.879  -1.019   3.013  0.0530  4.0114 -1.8757
   12CHTO   O29 4909   7.024  -0.868   3.037 -0.5622  0.0194 -0.6057
   12CHTO   C50 4910   7.021  -0.839   2.895  0.6709 -0.1549  0.0614
   12CHTO   H92 4911   6.921  -0.807   2.862  1.0667  0.8817 -0.1489
   12CHTO   C54 4912   7.127  -0.725   2.861 -0.1697  0.2653 -0.2763
   12CHTO   O36 4913   7.124  -0.617   2.953  0.2482 -0.1548 -0.7498
   12CHTO   H72 4914   7.120  -0.533   2.911  1.3237  0.0181 -0.5321
   12CHTO   O27 4915   6.941  -1.033   3.201 -0.9069  0.5747 -0.1635
   12CHTO   C37 4916   6.854  -1.026   3.318  0.1506 -0.2065  0.4279
   12CHTO   H79 4917   6.917  -1.044   3.407  1.1249  2.1212  0.2508
   12CHTO   C38 4918   6.781  -0.893   3.334 -0.6187  0.0077  1.3081
   12CHTO   H80 4919   6.703  -0.889   3.257  1.1364  0.9083 -0.4581
   12CHTO   O31 4920   6.873  -0.782   3.312 -0.3835  0.1572 -0.6760
   12CHTO   H68 4921   6.870  -0.763   3.221 -1.7773 -1.8845 -1.0850
   12CHTO   C39 4922   6.710  -0.903   3.467 -0.2429 -0.2635  0.0923
   12CHTO   H81 4923   6.786  -0.926   3.542 -0.0675 -1.1628 -0.3542
   12CHTO    N7 4924   6.644  -0.769   3.489 -0.1746  0.5844  0.2226
   12CHTO   H73 4925   6.540  -0.779   3.514 -0.3853  0.3575 -0.7149
   12CHTO   H74 4926   6.696  -0.715   3.567  1.1449 -0.6870  0.2408
   12CHTO   C40 4927   6.603  -1.027   3.478  0.2536 -0.5323  0.5784
   12CHTO   H82 4928   6.519  -1.000   3.414 -0.3958 -2.1844  0.7058
   12CHTO   O26 4929   6.671  -1.145   3.435 -0.3618 -0.2750 -0.0790
   12CHTO   C41 4930   6.741  -1.130   3.304  0.2494  0.1002 -0.2727
   12CHTO   H83 4931   6.667  -1.099   3.229 -1.2365 -1.9881  0.2875
   12CHTO   C52 4932   6.792  -1.273   3.254 -0.0794 -0.0621  0.2171
   12CHTO   O35 4933   6.889  -1.343   3.334 -0.5407  0.2411  0.3928
   12CHTO   H71 4934   6.866  -1.433   3.348  3.4952 -0.7664  1.0150
   12CHTO   O28 4935   6.565  -1.059   3.608  0.2997  0.1978  0.2179
   12CHTO   C42 4936   6.441  -1.132   3.641 -0.1348 -0.7339  0.1898
   12CHTO   H84 4937   6.458  -1.156   3.746  2.3212  0.3927  0.0754
   12CHTO   C44 4938   6.419  -1.270   3.575  0.6781 -0.6422  0.6749
   12CHTO   H86 4939   6.423  -1.252   3.467 -1.4958 -2.6068  0.2157
   12CHTO   O32 4940   6.529  -1.360   3.608  0.4125  0.7198 -0.0130
   12CHTO   H69 4941   6.615  -1.321   3.607  0.7678 -0.0645 -0.5429
   12CHTO   C48 4942   6.279  -1.340   3.603 -0.0155  0.1262  0.6475
   12CHTO   H90 4943   6.287  -1.378   3.705 -1.3687  0.0872  0.7468
   12CHTO    N9 4944   6.256  -1.467   3.517 -0.4318 -0.5771 -0.3164
   12CHTO   H77 4945   6.167  -1.527   3.526 -0.1393 -0.8366  0.9957
   12CHTO   H78 4946   6.340  -1.534   3.511 -0.3066 -0.2216 -2.8336
   12CHTO   C51 4947   6.167  -1.235   3.584 -0.2142 -0.2822 -0.3520
   12CHTO   H93 4948   6.157  -1.198   3.482 -1.0578  1.1594  0.2496
   12CHTO   O30 4949   6.205  -1.123   3.674 -0.5490 -0.6492 -0.5834
   12CHTO   C46 4950   6.320  -1.034   3.635 -0.0696 -0.2474  0.0489
   12CHTO   H88 4951   6.306  -0.997   3.534 -1.0392 -0.6373  0.0299
   12CHTO   C53 4952   6.336  -0.908   3.727 -0.1842  0.1770  0.7343
   12CHTO   O72 4953   6.229  -0.816   3.720  0.2821 -0.2816  0.0378
   12CHTO  H199 4954   6.188  -0.810   3.635  0.2478  0.5736  0.1106
   12CHTO   O22 4955   6.042  -1.288   3.635  0.0599 -0.0283  0.2991
   12CHTO   C31 4956   5.919  -1.209   3.630 -0.1194  0.0204  0.4869
   12CHTO   H59 4957   5.840  -1.274   3.672 -0.0507  0.0372  0.6410
   12CHTO   C29 4958   5.914  -1.078   3.707  0.6665 -0.2597  0.0836
   12CHTO   H57 4959   5.986  -0.999   3.683  0.3047 -0.1018 -0.4851
   12CHTO   O21 4960   5.959  -1.112   3.840  0.0491  0.1102  0.0308
   12CHTO   H37 4961   5.890  -1.156   3.886  0.6572  0.2916  1.1387
   12CHTO   C27 4962   5.770  -1.015   3.714  0.3231 -0.6964  0.9750
   12CHTO   H55 4963   5.698  -1.089   3.754 -0.9064  0.1675  0.4045
   12CHTO    N5 4964   5.757  -0.892   3.787  0.3189 -0.6070 -0.0166
   12CHTO   H43 4965   5.654  -0.865   3.808  0.7369  0.3422  0.8841
   12CHTO   H44 4966   5.823  -0.896   3.872  0.2500 -0.0226  0.0712
   12CHTO   C25 4967   5.723  -1.000   3.563  0.5438  0.2218 -0.4788
   12CHTO   H53 4968   5.786  -0.921   3.519 -1.5879  1.4047 -1.4819
   12CHTO   O17 4969   5.724  -1.129   3.489  0.2310  0.5038 -0.2487
   12CHTO   C32 4970   5.859  -1.175   3.482 -0.4482  0.2831 -0.0785
   12CHTO   H60 4971   5.929  -1.108   3.432 -2.6294  1.7548 -1.2435
   12CHTO   C36 4972   5.840  -1.305   3.398  0.5910 -0.8268  0.2052
   12CHTO   O25 4973   5.818  -1.277   3.261  0.3149 -0.1586  0.3381
   12CHTO   H40 4974   5.777  -1.345   3.212 -0.3623  0.5455 -0.1026
   12CHTO   O15 4975   5.569  -0.941   3.551 -0.8131  0.1638  0.1798
   12CHTO   C19 4976   5.447  -0.959   3.472 -0.3460 -0.4177 -0.7965
   12CHTO   H47 4977   5.393  -0.864   3.485 -0.4500 -0.5941  0.0857
   12CHTO   C20 4978   5.472  -0.985   3.325  0.5066  0.1080 -0.1751
   12CHTO   H48 4979   5.521  -1.082   3.306 -0.1142 -0.2267 -0.0599
   12CHTO   O19 4980   5.571  -0.891   3.281 -0.4991  0.8444  0.1899
   12CHTO   H35 4981   5.607  -0.924   3.200 -0.2890  0.9872  0.2241
   12CHTO   C21 4982   5.338  -0.981   3.243  0.6365 -0.2454  0.1084
   12CHTO   H49 4983   5.295  -0.881   3.248  0.0096 -0.6088  2.8068
   12CHTO    N4 4984   5.359  -1.016   3.099  0.1176 -0.2705  0.4988
   12CHTO   H41 4985   5.290  -0.977   3.026  1.7735 -1.8476 -2.0053
   12CHTO   H42 4986   5.381  -1.121   3.085  0.7055  0.1048 -1.5211
   12CHTO   C22 4987   5.234  -1.076   3.312  0.0793 -0.3471  0.1727
   12CHTO   H50 4988   5.251  -1.182   3.294  3.3868  0.2919 -0.6523
   12CHTO   O14 4989   5.228  -1.056   3.452  0.2152 -0.0483  0.1323
   12CHTO   C23 4990   5.349  -1.065   3.527 -0.3457  0.0421 -0.1165
   12CHTO   H51 4991   5.388  -1.168   3.518 -1.1282 -0.3574  0.9628
   12CHTO   C34 4992   5.323  -1.043   3.673 -0.2018  0.7759  0.0084
   12CHTO   O23 4993   5.256  -1.156   3.733 -0.5085 -0.3320  0.2090
   12CHTO   H38 4994   5.269  -1.150   3.825 -1.8727 -2.1706  0.5398
   12CHTO   O16 4995   5.098  -1.048   3.273 -0.3707  0.1345  0.0862
   12CHTO   C24 4996   5.019  -1.178   3.198  0.9494  0.4233 -0.1030
   12CHTO   H52 4997   5.086  -1.261   3.178 -1.3435 -1.6529  0.6912
   12CHTO   C26 4998   4.963  -1.131   3.061  0.1543 -0.1080  0.8617
   12CHTO   H54 4999   4.907  -1.036   3.075  0.5551  0.7648 -2.8755
   12CHTO   O20 5000   5.073  -1.100   2.969  0.0473  0.0300 -0.3114
   12CHTO   H36 5001   5.106  -1.182   2.937 -0.4046 -0.6472  0.8796
   12CHTO   C30 5002   4.872  -1.238   2.994 -0.2756 -0.7935 -0.3980
   12CHTO   H58 5003   4.938  -1.314   2.950 -0.2408 -0.4307 -0.9800
   12CHTO    N6 5004   4.795  -1.179   2.881 -0.0008  0.7304  0.0571
   12CHTO   H45 5005   4.858  -1.113   2.824  0.2590  1.3258  1.0185
   12CHTO   H46 5006   4.713  -1.118   2.916  0.4392  1.8462 -0.8280
   12CHTO   C33 5007   4.781  -1.309   3.092  0.0076  0.5391  0.2481
   12CHTO   H61 5008   4.693  -1.245   3.108 -1.2819 -0.5485 -2.2701
   12CHTO   O18 5009   4.844  -1.335   3.224  0.3501  0.0479  0.0599
   12CHTO   C28 5010   4.906  -1.224   3.295  0.1145  0.0688  0.7615
   12CHTO   H56 5011   4.840  -1.140   3.313 -1.1995 -0.4876 -1.3269
   12CHTO   C35 5012   4.961  -1.265   3.432  0.8424  0.0246  0.1213
   12CHTO   O24 5013   4.873  -1.301   3.541 -0.3841 -1.0579  0.3333
   12CHTO   H39 5014   4.785  -1.270   3.528  0.0415  0.0872  0.1397
   12CHTO    O9 5015   4.727  -1.431   3.029 -0.1084 -0.2022 -0.5443
   12CHTO   C13 5016   4.810  -1.565   3.021  0.6450  0.1973  0.8048
   12CHTO   H26 5017   4.915  -1.548   3.052  0.9467  0.6867 -0.4540
   12CHTO   C11 5018   4.804  -1.615   2.874  0.1148 -0.5311 -0.1031
   12CHTO   H24 5019   4.866  -1.548   2.811 -1.2859 -0.5043 -1.4893
   12CHTO    O8 5020   4.672  -1.593   2.825  0.1528  0.1334 -0.8109
   12CHTO    H3 5021   4.665  -1.641   2.745 -0.4564 -0.0344 -0.6611
   12CHTO    C9 5022   4.850  -1.764   2.871 -0.9120 -0.1280  0.3067
   12CHTO   H22 5023   4.952  -1.766   2.913 -0.7881 -1.0810 -0.0118
   12CHTO    N2 5024   4.884  -1.798   2.731 -0.0078  0.1045 -0.1353
   12CHTO   H10 5025   4.954  -1.731   2.683  0.8434 -1.0493 -0.5336
   12CHTO   H11 5026   4.793  -1.803   2.673  2.3256  2.1641 -4.2206
   12CHTO    C7 5027   4.755  -1.860   2.958 -0.0785  0.6524  0.1597
   12CHTO   H20 5028   4.827  -1.928   3.008 -0.6829  0.2657  0.5205
   12CHTO    O4 5029   4.674  -1.789   3.054  0.0241 -0.2154 -0.2959
   12CHTO   C14 5030   4.741  -1.677   3.120 -0.7220 -0.2080 -0.2780
   12CHTO   H27 5031   4.824  -1.705   3.188 -1.0495 -1.2518 -0.3035
   12CHTO   C18 5032   4.634  -1.611   3.203 -0.0898  0.6192  0.0157
   12CHTO   O13 5033   4.559  -1.696   3.289  0.0937 -0.0694 -0.2104
   12CHTO    H7 5034   4.495  -1.655   3.343  0.3529  1.1578 -0.8260
   12CHTO    O2 5035   4.650  -1.951   2.859 -0.1565  0.1196  0.4664
   12CHTO    C1 5036   4.565  -2.046   2.922  0.1293 -0.0844 -0.4713
   12CHTO   H14 5037   4.579  -2.045   3.032 -0.6010 -0.5721 -0.3674
   12CHTO    C2 5038   4.598  -2.199   2.881  0.6844  0.9702 -0.0102
   12CHTO   H15 5039   4.575  -2.201   2.773  1.5311  1.2366 -0.1997
   12CHTO    O6 5040   4.734  -2.232   2.906  0.0073 -0.0551  0.3547
   12CHTO    H1 5041   4.773  -2.294   2.847 -1.5438 -1.3039  0.6114
   12CHTO    C3 5042   4.503  -2.303   2.960  0.4761  0.1556 -0.5808
   12CHTO   H16 5043   4.526  -2.290   3.066  0.5136 -2.6405 -0.2035
   12CHTO    N1 5044   4.522  -2.451   2.915  0.2764  0.0162 -0.2007
   12CHTO    H8 5045   4.466  -2.516   2.981  2.0252 -2.2981 -0.9563
   12CHTO    H9 5046   4.498  -2.461   2.811 -0.9505  0.5784  0.0083
   12CHTO    C4 5047   4.350  -2.254   2.948  0.0343  0.0950 -0.3450
   12CHTO   H17 5048   4.316  -2.281   2.848  1.2894 -0.8787 -0.5239
   12CHTO    O1 5049   4.332  -2.109   2.969 -0.3239 -0.4461 -0.4611
   12CHTO    C5 5050   4.413  -2.030   2.883 -0.2256  0.3797 -1.2000
   12CHTO   H18 5051   4.402  -2.065   2.780 -0.6193  0.9402 -1.3532
   12CHTO   C16 5052   4.354  -1.890   2.898 -0.0945  0.4628  0.0558
   12CHTO   O11 5053   4.221  -1.877   2.853  0.2873  0.3245 -0.7568
   12CHTO    H5 5054   4.211  -1.839   2.769 -0.6028 -1.7544 -1.6257
   12CHTO    O3 5055   4.265  -2.317   3.047 -0.2867 -0.3312  0.0742
   12CHTO    C6 5056   4.280  -2.310   3.197  0.6746 -0.4668 -0.1808
   12CHTO   H19 5057   4.385  -2.320   3.226  0.5697 -1.1306 -0.0196
   12CHTO    C8 5058   4.213  -2.180   3.257 -0.6919  0.9944  0.3813
   12CHTO   H21 5059   4.126  -2.159   3.195  0.4796 -0.4685 -1.8412
   12CHTO    O7 5060   4.303  -2.068   3.249  0.1807 -0.1092 -0.1520
   12CHTO    H2 5061   4.264  -1.988   3.278  0.2471  0.4630 -1.6201
   12CHTO   C12 5062   4.170  -2.210   3.406 -0.6156  0.0400  0.1843
   12CHTO   H25 5063   4.253  -2.204   3.479  0.8563 -0.0536 -1.4386
   12CHTO    N3 5064   4.083  -2.100   3.454 -0.0253  0.1345  0.2432
   12CHTO   H12 5065   4.140  -2.007   3.453 -0.9962  0.7353  0.2933
   12CHTO   H13 5066   3.996  -2.088   3.391  0.4260  0.8004 -0.2706
   12CHTO   C15 5067   4.104  -2.346   3.430  0.2642 -1.1956 -0.4059
   12CHTO   H28 5068   4.008  -2.358   3.380 -0.5807 -1.2824  1.2019
   12CHTO   O10 5069   4.074  -2.386   3.590  0.6675  0.4774 -0.0145
   12CHTO    H4 5070   4.010  -2.454   3.585 -0.1879  1.3474 -1.1073
   12CHTO    O5 5071   4.193  -2.446   3.387  0.0907 -0.3246 -0.0571
   12CHTO   C10 5072   4.211  -2.445   3.244 -0.2379 -0.0667 -0.3582
   12CHTO   H23 5073   4.115  -2.444   3.192 -0.2896  1.4949 -0.2595
   12CHTO   C17 5074   4.281  -2.574   3.194  0.1069  0.2926  0.1556
   12CHTO   O12 5075   4.220  -2.694   3.247 -0.5677 -0.1303  0.3530
   12CHTO    H6 5076   4.265  -2.710   3.328 -1.6221 -0.1532  0.9325
   13CHTO  H203 5077   8.278   4.337   1.757  1.0145  0.8446  0.8878
   13CHTO   O82 5078   8.211   4.402   1.769 -0.3701 -0.4382  0.1137
   13CHTO  C123 5079   8.189   4.497   1.664  0.3325 -0.1980 -0.0798
   13CHTO  H227 5080   8.216   4.454   1.567  0.4720  0.7671 -0.4687
   13CHTO   O77 5081   8.042   4.522   1.674  0.0511 -0.5987  0.2430
   13CHTO  C118 5082   7.990   4.628   1.591 -0.4107 -0.2351 -0.3756
   13CHTO  H222 5083   8.024   4.602   1.490  0.1136 -1.1434  0.0291
   13CHTO  C125 5084   7.834   4.611   1.598 -0.3031 -0.6425 -0.1204
   13CHTO   O84 5085   7.778   4.678   1.486  0.1181  1.0442 -0.5531
   13CHTO  H205 5086   7.727   4.616   1.438  2.0606  0.7881 -2.3327
   13CHTO  C114 5087   8.050   4.765   1.632  0.3887  0.1745  0.0559
   13CHTO  H218 5088   8.032   4.774   1.739  0.7994 -2.7142  0.4013
   13CHTO  C116 5089   8.207   4.755   1.609  0.3593 -0.2042 -0.1005
   13CHTO  H220 5090   8.224   4.749   1.499 -0.1877 -1.9044 -0.1015
   13CHTO   O79 5091   8.258   4.881   1.655  0.1621  0.0346  0.1842
   13CHTO  H201 5092   8.322   4.918   1.598 -2.2058  0.9107 -2.0299
   13CHTO  C120 5093   8.267   4.633   1.689 -0.3313 -0.1106  0.2385
   13CHTO  H224 5094   8.252   4.671   1.792  0.8732 -0.1948  0.4469
   13CHTO   N21 5095   8.409   4.608   1.668  0.3201 -0.4745  0.2475
   13CHTO  H211 5096   8.430   4.505   1.695 -3.4639 -0.8716  2.0333
   13CHTO  H212 5097   8.430   4.620   1.563 -2.1911  2.1909  0.0131
   13CHTO   O75 5098   7.983   4.872   1.567 -0.6536 -0.0336 -0.4791
   13CHTO  C112 5099   7.939   5.019   1.655 -0.3424 -0.0896  0.1492
   13CHTO  H216 5100   8.018   5.049   1.725 -0.5904  0.2397  0.2872
   13CHTO   O73 5101   7.818   4.985   1.729 -0.6387 -0.4657 -0.2092
   13CHTO  C113 5102   7.758   5.095   1.803  0.4485 -0.0089 -0.9062
   13CHTO  H217 5103   7.837   5.150   1.858 -0.0990 -0.0174 -0.0989
   13CHTO  C124 5104   7.654   5.038   1.902  0.1317  0.1678 -0.2900
   13CHTO   O83 5105   7.704   4.932   1.986  0.1950  0.4572 -0.1650
   13CHTO  H204 5106   7.632   4.902   2.038 -0.5567  0.5823 -1.1309
   13CHTO  C109 5107   7.708   5.202   1.702  0.1793 -0.2598  0.0440
   13CHTO  H213 5108   7.632   5.152   1.640  0.5666 -0.8715  0.0536
   13CHTO  C110 5109   7.828   5.252   1.612 -0.2333  0.4886  0.3410
   13CHTO  H214 5110   7.894   5.316   1.670 -0.4954 -1.5667  2.9629
   13CHTO   O78 5111   7.783   5.333   1.508  0.2435 -0.2800  0.4449
   13CHTO  H200 5112   7.774   5.283   1.429 -0.3382  1.0410 -0.3333
   13CHTO  C111 5113   7.915   5.137   1.553 -0.4754  0.1420  0.0538
   13CHTO  H215 5114   7.871   5.096   1.461  1.2840  1.5531 -1.4582
   13CHTO   N19 5115   8.053   5.176   1.514  0.5111  0.2032  0.2089
   13CHTO  H207 5116   8.090   5.109   1.438  0.1582 -0.2168  0.4080
   13CHTO  H208 5117   8.121   5.180   1.598 -0.5951  1.3181  1.0690
   13CHTO   O74 5118   7.638   5.306   1.770 -0.0751 -0.0663 -0.0446
   13CHTO  C115 5119   7.537   5.390   1.684 -0.1164 -0.6936 -0.4476
   13CHTO  H219 5120   7.589   5.469   1.630  0.8564  0.3076  1.9046
   13CHTO   O76 5121   7.456   5.308   1.567 -0.4901  0.1068  0.3639
   13CHTO  C122 5122   7.363   5.214   1.610  0.4735  0.1172 -0.9100
   13CHTO  H226 5123   7.422   5.123   1.624 -1.7520 -1.5391 -2.0519
   13CHTO  C126 5124   7.265   5.178   1.488  0.5615  0.0413  0.4289
   13CHTO   O85 5125   7.173   5.072   1.517 -0.4585 -0.0781 -0.3176
   13CHTO  H206 5126   7.205   4.990   1.484  0.3001  1.4558 -3.5855
   13CHTO  C121 5127   7.282   5.265   1.737 -0.1751 -0.2157  0.4368
   13CHTO  H225 5128   7.174   5.242   1.719 -0.0763 -0.1332 -0.2594
   13CHTO   O81 5129   7.317   5.202   1.860  0.1596  0.0390  0.0695
   13CHTO  H202 5130   7.304   5.110   1.854 -0.4488  0.1124  0.2632
   13CHTO  C119 5131   7.294   5.418   1.758 -0.1103  0.4907 -0.0470
   13CHTO  H223 5132   7.260   5.469   1.668  0.5673  2.0396  0.5630
   13CHTO  C117 5133   7.439   5.462   1.789 -0.3355 -0.0844 -0.1271
   13CHTO  H221 5134   7.479   5.430   1.885 -1.7703  0.9601  0.8318
   13CHTO   N20 5135   7.456   5.611   1.787  0.1304  0.1063  0.5694
   13CHTO  H209 5136   7.555   5.655   1.775  0.3990 -0.8651 -0.9041
   13CHTO  H210 5137   7.411   5.653   1.876 -2.7412 -0.5101 -0.5440
   13CHTO   O80 5138   7.196   5.467   1.853  0.1810 -0.1414  0.1830
   13CHTO  C103 5139   7.041   5.523   1.802 -0.0080 -0.6827 -0.5513
   13CHTO  H190 5140   7.002   5.578   1.888 -0.4679 -0.2753 -1.0113
   13CHTO  C101 5141   7.040   5.615   1.674 -0.1182 -0.8766  0.4692
   13CHTO  H188 5142   7.081   5.563   1.588 -2.0132 -0.8689 -0.4760
   13CHTO   O68 5143   7.124   5.757   1.696  0.4964 -0.1070 -0.1145
   13CHTO  H168 5144   7.216   5.740   1.687  0.6743 -0.0094  1.4404
   13CHTO   C99 5145   6.888   5.648   1.638 -0.0313 -0.8025  0.6317
   13CHTO  H186 5146   6.846   5.709   1.720  0.0835  1.0765 -0.6680
   13CHTO   N17 5147   6.860   5.734   1.515 -0.0853  0.0941 -0.0342
   13CHTO  H174 5148   6.956   5.749   1.467 -0.8082  1.5283 -1.0982
   13CHTO  H175 5149   6.796   5.820   1.528 -2.2361 -1.5771  0.6790
   13CHTO   C97 5150   6.798   5.524   1.630 -0.2036 -0.3208  0.0839
   13CHTO  H184 5151   6.822   5.466   1.540 -1.0561  0.4269 -0.6249
   13CHTO   O64 5152   6.818   5.443   1.751  0.0619  0.0389  0.4893
   13CHTO  C104 5153   6.947   5.398   1.782 -0.0783  0.2584 -0.1026
   13CHTO  H191 5154   6.989   5.342   1.698 -0.7616 -0.1064 -0.1987
   13CHTO  C108 5155   6.955   5.304   1.897 -0.0766  0.2699  0.0250
   13CHTO   O71 5156   6.862   5.199   1.869 -0.2437 -0.0158 -0.0772
   13CHTO  H171 5157   6.870   5.126   1.927 -1.5390  0.4413  0.7125
   13CHTO   O62 5158   6.656   5.561   1.625  0.0105  0.0585  0.1323
   13CHTO   C91 5159   6.572   5.449   1.586  0.1663 -0.2128  0.4158
   13CHTO  H178 5160   6.626   5.354   1.588  2.2330  0.9227 -0.0613
   13CHTO   C92 5161   6.529   5.469   1.437 -0.4568 -0.6272 -0.0773
   13CHTO  H179 5162   6.480   5.566   1.427  0.2661 -0.0407  1.7147
   13CHTO   O66 5163   6.641   5.465   1.352  0.4118 -0.0461  0.0590
   13CHTO  H166 5164   6.673   5.378   1.333 -0.4206 -0.7739  1.8706
   13CHTO   C93 5165   6.422   5.363   1.389  0.5868 -0.1573  0.6852
   13CHTO  H180 5166   6.477   5.270   1.373 -0.5452 -0.9640  1.3706
   13CHTO   N16 5167   6.366   5.405   1.253  0.3882 -0.2953 -0.4080
   13CHTO  H172 5168   6.438   5.417   1.173  0.5881  2.8463  0.1907
   13CHTO  H173 5169   6.287   5.340   1.218  1.2521 -1.3607 -0.3952
   13CHTO   C94 5170   6.302   5.338   1.496 -0.2642  0.0419 -0.3289
   13CHTO  H181 5171   6.241   5.427   1.514 -0.4084 -0.6125  2.7464
   13CHTO   O61 5172   6.370   5.316   1.627  0.2770 -0.1087  0.1326
   13CHTO   C95 5173   6.442   5.429   1.676 -0.1499 -0.4453 -0.1994
   13CHTO  H182 5174   6.379   5.518   1.675  0.2789 -0.1306  0.3663
   13CHTO  C106 5175   6.487   5.407   1.823 -0.0506 -0.4816  0.3705
   13CHTO   O69 5176   6.559   5.281   1.843  0.5257  0.1509  0.1324
   13CHTO  H169 5177   6.488   5.225   1.869 -0.7794  1.1850 -1.1249
   13CHTO   O63 5178   6.206   5.218   1.446 -0.2385 -0.3749 -0.1192
   13CHTO   C96 5179   6.058   5.208   1.514 -0.2183 -0.0882  0.8944
   13CHTO  H183 5180   5.990   5.147   1.454  0.4687  1.8557 -1.9744
   13CHTO   C98 5181   5.988   5.351   1.530  0.1748 -0.4351 -0.4352
   13CHTO  H185 5182   6.049   5.427   1.580 -0.8046 -0.2175  0.4521
   13CHTO   O67 5183   5.973   5.397   1.397 -0.1186 -0.5229  0.6460
   13CHTO  H167 5184   5.926   5.340   1.338 -1.4985  2.9473 -1.8270
   13CHTO  C102 5185   5.846   5.340   1.606  0.2905  0.3092 -0.3602
   13CHTO  H189 5186   5.773   5.293   1.539  0.6501  0.3833 -0.8028
   13CHTO   N18 5187   5.795   5.470   1.631 -0.0210  0.4450 -0.3781
   13CHTO  H176 5188   5.882   5.534   1.639  1.7573 -2.1999  2.1872
   13CHTO  H177 5189   5.733   5.500   1.548 -0.0879  0.0192 -0.4818
   13CHTO  C105 5190   5.864   5.257   1.733  0.4304  0.3479 -0.1714
   13CHTO  H192 5191   5.926   5.304   1.809  1.6391  0.0750 -0.9848
   13CHTO   O65 5192   5.928   5.136   1.709  0.7271 -0.2438  0.3075
   13CHTO  C100 5193   6.065   5.143   1.656  0.4032 -0.2525 -0.6721
   13CHTO  H187 5194   6.129   5.206   1.719 -0.0367  0.8685 -1.3197
   13CHTO  C107 5195   6.131   4.997   1.665 -0.5641 -0.2995  0.0277
   13CHTO   O70 5196   6.062   4.908   1.587  0.1532 -0.1677 -0.0563
   13CHTO  H170 5197   6.108   4.826   1.591 -0.1208 -0.5250 -3.0965
   13CHTO   O57 5198   5.696   5.236   1.786 -0.5339  0.6156 -0.1955
   13CHTO   C85 5199   5.612   5.121   1.756 -0.4608 -0.4138  0.2342
   13CHTO  H157 5200   5.674   5.060   1.686 -0.7629 -0.9561  0.4367
   13CHTO   C83 5201   5.505   5.159   1.658  0.0108 -0.0158 -0.1189
   13CHTO  H155 5202   5.553   5.200   1.569 -0.0291 -0.7772 -0.4990
   13CHTO   O56 5203   5.431   5.265   1.721 -1.0808 -0.4926  0.5161
   13CHTO  H135 5204   5.387   5.227   1.794 -1.2849 -1.9298 -0.3442
   13CHTO   C81 5205   5.429   5.034   1.618 -0.2687 -0.2249 -0.2111
   13CHTO  H153 5206   5.502   4.965   1.575 -1.8724 -1.0274 -1.6957
   13CHTO   N14 5207   5.332   5.055   1.510  0.4457 -0.1664 -0.0512
   13CHTO  H141 5208   5.332   4.969   1.446  1.2539  0.5542 -1.0378
   13CHTO  H142 5209   5.366   5.138   1.452 -1.8677  1.3372  0.6601
   13CHTO   C79 5210   5.369   4.963   1.745  0.0454 -0.1322 -0.0229
   13CHTO  H151 5211   5.333   4.866   1.713  0.1779  0.0043 -0.5836
   13CHTO   O52 5212   5.475   4.929   1.841  0.3221  1.0919 -0.2672
   13CHTO   C86 5213   5.557   5.037   1.874  0.2291  0.1620 -0.1476
   13CHTO  H158 5214   5.490   5.098   1.937 -0.3975 -1.3142  0.6478
   13CHTO   C90 5215   5.674   4.986   1.961 -0.0284 -0.0444 -0.0009
   13CHTO   O60 5216   5.629   4.935   2.092  0.0932 -0.7227  0.5567
   13CHTO  H138 5217   5.594   4.848   2.087  2.2307 -1.4910 -2.2675
   13CHTO   O50 5218   5.285   5.047   1.821  0.0818 -0.3770  0.3966
   13CHTO   C73 5219   5.148   5.050   1.856  0.5339  0.1638  0.6098
   13CHTO  H145 5220   5.096   4.984   1.785  0.7889 -1.0420  1.5213
   13CHTO   C74 5221   5.084   5.191   1.834  0.2828  0.4967 -0.2557
   13CHTO  H146 5222   5.102   5.228   1.732 -1.5401  1.7424 -0.1523
   13CHTO   O54 5223   4.947   5.174   1.852  0.1014 -0.0352  0.5211
   13CHTO  H133 5224   4.895   5.232   1.799  1.0862  0.1739 -0.2249
   13CHTO   C75 5225   5.138   5.290   1.942  0.0450 -0.1535 -0.8531
   13CHTO  H147 5226   5.247   5.300   1.933  0.2822 -0.5220  1.3481
   13CHTO   N13 5227   5.096   5.434   1.934  0.3292 -0.3321  0.5820
   13CHTO  H139 5228   4.989   5.442   1.920  0.3892 -0.1394  0.2402
   13CHTO  H140 5229   5.156   5.476   1.854 -0.3010  1.2441  0.9126
   13CHTO   C76 5230   5.120   5.235   2.086 -0.6548 -0.7064  0.3595
   13CHTO  H148 5231   5.012   5.219   2.096 -1.0924 -0.2766 -3.0787
   13CHTO   O49 5232   5.182   5.102   2.094 -0.4558 -0.2652  0.0221
   13CHTO   C77 5233   5.132   5.005   2.007  1.1588  0.4159  1.1014
   13CHTO  H149 5234   5.027   4.993   2.033  1.1821 -0.6496  0.7521
   13CHTO   C88 5235   5.195   4.864   2.028  0.9001 -0.0819  0.0655
   13CHTO   O58 5236   5.176   4.793   2.174 -0.0801  0.5373 -0.2168
   13CHTO  H136 5237   5.153   4.847   2.248  0.4471 -1.7704  1.6743
   13CHTO   O51 5238   5.177   5.338   2.212  0.0939 -0.2358  0.3571
   13CHTO   C78 5239   5.330   5.369   2.245 -0.5485  0.4146  0.4257
   13CHTO  H150 5240   5.343   5.421   2.342  0.2296  0.6993  0.1690
   13CHTO   C80 5241   5.404   5.458   2.140  0.7310 -0.2962 -0.3906
   13CHTO  H152 5242   5.379   5.414   2.041 -2.9054 -0.9829  0.7422
   13CHTO   O55 5243   5.338   5.582   2.141  0.4074 -0.2644  0.1469
   13CHTO  H134 5244   5.367   5.635   2.212  0.0860  1.0515 -0.6750
   13CHTO   C84 5245   5.558   5.471   2.155 -0.2196 -0.3472  0.2535
   13CHTO  H156 5246   5.565   5.543   2.236  0.5721 -0.0403 -0.0945
   13CHTO   N15 5247   5.639   5.533   2.042 -0.3159  0.0941  0.1061
   13CHTO  H143 5248   5.737   5.503   2.073 -0.1223 -0.0567 -0.6342
   13CHTO  H144 5249   5.618   5.481   1.951 -2.8893 -0.9337  1.2348
   13CHTO   C87 5250   5.607   5.332   2.189 -0.2090 -0.1286 -0.1160
   13CHTO  H159 5251   5.600   5.264   2.104  1.4076  0.3832 -0.6861
   13CHTO   O53 5252   5.541   5.268   2.299  0.3588  0.5335  0.3722
   13CHTO   C82 5253   5.403   5.236   2.263 -0.5262  0.0363 -0.5325
   13CHTO  H154 5254   5.402   5.167   2.179  3.0677  1.5057 -1.9005
   13CHTO   C89 5255   5.333   5.168   2.384  0.1910  0.3775 -0.8994
   13CHTO   O59 5256   5.390   5.043   2.411  0.0886 -0.1631  0.4327
   13CHTO  H137 5257   5.349   4.980   2.355  0.0671  1.1505 -1.0472
   13CHTO   O45 5258   5.754   5.343   2.236  0.6217 -0.4639  0.0238
   13CHTO   C67 5259   5.831   5.227   2.212  0.1534  0.3284 -0.0924
   13CHTO  H124 5260   5.779   5.153   2.150  0.3570  1.0864 -1.1626
   13CHTO   C65 5261   5.963   5.270   2.137  0.9339 -0.5243 -0.4066
   13CHTO  H122 5262   5.933   5.340   2.059 -0.9211 -1.7898 -0.8588
   13CHTO   O44 5263   6.024   5.153   2.076 -0.4908  0.1045  0.4247
   13CHTO  H102 5264   6.007   5.074   2.125  1.2150 -1.2167 -1.0535
   13CHTO   C63 5265   6.048   5.354   2.235  0.4696  0.3861 -0.4214
   13CHTO  H120 5266   5.986   5.437   2.268 -1.0285 -0.9450  0.1741
   13CHTO   N11 5267   6.172   5.414   2.180  0.1943 -0.0533  0.0834
   13CHTO  H108 5268   6.154   5.518   2.160  3.2234  0.5301  0.1852
   13CHTO  H109 5269   6.259   5.420   2.241  2.6910 -0.6842 -3.2508
   13CHTO   C61 5270   6.088   5.272   2.371  0.4944 -0.4899  0.2675
   13CHTO  H118 5271   6.133   5.347   2.437  0.0146 -0.3317  0.4161
   13CHTO   O40 5272   5.971   5.232   2.434  0.1218 -0.2937 -0.3790
   13CHTO   C68 5273   5.864   5.157   2.356  0.4274 -0.1591  0.3751
   13CHTO  H125 5274   5.771   5.167   2.415 -0.5039 -1.1825 -0.8903
   13CHTO   C72 5275   5.887   4.998   2.343  0.0722  0.0969 -0.2530
   13CHTO   O48 5276   5.911   4.933   2.470  0.4693  0.5301  0.1330
   13CHTO  H105 5277   5.833   4.881   2.480 -0.7028  2.0623 -0.8830
   13CHTO   O38 5278   6.175   5.154   2.368  0.0312  0.5138 -0.3649
   13CHTO   C55 5279   6.282   5.140   2.466 -0.3407  0.1024  0.3463
   13CHTO  H112 5280   6.285   5.030   2.461  0.7649  0.1029  0.8588
   13CHTO   C56 5281   6.252   5.192   2.611 -0.8065 -0.2915  0.3090
   13CHTO  H113 5282   6.234   5.300   2.598 -1.0456 -0.4204 -0.4294
   13CHTO   O42 5283   6.135   5.135   2.671  0.4164  0.3070  0.8656
   13CHTO  H100 5284   6.075   5.151   2.600  0.2421 -0.3915  0.8571
   13CHTO   C57 5285   6.378   5.182   2.711 -0.6773 -0.2533  0.2711
   13CHTO  H114 5286   6.394   5.076   2.726  0.1106 -0.2961 -0.8119
   13CHTO   N10 5287   6.347   5.237   2.847  0.3327 -0.0247  0.0889
   13CHTO  H106 5288   6.255   5.183   2.865  0.4243 -0.0879  0.3554
   13CHTO  H107 5289   6.322   5.342   2.844  0.5130  0.0508  1.2304
   13CHTO   C58 5290   6.500   5.249   2.645 -0.2741 -0.3085 -0.0087
   13CHTO  H115 5291   6.483   5.359   2.647 -0.8600 -0.4027  0.1429
   13CHTO   O37 5292   6.520   5.184   2.519 -0.1273  0.3109  0.0037
   13CHTO   C59 5293   6.415   5.202   2.418  0.2859 -0.1517  0.2314
   13CHTO  H116 5294   6.401   5.308   2.401  0.1437 -0.2624 -0.3701
   13CHTO   C70 5295   6.467   5.136   2.294  0.3128 -0.3296  0.1862
   13CHTO   O46 5296   6.397   5.151   2.170 -0.3426 -0.0071  0.0277
   13CHTO  H103 5297   6.432   5.225   2.124  0.8535 -0.1523  0.7002
   13CHTO   O39 5298   6.644   5.194   2.717 -0.0376  0.0137  0.3688
   13CHTO   C60 5299   6.744   5.296   2.696 -0.1107 -0.1466  0.8359
   13CHTO  H117 5300   6.731   5.332   2.594  0.7494  2.0499  1.4829
   13CHTO   C62 5301   6.729   5.401   2.804  0.1554 -0.3878 -0.2340
   13CHTO  H119 5302   6.619   5.413   2.809  0.1547 -0.5337  0.0900
   13CHTO   O43 5303   6.760   5.346   2.937 -0.3468  0.0380 -0.5321
   13CHTO  H101 5304   6.834   5.288   2.935  0.3269  0.9073 -1.5734
   13CHTO   C66 5305   6.811   5.532   2.767 -0.2346 -0.4963  0.0835
   13CHTO  H123 5306   6.781   5.558   2.665 -0.6538  1.8882  0.7734
   13CHTO   N12 5307   6.786   5.651   2.851 -0.2525 -0.1271  0.1079
   13CHTO  H110 5308   6.848   5.639   2.938  2.6680 -0.2175 -1.9166
   13CHTO  H111 5309   6.819   5.744   2.807  0.5659 -1.3238 -1.8609
   13CHTO   C69 5310   6.964   5.499   2.762 -0.0216 -0.3588 -0.0090
   13CHTO  H126 5311   6.997   5.487   2.868  2.0618 -0.7961 -0.6888
   13CHTO   O41 5312   6.993   5.359   2.670 -0.3991 -0.6689 -0.0279
   13CHTO   C64 5313   6.884   5.241   2.703 -0.0648  0.1868  0.3683
   13CHTO  H121 5314   6.891   5.194   2.803 -1.4008 -0.1663  0.3070
   13CHTO   C71 5315   6.908   5.127   2.610 -0.3707  0.2593 -0.2037
   13CHTO   O47 5316   7.035   5.064   2.636  0.3873 -0.5136 -0.0006
   13CHTO  H104 5317   7.103   5.125   2.658  0.4812 -0.7533  0.3651
   13CHTO   O34 5318   7.071   5.611   2.708  0.2431  0.4896  0.2575
   13CHTO   C49 5319   7.208   5.667   2.703  0.6276 -0.6565  0.0612
   13CHTO   H91 5320   7.273   5.580   2.686 -0.3123 -1.0952 -1.4113
   13CHTO   C47 5321   7.225   5.730   2.841 -0.5333  0.1983 -0.1951
   13CHTO   H89 5322   7.333   5.757   2.833 -0.3561 -0.3394  0.3424
   13CHTO   O33 5323   7.210   5.638   2.952 -0.2079  0.4209  0.0348
   13CHTO   H70 5324   7.258   5.650   3.031 -2.3704 -0.4167  1.5352
   13CHTO   C45 5325   7.124   5.861   2.859  0.6369 -0.9201 -0.4180
   13CHTO   H87 5326   7.038   5.829   2.919 -0.6567 -0.9615 -2.2693
   13CHTO    N8 5327   7.208   5.958   2.937  0.2402 -1.0112 -0.1200
   13CHTO   H75 5328   7.157   6.050   2.962  1.4581 -0.1240 -0.8268
   13CHTO   H76 5329   7.292   5.987   2.875 -1.1885 -0.6696 -1.9594
   13CHTO   C43 5330   7.068   5.910   2.716  0.2607 -0.2199 -0.1549
   13CHTO   H85 5331   6.988   5.839   2.694 -2.5181  2.6715  0.0729
   13CHTO   O29 5332   7.172   5.908   2.627 -0.5795  0.3569  0.5604
   13CHTO   C50 5333   7.223   5.776   2.591 -0.3426 -0.2388 -0.2296
   13CHTO   H92 5334   7.175   5.735   2.501  0.8473 -0.9804 -0.5329
   13CHTO   C54 5335   7.370   5.800   2.542  0.3603 -0.0485 -0.2465
   13CHTO   O36 5336   7.428   5.690   2.474  0.4105 -0.2565 -0.4165
   13CHTO   H72 5337   7.503   5.720   2.427 -0.0872  1.9316  0.1273
   13CHTO   O27 5338   7.013   6.039   2.727  1.1865  0.0295  0.2334
   13CHTO   C37 5339   7.012   6.175   2.755  0.5150 -0.0259 -0.2383
   13CHTO   H79 5340   7.070   6.191   2.847 -0.8560 -0.7665  0.7617
   13CHTO   C38 5341   7.070   6.264   2.643 -0.1384 -0.1399  0.3490
   13CHTO   H80 5342   7.017   6.231   2.553  0.9194 -1.7357  0.2930
   13CHTO   O31 5343   7.215   6.231   2.634 -0.6013  0.0516 -0.2777
   13CHTO   H68 5344   7.223   6.156   2.579  0.7207  0.1211 -0.2038
   13CHTO   C39 5345   7.059   6.420   2.671 -0.0476 -0.7328  0.3062
   13CHTO   H81 5346   7.129   6.446   2.750  2.1800 -1.5498 -1.3390
   13CHTO    N7 5347   7.100   6.504   2.549 -0.4079  0.0626  0.1047
   13CHTO   H73 5348   7.204   6.535   2.555 -0.5655  0.6981 -0.3867
   13CHTO   H74 5349   7.085   6.444   2.461  2.7025 -0.4952 -0.0949
   13CHTO   C40 5350   6.912   6.456   2.722  0.1064  0.7539 -0.1483
   13CHTO   H82 5351   6.842   6.454   2.638  1.1220 -0.5362 -0.9858
   13CHTO   O26 5352   6.874   6.365   2.820  0.0404  0.2054 -0.3972
   13CHTO   C41 5353   6.867   6.224   2.784 -0.0908 -0.2687  0.2485
   13CHTO   H83 5354   6.803   6.214   2.695  1.7683  0.2225 -1.1848
   13CHTO   C52 5355   6.805   6.145   2.905  0.0874 -0.4434 -0.3363
   13CHTO   O35 5356   6.664   6.168   2.922 -0.0183 -0.5846  0.6643
   13CHTO   H71 5357   6.655   6.257   2.949 -0.9055 -0.1844 -0.8500
   13CHTO   O28 5358   6.913   6.584   2.790 -0.2808  0.4951 -0.0030
   13CHTO   C42 5359   6.853   6.704   2.736  0.0367  0.8868 -0.1680
   13CHTO   H84 5360   6.844   6.685   2.629 -2.4577 -0.0958  0.1751
   13CHTO   C44 5361   6.928   6.838   2.764  0.2267 -0.6669  0.1418
   13CHTO   H86 5362   6.940   6.852   2.871  1.1727 -0.6300  0.0307
   13CHTO   O32 5363   7.058   6.811   2.707 -0.5262 -0.2175 -0.0255
   13CHTO   H69 5364   7.118   6.877   2.737  2.2111 -2.8289  0.3753
   13CHTO   C48 5365   6.856   6.959   2.691  0.8546  0.7954  0.0410
   13CHTO   H90 5366   6.856   6.939   2.584 -0.4324  0.5477  0.0766
   13CHTO    N9 5367   6.924   7.091   2.705 -0.0633 -0.4835  0.3901
   13CHTO   H77 5368   6.879   7.163   2.637  1.1433 -0.1114 -0.0205
   13CHTO   H78 5369   6.918   7.116   2.810  0.1638 -1.0033  0.5264
   13CHTO   C51 5370   6.708   6.967   2.737  0.3977  0.4430 -0.3340
   13CHTO   H93 5371   6.701   6.998   2.842 -1.8005 -0.8513 -0.0670
   13CHTO   O30 5372   6.645   6.845   2.713  0.0333 -0.1070  0.1907
   13CHTO   C46 5373   6.709   6.719   2.781 -0.0794 -0.3042  0.1649
   13CHTO   H88 5374   6.711   6.752   2.885 -0.5010 -1.1798  0.4581
   13CHTO   C53 5375   6.609   6.597   2.754  1.0373 -0.1260 -0.3954
   13CHTO   O72 5376   6.485   6.613   2.817  0.4283  0.1800  0.4631
   13CHTO  H199 5377   6.428   6.664   2.761  0.5672 -1.0931 -0.8796
   13CHTO   O22 5378   6.634   7.060   2.652  0.2992 -0.1359  0.4193
   13CHTO   C31 5379   6.504   7.115   2.687 -0.8956 -0.2291  0.1049
   13CHTO   H59 5380   6.482   7.194   2.612  1.2515 -0.1411 -0.4595
   13CHTO   C29 5381   6.379   7.022   2.694 -0.0728 -0.3476  0.3083
   13CHTO   H57 5382   6.387   6.962   2.786 -0.3543  1.5934  1.6527
   13CHTO   O21 5383   6.381   6.950   2.570 -0.3217  0.2424  0.2226
   13CHTO   H37 5384   6.313   6.885   2.576  0.9385 -1.1411 -0.2468
   13CHTO   C27 5385   6.248   7.119   2.704 -0.6228 -0.7417  0.2812
   13CHTO   H55 5386   6.250   7.187   2.618  0.9440 -1.4554 -0.2680
   13CHTO    N5 5387   6.122   7.045   2.703 -0.2204 -0.6016  0.7031
   13CHTO   H43 5388   6.035   7.110   2.701 -1.2038 -1.8824  0.9645
   13CHTO   H44 5389   6.121   6.983   2.614  0.3490 -0.8445  0.8663
   13CHTO   C25 5390   6.263   7.206   2.833 -0.6462  0.0006  0.2326
   13CHTO   H53 5391   6.260   7.138   2.919  0.9632  1.0112  1.1105
   13CHTO   O17 5392   6.386   7.272   2.835 -0.2473 -0.3067  0.5448
   13CHTO   C32 5393   6.506   7.193   2.822  0.1680  0.1858  0.1423
   13CHTO   H60 5394   6.517   7.120   2.902 -1.5471  0.5140  0.7070
   13CHTO   C36 5395   6.621   7.295   2.829  0.4976  0.4387 -0.2150
   13CHTO   O25 5396   6.647   7.327   2.962  0.1918 -0.6837  0.2482
   13CHTO   H40 5397   6.673   7.416   2.977 -1.1218 -0.2132 -0.2219
   13CHTO   O15 5398   6.147   7.319   2.851  0.2788  0.3552  0.4251
   13CHTO   C19 5399   6.024   7.381   2.819 -0.1289 -0.6732  0.8087
   13CHTO   H47 5400   6.022   7.467   2.888 -0.1763  1.6851 -2.0515
   13CHTO   C20 5401   6.033   7.438   2.672  0.2774  0.4440 -0.2826
   13CHTO   H48 5402   6.079   7.364   2.605  1.1248 -0.4633  1.2906
   13CHTO   O19 5403   6.133   7.540   2.671  0.2709 -0.0546 -0.0414
   13CHTO   H35 5404   6.210   7.506   2.628  0.0947 -1.1005  0.4711
   13CHTO   C21 5405   5.895   7.480   2.615 -0.0905  0.5554  0.1806
   13CHTO   H49 5406   5.862   7.571   2.666 -0.0841  0.3128  0.6211
   13CHTO    N4 5407   5.897   7.506   2.474 -0.2513  0.7083  0.0425
   13CHTO   H41 5408   5.925   7.421   2.414  2.9049  2.1782 -0.6552
   13CHTO   H42 5409   5.800   7.538   2.437  0.6358  1.7841 -1.4652
   13CHTO   C22 5410   5.779   7.385   2.660 -0.1071 -0.1384  0.3933
   13CHTO   H50 5411   5.790   7.292   2.604 -0.4316 -0.4592  0.8657
   13CHTO   O14 5412   5.786   7.358   2.802  0.5436  0.4329  0.8363
   13CHTO   C23 5413   5.904   7.292   2.842 -0.3080 -0.4593  0.0281
   13CHTO   H51 5414   5.918   7.192   2.799 -0.1511 -0.5492  0.2820
   13CHTO   C34 5415   5.884   7.265   2.994 -0.3900  0.1136 -0.0092
   13CHTO   O23 5416   5.854   7.388   3.062 -0.1342 -0.1795  0.0001
   13CHTO   H38 5417   5.843   7.365   3.152 -1.4084  1.9990  0.4284
   13CHTO   O16 5418   5.649   7.440   2.622 -0.0629  0.0554  0.0220
   13CHTO   C24 5419   5.523   7.382   2.698 -0.3505  0.4633  0.5663
   13CHTO   H52 5420   5.549   7.340   2.795  0.1482 -0.2922  0.1126
   13CHTO   C26 5421   5.463   7.274   2.608 -0.1871  0.5144 -0.2050
   13CHTO   H54 5422   5.461   7.313   2.504  0.4820  0.2650 -0.3123
   13CHTO   O20 5423   5.553   7.165   2.597  0.0113 -0.5941  0.1272
   13CHTO   H36 5424   5.536   7.122   2.516 -2.1659 -2.8014  1.6678
   13CHTO   C30 5425   5.323   7.222   2.652  0.8207  0.0331 -0.2872
   13CHTO   H58 5426   5.334   7.158   2.740  1.6069  0.1307 -0.3108
   13CHTO    N6 5427   5.259   7.137   2.551 -0.2361 -0.5620  0.7070
   13CHTO   H45 5428   5.182   7.075   2.594  0.0693 -3.3986 -2.5349
   13CHTO   H46 5429   5.320   7.073   2.490 -0.3324 -0.5907  0.6400
   13CHTO   C33 5430   5.232   7.338   2.700 -0.0178 -0.0694  0.1166
   13CHTO   H61 5431   5.207   7.398   2.611  2.4574  0.5666 -0.1861
   13CHTO   O18 5432   5.311   7.424   2.791  0.0138  0.1693  0.5386
   13CHTO   C28 5433   5.421   7.495   2.722 -0.1656 -0.8381 -0.3217
   13CHTO   H56 5434   5.382   7.527   2.626 -0.0647 -0.9796 -0.4108
   13CHTO   C35 5435   5.494   7.598   2.815  0.7198 -0.1637 -0.6778
   13CHTO   O24 5436   5.531   7.710   2.746  0.2510 -0.8822  0.6722
   13CHTO   H39 5437   5.621   7.726   2.764  0.4211 -0.8007 -0.2621
   13CHTO    O9 5438   5.108   7.291   2.760 -0.1410  0.1277  0.1552
   13CHTO   C13 5439   5.093   7.236   2.908  0.1025  0.0984 -0.9262
   13CHTO   H26 5440   5.195   7.230   2.952 -0.9116  0.5909  1.5626
   13CHTO   C11 5441   5.025   7.092   2.884  0.6427  0.0556 -0.0950
   13CHTO   H24 5442   5.096   7.032   2.826  0.2508 -1.9698  1.4403
   13CHTO    O8 5443   4.905   7.095   2.793  0.0703  0.3160 -0.5798
   13CHTO    H3 5444   4.828   7.132   2.833 -0.6708 -0.9191 -0.8554
   13CHTO    C9 5445   5.014   7.031   3.025 -0.4238  0.3695 -0.1503
   13CHTO   H22 5446   5.114   7.036   3.071  0.6717 -2.0301 -2.1594
   13CHTO    N2 5447   4.981   6.888   3.012  0.3642 -0.1922  0.1062
   13CHTO   H10 5448   4.888   6.872   2.959 -0.4284  1.8118  0.8425
   13CHTO   H11 5449   4.963   6.849   3.111 -0.5124 -1.9068 -0.6977
   13CHTO    C7 5450   4.922   7.110   3.121  0.1422  0.4441  0.6897
   13CHTO   H20 5451   4.959   7.061   3.214  2.3033 -2.9912 -1.8629
   13CHTO    O4 5452   4.961   7.250   3.119  0.2965  0.1269 -1.0254
   13CHTO   C14 5453   5.003   7.323   3.002 -0.2748  0.0702 -0.1870
   13CHTO   H27 5454   5.061   7.412   3.031  0.4095 -0.3878 -0.1460
   13CHTO   C18 5455   4.869   7.379   2.940 -0.2385 -0.0276  0.4951
   13CHTO   O13 5456   4.890   7.494   2.851  0.5563  0.5769 -0.0479
   13CHTO    H7 5457   4.817   7.553   2.852  0.3555  0.3309 -0.0191
   13CHTO    O2 5458   4.757   7.094   3.091  0.5795 -0.0996 -0.2898
   13CHTO    C1 5459   4.662   7.111   3.196  0.3559 -0.0335 -0.5960
   13CHTO   H14 5460   4.562   7.107   3.149  0.0252 -0.2020  0.1038
   13CHTO    C2 5461   4.673   7.245   3.283 -0.3344 -0.5496 -0.0450
   13CHTO   H15 5462   4.772   7.254   3.330 -0.1305  1.6684 -0.8376
   13CHTO    O6 5463   4.650   7.361   3.203 -0.4859 -0.0576  0.1163
   13CHTO    H1 5464   4.725   7.368   3.147 -1.4118  0.9351 -1.0418
   13CHTO    C3 5465   4.571   7.242   3.407  0.1713 -0.2467  0.4444
   13CHTO   H16 5466   4.469   7.227   3.369 -0.7278  0.5427  2.4501
   13CHTO    N1 5467   4.575   7.369   3.484 -0.0261 -0.2442  0.2777
   13CHTO    H8 5468   4.607   7.350   3.585  0.8758 -0.4893 -0.0483
   13CHTO    H9 5469   4.635   7.439   3.428 -0.4273 -0.4233 -0.3787
   13CHTO    C4 5470   4.602   7.115   3.490 -0.1173 -0.2336  0.4535
   13CHTO   H17 5471   4.702   7.127   3.531  0.9643 -0.5015 -1.9942
   13CHTO    O1 5472   4.586   7.001   3.408 -0.6169 -0.7488  0.0177
   13CHTO    C5 5473   4.675   6.989   3.298 -0.4147  0.2032 -0.2149
   13CHTO   H18 5474   4.779   7.006   3.328 -0.5174 -0.0482  0.3029
   13CHTO   C16 5475   4.658   6.843   3.231 -0.3125  0.3770 -0.4545
   13CHTO   O11 5476   4.654   6.744   3.333  0.4692 -0.1378  0.0062
   13CHTO    H5 5477   4.737   6.753   3.376  0.3827  0.9259 -0.0355
   13CHTO    O3 5478   4.504   7.099   3.601 -0.3164  0.4423  0.1061
   13CHTO    C6 5479   4.383   7.021   3.599  0.5453 -0.1435 -0.1955
   13CHTO   H19 5480   4.355   6.990   3.498  1.8019 -1.2708 -0.2224
   13CHTO    C8 5481   4.394   6.887   3.692 -0.0006 -0.6102  1.0068
   13CHTO   H21 5482   4.423   6.919   3.792  1.2860 -2.5117  1.2590
   13CHTO    O7 5483   4.505   6.802   3.644  0.5744  0.1557 -0.0731
   13CHTO    H2 5484   4.585   6.844   3.669  0.3602 -0.7240  2.2194
   13CHTO   C12 5485   4.263   6.803   3.681 -0.0940 -0.1213  0.2518
   13CHTO   H25 5486   4.253   6.777   3.574 -0.5006  2.7717 -0.4438
   13CHTO    N3 5487   4.260   6.678   3.769  0.0221 -0.0045 -0.3861
   13CHTO   H12 5488   4.195   6.692   3.854  1.6185  2.0883  0.5196
   13CHTO   H13 5489   4.360   6.654   3.801 -0.5937 -3.6935 -0.9785
   13CHTO   C15 5490   4.145   6.900   3.713 -0.0068 -0.2051 -0.1948
   13CHTO   H28 5491   4.133   6.917   3.820  0.5307 -0.3617 -0.1079
   13CHTO   O10 5492   4.016   6.851   3.644 -0.1741  0.0427 -0.2982
   13CHTO    H4 5493   4.025   6.852   3.551 -1.1840  0.9992 -0.3929
   13CHTO    O5 5494   4.152   7.025   3.636  0.3468 -0.4152  0.1267
   13CHTO   C10 5495   4.269   7.105   3.660  0.4071 -0.6642  0.0015
   13CHTO   H23 5496   4.278   7.124   3.766 -0.3436  1.5294 -0.3089
   13CHTO   C17 5497   4.241   7.242   3.601 -0.2071 -0.5538  0.0516
   13CHTO   O12 5498   4.120   7.308   3.639  0.3944 -0.1949  0.4241
   13CHTO    H6 5499   4.047   7.249   3.642  2.7437 -3.2828 -0.8866
   14CHTO  H203 5500   6.969   4.738   2.114 -0.9297  0.1135 -0.6879
   14CHTO   O82 5501   6.922   4.786   2.180  0.0966 -0.0673  0.1975
   14CHTO  C123 5502   6.787   4.749   2.161 -0.1979 -0.6935  0.0216
   14CHTO  H227 5503   6.725   4.798   2.238  0.3806 -0.7509  0.5348
   14CHTO   O77 5504   6.745   4.803   2.036 -0.1100  0.2278 -0.1487
   14CHTO  C118 5505   6.606   4.782   2.007  0.0014  0.1738 -0.1298
   14CHTO  H222 5506   6.551   4.836   2.085  2.4550 -0.6466  2.2344
   14CHTO  C125 5507   6.575   4.846   1.859  0.2368  0.0245  0.2699
   14CHTO   O84 5508   6.596   4.989   1.855  0.1839  0.8020  0.3818
   14CHTO  H205 5509   6.557   5.028   1.778 -1.0770  0.0582  0.6378
   14CHTO  C114 5510   6.568   4.634   2.007 -0.0238  0.0225  0.6577
   14CHTO  H218 5511   6.623   4.583   1.928  0.5309  1.7521 -0.0978
   14CHTO  C116 5512   6.614   4.560   2.137 -0.1688  0.2680  0.1212
   14CHTO  H220 5513   6.548   4.595   2.218 -1.7647 -1.1772 -0.5282
   14CHTO   O79 5514   6.580   4.419   2.133  0.1771 -0.0696 -0.3307
   14CHTO  H201 5515   6.489   4.399   2.146  0.0734  0.8194  0.4299
   14CHTO  C120 5516   6.769   4.594   2.169  0.4656 -0.8546 -0.1422
   14CHTO  H224 5517   6.824   4.544   2.086  2.7538 -0.4579  1.0846
   14CHTO   N21 5518   6.814   4.536   2.301  0.2390  0.6774 -0.2805
   14CHTO  H211 5519   6.757   4.451   2.336  1.4602  0.5991  1.6260
   14CHTO  H212 5520   6.919   4.513   2.289 -0.1780 -0.5437 -1.7004
   14CHTO   O75 5521   6.433   4.634   1.964 -0.6230  0.0693  0.3979
   14CHTO  C112 5522   6.313   4.630   2.086  0.2159  0.4002  0.1879
   14CHTO  H216 5523   6.356   4.663   2.182 -0.9901  0.7842  0.6013
   14CHTO   O73 5524   6.264   4.494   2.094  0.0894  0.2642  0.1605
   14CHTO  C113 5525   6.145   4.469   2.168 -0.3297 -0.0107 -0.2761
   14CHTO  H217 5526   6.153   4.518   2.268  0.1004 -3.0500  1.2236
   14CHTO  C124 5527   6.117   4.321   2.170 -0.1659 -0.9589  0.0041
   14CHTO   O83 5528   6.229   4.243   2.234 -0.5809 -0.6192 -0.0242
   14CHTO  H204 5529   6.210   4.152   2.224 -0.8837 -0.4872 -0.6594
   14CHTO  C109 5530   6.025   4.542   2.096 -0.1487  0.1954  0.5312
   14CHTO  H213 5531   6.021   4.496   1.996 -0.6261  0.4000  0.4528
   14CHTO  C110 5532   6.054   4.694   2.089  0.3350 -0.0124  0.3029
   14CHTO  H214 5533   6.057   4.730   2.192  3.0757 -0.6111  0.4681
   14CHTO   O78 5534   5.947   4.770   2.022  0.0201  0.5568 -0.0150
   14CHTO  H200 5535   5.930   4.853   2.064  1.0944  0.2181  1.0955
   14CHTO  C111 5536   6.198   4.721   2.032 -0.3281  0.8795 -0.5682
   14CHTO  H215 5537   6.193   4.706   1.924 -0.5399 -1.7471 -0.2330
   14CHTO   N19 5538   6.237   4.867   2.043 -0.2789 -0.1399 -0.0974
   14CHTO  H207 5539   6.221   4.913   1.947 -1.4851  0.8807  0.5856
   14CHTO  H208 5540   6.179   4.919   2.118  0.0152 -0.9950  0.7405
   14CHTO   O74 5541   5.895   4.531   2.167  0.8044 -0.0557  0.6941
   14CHTO  C115 5542   5.795   4.415   2.095 -0.2230 -0.5427 -0.0312
   14CHTO  H219 5543   5.829   4.394   1.994 -1.3662 -0.5150 -0.4335
   14CHTO   O76 5544   5.799   4.278   2.174  0.2973  0.0533  0.0829
   14CHTO  C122 5545   5.713   4.170   2.136  0.7145 -0.0408  0.0285
   14CHTO  H226 5546   5.736   4.094   2.210 -0.8746 -0.3536  0.2104
   14CHTO  C126 5547   5.734   4.110   1.996 -0.2571  1.4034 -0.3731
   14CHTO   O85 5548   5.867   4.078   1.982 -0.3741  0.0906 -0.1294
   14CHTO  H206 5549   5.888   4.054   1.894  1.0299 -0.3577  0.2961
   14CHTO  C121 5550   5.571   4.226   2.137  0.1691  0.9125  0.0182
   14CHTO  H225 5551   5.510   4.140   2.103  2.2100 -0.5436 -0.0662
   14CHTO   O81 5552   5.531   4.257   2.268 -0.0593  0.9055  0.2606
   14CHTO  H202 5553   5.549   4.181   2.320  0.7639 -2.0007 -4.0594
   14CHTO  C119 5554   5.547   4.347   2.041 -0.2162 -0.6373  0.5335
   14CHTO  H223 5555   5.564   4.313   1.939  1.2120 -0.6768  0.7762
   14CHTO  C117 5556   5.645   4.464   2.079 -1.4025 -0.2661  0.3175
   14CHTO  H221 5557   5.629   4.514   2.175 -4.2093  2.8761 -1.6924
   14CHTO   N20 5558   5.642   4.572   1.981 -0.2179  0.6015  0.4232
   14CHTO  H209 5559   5.636   4.526   1.883 -0.4122  0.5074  0.4798
   14CHTO  H210 5560   5.724   4.643   1.987 -0.0176  0.4977 -0.9195
   14CHTO   O80 5561   5.381   4.389   2.029  0.5372 -0.0229  0.2514
   14CHTO  C103 5562   5.320   4.478   1.921  0.2246 -0.1409  0.4837
   14CHTO  H190 5563   5.347   4.582   1.936  1.2081 -0.4823  1.1181
   14CHTO  C101 5564   5.336   4.439   1.767 -0.5304 -0.2312  0.3116
   14CHTO  H188 5565   5.312   4.334   1.755  1.3042 -0.7474  0.9162
   14CHTO   O68 5566   5.498   4.459   1.729 -0.2731  0.2323  0.2865
   14CHTO  H168 5567   5.550   4.440   1.804 -2.0665 -1.6195  1.1136
   14CHTO   C99 5568   5.251   4.533   1.683 -0.1112  0.5504  0.5101
   14CHTO  H186 5569   5.292   4.635   1.698 -1.5456  1.0604  0.9873
   14CHTO   N17 5570   5.250   4.505   1.535  0.2944 -0.2679 -0.1039
   14CHTO  H174 5571   5.353   4.493   1.506 -0.3953 -1.2464 -2.3029
   14CHTO  H175 5572   5.204   4.587   1.482  0.1069  1.9866  3.4256
   14CHTO   C97 5573   5.102   4.541   1.733  0.8126  0.1397 -0.0321
   14CHTO  H184 5574   5.042   4.453   1.704 -0.0734 -0.5340  3.5597
   14CHTO   O64 5575   5.091   4.562   1.876 -0.4468 -0.3727  0.1004
   14CHTO  C104 5576   5.159   4.461   1.946  0.3670 -0.3541 -0.1302
   14CHTO  H191 5577   5.127   4.359   1.923 -2.6273  0.6290 -0.4477
   14CHTO  C108 5578   5.117   4.484   2.096 -0.5028  0.3517 -0.3270
   14CHTO   O71 5579   4.976   4.476   2.116  0.1106  0.4875  0.5894
   14CHTO  H171 5580   4.936   4.544   2.067 -0.5973  0.3087  0.9109
   14CHTO   O62 5581   5.022   4.650   1.679  0.2705 -0.2803  0.6672
   14CHTO   C91 5582   4.878   4.658   1.695  0.4020  0.0833  0.0700
   14CHTO  H178 5583   4.846   4.563   1.738  0.8834 -0.1914 -0.1790
   14CHTO   C92 5584   4.820   4.667   1.552 -0.8067 -0.4545 -0.7122
   14CHTO  H179 5585   4.857   4.586   1.486  0.5253 -0.5267  0.1192
   14CHTO   O66 5586   4.681   4.640   1.549 -0.4428  0.1930 -0.0318
   14CHTO  H166 5587   4.661   4.590   1.626 -0.1491  0.3010  0.1170
   14CHTO   C93 5588   4.837   4.809   1.486  0.0905  0.2873 -0.0338
   14CHTO  H180 5589   4.764   4.819   1.404  1.2831  0.9092 -1.0290
   14CHTO   N16 5590   4.969   4.828   1.422 -0.3277  0.0330 -0.4565
   14CHTO  H172 5591   5.041   4.886   1.477  1.7557 -0.7110 -2.2951
   14CHTO  H173 5592   5.015   4.736   1.390  0.4280  0.2239  0.0834
   14CHTO   C94 5593   4.808   4.921   1.589 -0.4804 -0.4372  0.8666
   14CHTO  H181 5594   4.896   4.983   1.606  0.9049 -2.1660  0.2396
   14CHTO   O61 5595   4.753   4.876   1.714 -0.3301 -0.1821  0.7724
   14CHTO   C95 5596   4.828   4.778   1.784  0.0179  0.0486 -0.7782
   14CHTO  H182 5597   4.917   4.825   1.827 -0.5507 -0.2467  0.7765
   14CHTO  C106 5598   4.747   4.729   1.902 -0.3578  0.5142 -0.4694
   14CHTO   O69 5599   4.631   4.664   1.840 -0.1318 -0.1184 -0.2645
   14CHTO  H169 5600   4.583   4.739   1.810  0.2708  1.0900  1.9989
   14CHTO   O63 5601   4.688   5.015   1.524  0.2772 -0.1562 -0.3604
   14CHTO   C96 5602   4.689   5.163   1.592  0.0664 -0.1142 -0.0940
   14CHTO  H183 5603   4.782   5.167   1.649  0.1987  0.3895 -0.3428
   14CHTO   C98 5604   4.573   5.200   1.692 -0.1723  0.0607  0.1866
   14CHTO  H185 5605   4.477   5.187   1.641 -0.2933 -1.1442  0.7195
   14CHTO   O67 5606   4.576   5.100   1.792 -1.0245  0.2155 -0.0793
   14CHTO  H167 5607   4.665   5.077   1.812 -1.3967 -0.7374  0.5094
   14CHTO  C102 5608   4.598   5.342   1.752  0.4746 -0.9198  0.5275
   14CHTO  H189 5609   4.695   5.337   1.803  1.1291 -0.0023 -0.6115
   14CHTO   N18 5610   4.497   5.380   1.853  0.0126  0.4157 -0.6218
   14CHTO  H176 5611   4.402   5.400   1.805 -0.1925 -2.0891 -1.3113
   14CHTO  H177 5612   4.479   5.301   1.925  0.0576  0.6212 -0.3813
   14CHTO  C105 5613   4.607   5.451   1.639 -1.1706  0.0469  0.5828
   14CHTO  H192 5614   4.506   5.454   1.597 -0.4094 -0.8768 -1.3783
   14CHTO   O65 5615   4.703   5.414   1.540  0.2801 -0.0082  0.3381
   14CHTO  C100 5616   4.684   5.285   1.487 -0.9228 -0.3985 -0.1410
   14CHTO  H187 5617   4.584   5.280   1.441 -0.4773 -0.8038 -1.0749
   14CHTO  C107 5618   4.783   5.261   1.376 -0.7879 -0.4849 -0.2866
   14CHTO   O70 5619   4.758   5.350   1.260  0.1787  0.3144  0.1244
   14CHTO  H170 5620   4.750   5.440   1.287  1.4031  0.2238  0.8365
   14CHTO   O57 5621   4.646   5.590   1.705  0.6143 -0.3372  0.1005
   14CHTO   C85 5622   4.667   5.716   1.634  0.0791 -0.1499 -0.1777
   14CHTO  H157 5623   4.606   5.731   1.542 -0.4385 -1.9863 -0.1522
   14CHTO   C83 5624   4.816   5.707   1.589 -0.0752  0.2843 -0.1238
   14CHTO  H155 5625   4.837   5.621   1.525 -1.4529 -0.4753  0.4298
   14CHTO   O56 5626   4.891   5.681   1.713  0.1057  0.0427  0.3365
   14CHTO  H135 5627   4.981   5.706   1.703 -0.0124  0.7873  1.0935
   14CHTO   C81 5628   4.854   5.841   1.522  0.1275  0.4392  0.2661
   14CHTO  H153 5629   4.788   5.856   1.437 -0.2082 -1.7559  0.0919
   14CHTO   N14 5630   4.989   5.822   1.464  0.1562 -0.1866 -0.5662
   14CHTO  H141 5631   5.046   5.911   1.446  1.5352 -0.8608  0.3179
   14CHTO  H142 5632   4.977   5.762   1.376 -2.8300  0.0644 -0.3772
   14CHTO   C79 5633   4.847   5.964   1.624 -0.1982  0.1014  0.1120
   14CHTO  H151 5634   4.854   6.058   1.570 -2.5528  1.3245  1.8359
   14CHTO   O52 5635   4.713   5.971   1.681  0.2382 -0.7320 -0.3830
   14CHTO   C86 5636   4.655   5.845   1.736  0.3282  0.1030 -0.2354
   14CHTO  H158 5637   4.722   5.830   1.824 -0.8781 -0.7035  0.5681
   14CHTO   C90 5638   4.510   5.856   1.784 -0.7828  0.2158 -0.6821
   14CHTO   O60 5639   4.425   5.893   1.670 -0.3385  0.1156  0.0805
   14CHTO  H138 5640   4.446   5.982   1.652  1.8686 -0.3701  0.0832
   14CHTO   O50 5641   4.939   5.946   1.730 -0.1611  0.3489  0.0331
   14CHTO   C73 5642   5.028   6.029   1.805  0.1635 -0.0546  0.5349
   14CHTO  H145 5643   4.992   6.051   1.907  1.6016  2.5059  0.5210
   14CHTO   C74 5644   5.047   6.170   1.738  0.1154 -0.0585  0.1340
   14CHTO  H146 5645   4.950   6.218   1.717  0.3409 -0.3234 -1.5746
   14CHTO   O54 5646   5.110   6.254   1.837 -0.3517 -0.0334  0.1632
   14CHTO  H133 5647   5.052   6.279   1.907 -1.6086 -1.9117 -0.1579
   14CHTO   C75 5648   5.133   6.154   1.609 -0.0214 -0.1067  0.0362
   14CHTO  H147 5649   5.075   6.104   1.529  1.3697 -0.8504 -0.5297
   14CHTO   N13 5650   5.163   6.282   1.542  0.3962  0.5383 -0.1195
   14CHTO  H139 5651   5.210   6.342   1.619  0.9513 -1.8838  1.4971
   14CHTO  H140 5652   5.237   6.273   1.463  0.6070 -0.9174  0.2187
   14CHTO   C76 5653   5.261   6.062   1.633  0.0394  0.1439 -0.2012
   14CHTO  H148 5654   5.340   6.112   1.689  0.8804 -2.3755  0.9378
   14CHTO   O49 5655   5.228   5.937   1.698 -0.2745  0.3252  0.7671
   14CHTO   C77 5656   5.168   5.967   1.824  0.2300 -0.2836 -0.4414
   14CHTO  H149 5657   5.229   6.032   1.887 -0.5528  0.0989 -0.0749
   14CHTO   C88 5658   5.161   5.830   1.903 -0.2989  0.1593 -0.2488
   14CHTO   O58 5659   5.292   5.776   1.919 -0.2926 -0.4713  0.4362
   14CHTO  H136 5660   5.283   5.690   1.954 -1.2460 -1.3500 -1.9358
   14CHTO   O51 5661   5.317   6.012   1.501  0.2417  0.0103  0.3812
   14CHTO   C78 5662   5.472   6.011   1.470  0.3647  0.5688 -0.4718
   14CHTO  H150 5663   5.525   6.052   1.559 -0.5342  0.2984  0.2047
   14CHTO   C80 5664   5.509   6.093   1.346 -0.1236  0.5942 -0.6813
   14CHTO  H152 5665   5.444   6.064   1.261  2.0156  0.1447 -2.1847
   14CHTO   O55 5666   5.475   6.234   1.384  0.0170  0.0901 -0.9058
   14CHTO  H134 5667   5.503   6.294   1.318 -0.0522  1.8053  0.5730
   14CHTO   C84 5668   5.660   6.088   1.312 -0.3036 -0.1048  0.7805
   14CHTO  H156 5669   5.714   6.149   1.384 -0.4653  0.5002  0.3975
   14CHTO   N15 5670   5.686   6.152   1.179  0.5523  0.2924 -0.3178
   14CHTO  H143 5671   5.785   6.136   1.141  0.1970  0.6277 -1.4023
   14CHTO  H144 5672   5.667   6.257   1.181  1.8174  0.5089  1.0262
   14CHTO   C87 5673   5.715   5.944   1.310  0.2020 -0.8518  0.5590
   14CHTO  H159 5674   5.690   5.894   1.216 -2.3098 -1.0107  1.2614
   14CHTO   O53 5675   5.660   5.861   1.443  0.4118  0.0759  0.3127
   14CHTO   C82 5676   5.517   5.867   1.458 -0.2377 -0.0298  0.2434
   14CHTO  H154 5677   5.470   5.820   1.372  2.7047 -1.1237 -0.8243
   14CHTO   C89 5678   5.483   5.774   1.579  0.0857 -0.2079 -0.0005
   14CHTO   O59 5679   5.466   5.640   1.531 -0.5153 -0.1842 -0.0790
   14CHTO  H137 5680   5.493   5.573   1.591 -0.1350 -1.6446 -1.8288
   14CHTO   O45 5681   5.877   5.960   1.326 -0.5713 -0.0952  0.4637
   14CHTO   C67 5682   5.962   5.862   1.267  0.8556  0.0028 -0.5599
   14CHTO  H124 5683   5.900   5.774   1.250 -0.2843  0.2743  1.9514
   14CHTO   C65 5684   6.030   5.915   1.135  0.5081 -0.6901 -0.0400
   14CHTO  H122 5685   5.953   5.967   1.078  1.2091  1.0192  0.5448
   14CHTO   O44 5686   6.072   5.794   1.067  0.2759  0.4032  0.8145
   14CHTO  H102 5687   6.003   5.758   1.015  0.7158  1.6072 -0.6560
   14CHTO   C63 5688   6.134   6.018   1.173  0.2469  0.8076 -0.1151
   14CHTO  H120 5689   6.085   6.091   1.237 -0.6947  1.3855 -1.4686
   14CHTO   N11 5690   6.189   6.097   1.062 -0.1770 -1.0767  0.0493
   14CHTO  H108 5691   6.117   6.115   0.985  0.6011 -1.7774 -0.8503
   14CHTO  H109 5692   6.236   6.189   1.092 -0.3327 -0.4810 -1.4861
   14CHTO   C61 5693   6.247   5.950   1.261  0.2407  0.8244  0.0579
   14CHTO  H118 5694   6.327   6.022   1.287  0.8576 -0.6088  2.2343
   14CHTO   O40 5695   6.184   5.909   1.389 -0.3086  0.4384 -0.0798
   14CHTO   C68 5696   6.073   5.815   1.381  0.3878  0.0521 -0.3460
   14CHTO  H125 5697   6.017   5.824   1.477 -0.0621  0.2052 -0.6215
   14CHTO   C72 5698   6.111   5.667   1.366  0.2223  0.4092  0.0996
   14CHTO   O48 5699   6.135   5.621   1.497 -0.5761 -0.3635 -0.0161
   14CHTO  H105 5700   6.098   5.537   1.510 -2.9047  0.8761  1.6961
   14CHTO   O38 5701   6.309   5.835   1.209 -0.0870 -0.3155 -0.4320
   14CHTO   C55 5702   6.435   5.845   1.140  0.5751  0.0425 -0.5110
   14CHTO  H112 5703   6.459   5.951   1.126  1.1700  0.1794  1.4702
   14CHTO   C56 5704   6.420   5.766   1.004 -0.2193  0.3711  0.0321
   14CHTO  H113 5705   6.387   5.663   1.024  2.9347 -0.9984 -1.5442
   14CHTO   O42 5706   6.316   5.818   0.917 -0.1113  0.2366  0.5526
   14CHTO  H100 5707   6.239   5.846   0.962  0.4783  0.6941  1.3000
   14CHTO   C57 5708   6.560   5.762   0.930  0.3622 -0.2544  1.2932
   14CHTO  H114 5709   6.585   5.859   0.888  0.3841 -1.3903 -1.4716
   14CHTO   N10 5710   6.556   5.666   0.818  0.4266  0.4827  0.1344
   14CHTO  H106 5711   6.653   5.625   0.792  0.9320  1.2772  0.7091
   14CHTO  H107 5712   6.521   5.721   0.732 -0.3838 -1.3087 -0.6929
   14CHTO   C58 5713   6.666   5.717   1.031 -0.1956  0.3391  0.2190
   14CHTO  H115 5714   6.645   5.614   1.064 -2.0102  0.6757  0.1726
   14CHTO   O37 5715   6.667   5.806   1.143  0.6529  0.3697  0.4350
   14CHTO   C59 5716   6.549   5.787   1.224  0.4166  0.7063  0.4211
   14CHTO  H116 5717   6.538   5.681   1.250 -0.7884  0.4415 -1.1348
   14CHTO   C70 5718   6.561   5.860   1.357  0.0492 -0.2685 -0.1278
   14CHTO   O46 5719   6.471   5.801   1.451 -0.3351 -0.2816 -0.9036
   14CHTO  H103 5720   6.382   5.829   1.437  0.1014  1.0487 -1.1000
   14CHTO   O39 5721   6.809   5.724   0.980 -0.1731  0.2158 -0.0471
   14CHTO   C60 5722   6.925   5.718   1.067  0.1252 -0.0229 -0.1477
   14CHTO  H117 5723   6.919   5.803   1.135 -0.5970  0.0920 -0.3526
   14CHTO   C62 5724   6.929   5.583   1.146  0.1766  0.0608 -0.3280
   14CHTO  H119 5725   6.839   5.579   1.211  0.3723  1.4471  0.0431
   14CHTO   O43 5726   6.907   5.490   1.040  0.2869  0.3501 -0.6758
   14CHTO  H101 5727   6.874   5.410   1.076 -2.1862  1.7920  0.4054
   14CHTO   C66 5728   7.073   5.569   1.219 -0.4474  0.3013  0.0083
   14CHTO  H123 5729   7.093   5.660   1.276 -1.6714  0.5152  0.1179
   14CHTO   N12 5730   7.071   5.456   1.314  0.1067 -0.2733  0.2791
   14CHTO  H110 5731   7.171   5.457   1.356 -0.5832  3.6842  2.0161
   14CHTO  H111 5732   7.069   5.367   1.252  0.0807 -1.2235  1.6312
   14CHTO   C69 5733   7.185   5.564   1.104  0.4390  0.6523  0.2054
   14CHTO  H126 5734   7.151   5.491   1.028  0.4436 -0.9497  1.7129
   14CHTO   O41 5735   7.183   5.700   1.046 -0.0872 -0.7534  0.1347
   14CHTO   C64 5736   7.049   5.733   0.977 -0.8605 -0.0476 -0.1532
   14CHTO  H121 5737   7.026   5.662   0.894 -0.0619 -0.0707 -0.3595
   14CHTO   C71 5738   7.070   5.877   0.913 -0.1537 -0.0176  0.5176
   14CHTO   O47 5739   7.159   5.859   0.804  0.0307  0.2548 -0.3326
   14CHTO  H104 5740   7.195   5.939   0.771  1.5193 -1.0570 -1.9878
   14CHTO   O34 5741   7.317   5.539   1.156 -0.7823 -0.5215  0.3704
   14CHTO   C49 5742   7.469   5.533   1.108  0.5218  0.0154 -0.2814
   14CHTO   H91 5743   7.491   5.438   1.057  1.9389  0.4193 -0.4644
   14CHTO   C47 5744   7.552   5.517   1.237 -0.3907  0.3452 -0.5490
   14CHTO   H89 5745   7.658   5.511   1.206  0.5275  1.4732  2.2170
   14CHTO   O33 5746   7.507   5.397   1.299  0.5269  0.1138  0.4876
   14CHTO   H70 5747   7.428   5.412   1.348  1.5447 -0.6732  2.4355
   14CHTO   C45 5748   7.536   5.650   1.335  0.0374 -0.2922 -0.1461
   14CHTO   H87 5749   7.448   5.632   1.399  0.9812  0.1850  1.3131
   14CHTO    N8 5750   7.651   5.648   1.427 -0.0290  0.4071 -0.5096
   14CHTO   H75 5751   7.730   5.587   1.386 -0.1788  0.3768 -0.7548
   14CHTO   H76 5752   7.630   5.631   1.532  2.3998  0.2362 -0.0413
   14CHTO   C43 5753   7.498   5.778   1.240  0.1228  0.2067 -0.2883
   14CHTO   H85 5754   7.390   5.771   1.230  0.2529 -0.6339 -1.2765
   14CHTO   O29 5755   7.564   5.771   1.117 -0.0228  0.1590  0.0906
   14CHTO   C50 5756   7.524   5.658   1.030  0.2813  1.2547  0.3222
   14CHTO   H92 5757   7.441   5.704   0.975 -0.1309  1.3157  0.9827
   14CHTO   C54 5758   7.637   5.629   0.932  0.1976  0.0517  0.0848
   14CHTO   O36 5759   7.593   5.526   0.843  0.0672  0.1335  0.6720
   14CHTO   H72 5760   7.535   5.547   0.773 -0.8557 -1.9587  0.7902
   14CHTO   O27 5761   7.529   5.902   1.296 -0.5185  0.3265  0.1962
   14CHTO   C37 5762   7.460   6.019   1.352  0.6218 -0.3134 -0.2957
   14CHTO   H79 5763   7.532   6.099   1.376  1.2162 -1.0716  0.4975
   14CHTO   C38 5764   7.368   6.082   1.237 -0.1017  0.2092  0.2012
   14CHTO   H80 5765   7.306   6.000   1.198  0.9191 -0.9276  0.9223
   14CHTO   O31 5766   7.455   6.126   1.132 -0.1016 -0.1312  0.6224
   14CHTO   H68 5767   7.508   6.063   1.088 -2.1319 -1.3167 -0.2248
   14CHTO   C39 5768   7.278   6.198   1.298  0.4882 -0.0109  0.1126
   14CHTO   H81 5769   7.347   6.272   1.340  0.3746 -0.3555  0.9283
   14CHTO    N7 5770   7.183   6.260   1.197 -0.3752  0.0935 -0.3346
   14CHTO   H73 5771   7.148   6.189   1.124  1.2122  0.9409 -1.9379
   14CHTO   H74 5772   7.222   6.353   1.158 -2.7601  1.6603  0.8410
   14CHTO   C40 5773   7.201   6.142   1.421 -0.4847  1.0043 -0.5463
   14CHTO   H82 5774   7.131   6.066   1.387  0.9504 -0.2629 -0.7399
   14CHTO   O26 5775   7.289   6.093   1.520 -0.1474  0.2399 -0.4444
   14CHTO   C41 5776   7.386   5.984   1.484 -0.6281 -0.6949  0.0485
   14CHTO   H83 5777   7.329   5.890   1.475  1.4566 -2.0809  0.8157
   14CHTO   C52 5778   7.482   5.977   1.612  0.5162  0.5294  0.4515
   14CHTO   O35 5779   7.415   5.964   1.748  0.1234 -0.6462 -0.0407
   14CHTO   H71 5780   7.474   5.958   1.821 -1.9104 -0.2012  1.7221
   14CHTO   O28 5781   7.138   6.241   1.508 -0.3069 -0.1138  0.0907
   14CHTO   C42 5782   7.012   6.215   1.587 -0.1353 -0.0709  0.1101
   14CHTO   H84 5783   6.993   6.311   1.635 -1.6935 -0.6708  0.7292
   14CHTO   C44 5784   7.039   6.111   1.702  0.5328  0.3293 -0.1936
   14CHTO   H86 5785   7.062   6.014   1.658 -1.1194 -0.0181 -0.3212
   14CHTO   O32 5786   7.150   6.154   1.773 -0.0081 -0.2618 -0.4109
   14CHTO   H69 5787   7.210   6.192   1.712 -0.0852 -1.9018 -1.5623
   14CHTO   C48 5788   6.913   6.098   1.790 -0.2298  0.5192 -0.4258
   14CHTO   H90 5789   6.899   6.191   1.844  0.0340 -0.1275  0.7667
   14CHTO    N9 5790   6.927   5.996   1.899  0.2415  0.3887 -0.3781
   14CHTO   H77 5791   6.925   5.903   1.844  0.8966 -0.3291  0.7746
   14CHTO   H78 5792   7.019   5.998   1.956 -1.6372  1.1080  2.7626
   14CHTO   C51 5793   6.777   6.066   1.694 -0.3698 -0.6558  0.3739
   14CHTO   H93 5794   6.790   5.969   1.645  3.4371  1.0670 -2.2778
   14CHTO   O30 5795   6.765   6.173   1.594 -0.0738 -0.2062  0.1822
   14CHTO   C46 5796   6.884   6.178   1.506 -0.3912 -0.8774 -0.4719
   14CHTO   H88 5797   6.903   6.078   1.466 -0.0179 -1.2518  0.6279
   14CHTO   C53 5798   6.852   6.283   1.389 -0.1248  0.0286 -0.1194
   14CHTO   O72 5799   6.733   6.242   1.313  0.0585  0.1305  0.4370
   14CHTO  H199 5800   6.696   6.307   1.257 -0.6168 -0.4388  0.2187
   14CHTO   O22 5801   6.654   6.086   1.766  0.2298  0.1183 -0.3371
   14CHTO   C31 5802   6.525   6.036   1.711  0.7491  0.0930 -0.1335
   14CHTO   H59 5803   6.550   5.984   1.616 -0.5239 -2.3644  0.8221
   14CHTO   C29 5804   6.455   5.931   1.803 -0.3339 -0.5494  0.5924
   14CHTO   H57 5805   6.466   5.973   1.904 -0.5296  2.3132 -0.5408
   14CHTO   O21 5806   6.536   5.810   1.806 -0.0404  0.5176  0.3744
   14CHTO   H37 5807   6.580   5.806   1.889  0.8089 -4.5064 -0.1611
   14CHTO   C27 5808   6.304   5.900   1.767  0.3883 -0.1087 -0.1632
   14CHTO   H55 5809   6.307   5.842   1.674 -1.4457 -0.8381  0.2147
   14CHTO    N5 5810   6.241   5.823   1.871  0.4662  0.3938 -0.0646
   14CHTO   H43 5811   6.134   5.813   1.860  0.9648 -2.7393 -3.0005
   14CHTO   H44 5812   6.288   5.810   1.967  2.0631 -1.2963 -1.0450
   14CHTO   C25 5813   6.232   6.035   1.729 -0.2374 -0.1739  0.0976
   14CHTO   H53 5814   6.229   6.111   1.809 -1.3447  2.1078 -2.0160
   14CHTO   O17 5815   6.302   6.109   1.621  0.2343 -0.1010 -0.0255
   14CHTO   C32 5816   6.423   6.162   1.672  0.0233  0.4265  0.2810
   14CHTO   H60 5817   6.400   6.219   1.761  0.9038 -0.9830  1.4344
   14CHTO   C36 5818   6.476   6.252   1.557 -0.0370 -0.3025 -1.0356
   14CHTO   O25 5819   6.384   6.360   1.543  0.4122  0.3273 -0.0034
   14CHTO   H40 5820   6.435   6.437   1.528  0.3718  0.7452  1.9455
   14CHTO   O15 5821   6.089   5.998   1.681 -0.2261 -0.3556 -0.1854
   14CHTO   C19 5822   5.971   6.073   1.670 -0.3694  0.4675 -0.1822
   14CHTO   H47 5823   5.917   6.028   1.586  0.0111 -1.1915  0.4299
   14CHTO   C20 5824   5.873   6.038   1.790 -0.7773 -0.6858 -0.4220
   14CHTO   H48 5825   5.918   6.071   1.885  1.5424  0.1931 -1.7588
   14CHTO   O19 5826   5.844   5.896   1.796  0.2432  0.0040  0.1290
   14CHTO   H35 5827   5.798   5.871   1.873  0.1896  1.5062  0.6061
   14CHTO   C21 5828   5.735   6.118   1.778 -0.6146 -0.7081 -0.5764
   14CHTO   H49 5829   5.683   6.091   1.686 -1.0838  0.1791 -0.5743
   14CHTO    N4 5830   5.651   6.100   1.900  0.0627  0.1112 -0.3489
   14CHTO   H41 5831   5.704   6.059   1.985  1.6438  1.3831 -0.7091
   14CHTO   H42 5832   5.604   6.194   1.926 -0.0722  0.7057 -2.6454
   14CHTO   C22 5833   5.777   6.264   1.756  0.4945 -0.1322  0.0142
   14CHTO   H50 5834   5.827   6.303   1.845 -0.8416 -1.3666  1.3463
   14CHTO   O14 5835   5.864   6.282   1.640  0.6845 -0.0488 -0.1154
   14CHTO   C23 5836   5.993   6.221   1.642 -0.0712  0.1831  0.2145
   14CHTO   H51 5837   6.048   6.271   1.723 -1.8444  2.0354  0.3365
   14CHTO   C34 5838   6.055   6.270   1.508  0.6043  0.0249 -0.1182
   14CHTO   O23 5839   5.973   6.235   1.400 -0.9422  0.0788  0.1099
   14CHTO   H38 5840   5.888   6.273   1.409 -0.3074  1.1171  2.1704
   14CHTO   O16 5841   5.664   6.341   1.717 -0.4491 -0.0643  0.5333
   14CHTO   C24 5842   5.654   6.494   1.752  0.2501 -0.6081  0.1888
   14CHTO   H52 5843   5.619   6.553   1.666  0.5390  1.0952  1.2103
   14CHTO   C26 5844   5.787   6.561   1.794 -0.1352 -0.6619  0.3459
   14CHTO   H54 5845   5.819   6.516   1.890  0.7770 -1.4500 -0.3135
   14CHTO   O20 5846   5.880   6.543   1.683 -0.1472 -0.0814 -0.6835
   14CHTO   H36 5847   5.967   6.574   1.700 -0.8221  0.7821  1.4091
   14CHTO   C30 5848   5.750   6.712   1.827 -0.2420 -0.2855  0.7288
   14CHTO   H58 5849   5.724   6.758   1.731  0.5312 -0.1246  0.5952
   14CHTO    N6 5850   5.872   6.775   1.879 -0.2440 -0.0591  0.1174
   14CHTO   H45 5851   5.913   6.737   1.971 -0.1951  1.1500  0.6125
   14CHTO   H46 5852   5.838   6.876   1.898  0.4834  0.4908 -1.4022
   14CHTO   C33 5853   5.626   6.730   1.917  0.1376  0.5686  0.3465
   14CHTO   H61 5854   5.649   6.695   2.018  1.5730 -0.2182 -0.2412
   14CHTO   O18 5855   5.515   6.653   1.872 -0.1837 -0.1160 -0.1186
   14CHTO   C28 5856   5.545   6.513   1.860  0.0997  0.5387  0.8579
   14CHTO   H56 5857   5.574   6.462   1.951 -0.8151 -0.6124  0.5077
   14CHTO   C35 5858   5.414   6.444   1.814  0.3608  0.4188 -0.4157
   14CHTO   O24 5859   5.304   6.454   1.910 -0.4266 -0.8526  0.3897
   14CHTO   H39 5860   5.340   6.461   1.996  0.9274 -0.4612 -0.2093
   14CHTO    O9 5861   5.593   6.870   1.927  0.3832 -0.3035 -0.7110
   14CHTO   C13 5862   5.502   6.904   2.055  0.1004  0.4014  0.1055
   14CHTO   H26 5863   5.548   6.858   2.146  1.0614  0.3764 -0.3856
   14CHTO   C11 5864   5.355   6.855   2.031 -0.3822  0.4213  0.4046
   14CHTO   H24 5865   5.356   6.746   2.048 -0.2578  0.3080 -0.3392
   14CHTO    O8 5866   5.309   6.884   1.900 -0.1008  0.0330 -0.3919
   14CHTO    H3 5867   5.221   6.850   1.903  0.3072 -0.9536  0.5894
   14CHTO    C9 5868   5.267   6.914   2.145  0.1659 -0.1121  0.1498
   14CHTO   H22 5869   5.320   6.893   2.239  0.6475  1.8096  0.3246
   14CHTO    N2 5870   5.131   6.852   2.152 -0.2959 -0.5224 -0.7076
   14CHTO   H10 5871   5.066   6.925   2.107  1.4652  1.4822 -0.1065
   14CHTO   H11 5872   5.107   6.844   2.257  2.1957  3.7735  0.3015
   14CHTO    C7 5873   5.278   7.079   2.138 -0.0149 -0.2393  0.3143
   14CHTO   H20 5874   5.304   7.100   2.244  0.2211  2.2724 -0.2093
   14CHTO    O4 5875   5.385   7.124   2.048  0.9314  0.0685 -0.2274
   14CHTO   C14 5876   5.508   7.059   2.086 -0.3183  0.1523  0.4266
   14CHTO   H27 5877   5.528   7.080   2.193 -0.1872  0.4878  0.3360
   14CHTO   C18 5878   5.626   7.122   2.002  0.6459 -0.6497 -0.6620
   14CHTO   O13 5879   5.636   7.263   2.041 -0.0629 -0.1132  1.0164
   14CHTO    H7 5880   5.663   7.315   1.967  0.1868 -2.6151 -0.7089
   14CHTO    O2 5881   5.142   7.145   2.085 -0.0063 -0.0280  0.0559
   14CHTO    C1 5882   5.118   7.283   2.113  0.1832 -0.4999  0.2781
   14CHTO   H14 5883   5.046   7.317   2.035  0.1835 -3.4349 -1.0624
   14CHTO    C2 5884   5.240   7.382   2.110 -0.4166  0.6364  1.0354
   14CHTO   H15 5885   5.315   7.350   2.184  2.0697  2.5062 -0.6224
   14CHTO    O6 5886   5.280   7.373   1.974  0.2743 -0.9158  0.2868
   14CHTO    H1 5887   5.323   7.291   1.959  0.4255 -1.4633  3.4204
   14CHTO    C3 5888   5.184   7.533   2.147 -0.2025 -1.2313  0.2515
   14CHTO   H16 5889   5.105   7.551   2.073  1.4906  0.9923 -1.0907
   14CHTO    N1 5890   5.286   7.642   2.137  0.4612  0.0603 -0.1556
   14CHTO    H8 5891   5.224   7.728   2.151 -2.3869 -1.7828 -1.0786
   14CHTO    H9 5892   5.362   7.624   2.213 -0.3915 -0.8139  0.5091
   14CHTO    C4 5893   5.110   7.514   2.294 -0.0224 -0.3523 -0.8221
   14CHTO   H17 5894   5.183   7.482   2.368  0.0773  1.2607 -0.2137
   14CHTO    O1 5895   5.005   7.417   2.294  0.2525  0.6079  0.2813
   14CHTO    C5 5896   5.046   7.285   2.252  0.0874  0.3160  0.0990
   14CHTO   H18 5897   5.121   7.240   2.318  0.1042 -0.5388 -0.5004
   14CHTO   C16 5898   4.917   7.192   2.251 -0.1044  0.5225 -0.0895
   14CHTO   O11 5899   4.861   7.180   2.379 -0.1531  0.2066  0.3926
   14CHTO    H5 5900   4.815   7.253   2.415 -1.3993 -1.2383  1.7875
   14CHTO    O3 5901   5.047   7.641   2.330  0.3416 -0.1232  0.1521
   14CHTO    C6 5902   5.059   7.677   2.470 -0.5681  0.7814  0.6225
   14CHTO   H19 5903   5.116   7.606   2.529 -0.5109 -0.1243 -0.5076
   14CHTO    C8 5904   5.142   7.807   2.492 -0.3447  0.3301  0.2044
   14CHTO   H21 5905   5.100   7.889   2.432  1.7345  0.2632 -1.4232
   14CHTO    O7 5906   5.282   7.776   2.456 -0.6738  0.1989 -0.1368
   14CHTO    H2 5907   5.337   7.852   2.460 -0.7608  0.3068 -0.8857
   14CHTO   C12 5908   5.138   7.854   2.646 -0.9576 -0.1489 -0.3760
   14CHTO   H25 5909   5.192   7.772   2.698  0.8484  1.8006  0.9030
   14CHTO    N3 5910   5.209   7.988   2.659  0.8104 -0.0885 -0.2972
   14CHTO   H12 5911   5.147   8.075   2.645  1.9663  0.7059 -0.5514
   14CHTO   H13 5912   5.292   7.991   2.590  0.4728  0.4563 -0.6775
   14CHTO   C15 5913   4.993   7.847   2.695 -0.2459  0.2361 -0.2229
   14CHTO   H28 5914   4.931   7.925   2.652 -2.1652 -0.2916  1.5350
   14CHTO   O10 5915   4.985   7.865   2.861  0.6073 -0.1599 -0.4890
   14CHTO    H4 5916   5.034   7.941   2.882 -1.4052  1.5163 -1.6523
   14CHTO    O5 5917   4.940   7.717   2.679  0.1606 -0.3100 -0.4070
   14CHTO   C10 5918   4.924   7.692   2.541  0.4476 -0.4802 -0.0072
   14CHTO   H23 5919   4.889   7.781   2.487 -1.2204 -1.1134 -0.0102
   14CHTO   C17 5920   4.834   7.567   2.524  0.5417  0.3296  0.5323
   14CHTO   O12 5921   4.708   7.588   2.593  0.3237  0.1991 -0.1178
   14CHTO    H6 5922   4.667   7.507   2.616 -2.7577  2.0913  1.3321
   15CHTO  H203 5923   7.495   4.779   2.024 -0.4633 -0.4602 -0.4167
   15CHTO   O82 5924   7.411   4.817   2.014 -0.1741  0.2587 -0.1349
   15CHTO  C123 5925   7.328   4.746   1.923  0.9539 -0.3881 -0.6037
   15CHTO  H227 5926   7.276   4.665   1.978 -1.3241  0.8451 -0.8673
   15CHTO   O77 5927   7.234   4.846   1.881 -0.7213 -0.1434 -0.0923
   15CHTO  C118 5928   7.118   4.789   1.821  0.3726  0.7169  0.4857
   15CHTO  H222 5929   7.077   4.705   1.879 -0.2325  0.6227 -0.0816
   15CHTO  C125 5930   7.012   4.905   1.806 -0.5751 -0.4842 -0.0558
   15CHTO   O84 5931   6.963   4.942   1.938 -0.2582 -0.1453  0.4694
   15CHTO  H205 5932   7.029   4.972   1.997  0.1402 -0.9469  0.4321
   15CHTO  C114 5933   7.165   4.731   1.689 -0.0985 -0.4470 -0.9533
   15CHTO  H218 5934   7.200   4.815   1.629 -1.8171  2.3070  1.7427
   15CHTO  C116 5935   7.286   4.633   1.707 -0.4180 -0.4422  0.2517
   15CHTO  H220 5936   7.256   4.543   1.765 -0.1668  0.9259  2.5680
   15CHTO   O79 5937   7.336   4.591   1.577 -0.1941  0.3660  0.0954
   15CHTO  H201 5938   7.345   4.497   1.583  3.5902  0.8200  4.4529
   15CHTO  C120 5939   7.399   4.693   1.791  0.1065  0.6324  0.1886
   15CHTO  H224 5940   7.445   4.782   1.743  1.0525  0.5649  0.9474
   15CHTO   N21 5941   7.511   4.594   1.810  0.0109 -0.2389 -0.0114
   15CHTO  H211 5942   7.603   4.631   1.767 -0.6683 -0.4026 -1.6177
   15CHTO  H212 5943   7.482   4.494   1.783 -0.2404 -0.4241  0.9036
   15CHTO   O75 5944   7.044   4.680   1.621  0.2328  0.0704  0.0567
   15CHTO  C112 5945   7.009   4.529   1.629  0.1216 -0.3677  0.0023
   15CHTO  H216 5946   6.996   4.507   1.736  1.6997  0.4830  0.3783
   15CHTO   O73 5947   7.109   4.455   1.571 -0.4245 -0.3844  0.0090
   15CHTO  C113 5948   7.092   4.315   1.563  0.2578 -0.9288 -0.0784
   15CHTO  H217 5949   7.092   4.260   1.659 -1.6439 -0.5039  0.1813
   15CHTO  C124 5950   7.216   4.263   1.488  0.0533 -0.5641  0.0161
   15CHTO   O83 5951   7.336   4.275   1.562 -0.0346 -0.1279  0.1037
   15CHTO  H204 5952   7.372   4.362   1.565 -0.2729  0.0359 -1.2158
   15CHTO  C109 5953   6.962   4.274   1.498 -0.4489 -0.3691  0.0184
   15CHTO  H213 5954   6.971   4.302   1.392 -1.0348 -0.7431 -0.1327
   15CHTO  C110 5955   6.837   4.342   1.560  0.2177 -0.5749  0.1495
   15CHTO  H214 5956   6.807   4.319   1.662 -0.1439 -1.1668 -0.0905
   15CHTO   O78 5957   6.720   4.306   1.481  0.4326  0.5191  0.2532
   15CHTO  H200 5958   6.695   4.216   1.477 -3.7394  1.5865  0.0123
   15CHTO  C111 5959   6.867   4.491   1.554 -0.7033  0.0652 -0.5897
   15CHTO  H215 5960   6.885   4.522   1.450  0.9515 -0.6503 -0.5350
   15CHTO   N19 5961   6.756   4.570   1.610 -0.2157 -0.1570 -0.8255
   15CHTO  H207 5962   6.791   4.671   1.623  0.5026 -0.5372  0.3529
   15CHTO  H208 5963   6.679   4.581   1.536 -3.2664  0.8784  2.3753
   15CHTO   O74 5964   6.943   4.126   1.512  0.6349 -0.1083  0.0318
   15CHTO  C115 5965   6.864   4.069   1.383 -0.2598  0.2173  0.4121
   15CHTO  H219 5966   6.758   4.095   1.386 -0.2905 -0.0847  2.8367
   15CHTO   O76 5967   6.910   4.139   1.252 -0.2787  0.2397 -0.3339
   15CHTO  C122 5968   7.032   4.079   1.199 -0.1766  0.8113 -0.9544
   15CHTO  H226 5969   7.105   4.072   1.280 -1.1257  0.7080 -0.1038
   15CHTO  C126 5970   7.096   4.177   1.095 -0.1081 -0.3092  0.0231
   15CHTO   O85 5971   7.210   4.131   1.025 -0.5340  0.6569  0.2375
   15CHTO  H206 5972   7.192   4.113   0.934 -0.2432  0.7493  0.1615
   15CHTO  C121 5973   6.991   3.942   1.134 -0.0003 -1.0276 -0.4648
   15CHTO  H225 5974   6.957   3.960   1.030  0.0819  1.2002 -0.1201
   15CHTO   O81 5975   7.107   3.860   1.149  0.2798  0.4747  0.6501
   15CHTO  H202 5976   7.178   3.891   1.095  0.5441 -0.9410  0.1511
   15CHTO  C119 5977   6.876   3.872   1.221  0.0188  0.7695  0.1157
   15CHTO  H223 5978   6.781   3.910   1.183 -0.7117  0.2530  1.4033
   15CHTO  C117 5979   6.885   3.918   1.374 -0.5250  0.1223 -0.0161
   15CHTO  H221 5980   6.983   3.906   1.420 -0.8561  0.8751  0.8870
   15CHTO   N20 5981   6.795   3.834   1.465 -0.2732  0.4692 -0.4426
   15CHTO  H209 5982   6.788   3.731   1.435 -1.9943 -0.6258  3.4157
   15CHTO  H210 5983   6.698   3.882   1.464 -1.4709 -1.8605  0.5933
   15CHTO   O80 5984   6.864   3.713   1.184  0.7062  0.6385 -0.0287
   15CHTO  C103 5985   6.742   3.658   1.107  0.5664  0.2651 -0.5166
   15CHTO  H190 5986   6.652   3.714   1.133 -1.1665 -2.4318 -0.5472
   15CHTO  C101 5987   6.757   3.650   0.944 -0.3689 -0.1166 -0.0268
   15CHTO  H188 5988   6.838   3.581   0.920 -0.5011  0.5011 -2.4079
   15CHTO   O68 5989   6.798   3.782   0.897  0.0667 -0.0284  0.3472
   15CHTO  H168 5990   6.830   3.781   0.809 -1.1573  0.4797 -0.1109
   15CHTO   C99 5991   6.625   3.576   0.885 -0.1654  0.6145  1.3286
   15CHTO  H186 5992   6.541   3.645   0.907 -0.1439  1.4917 -1.1977
   15CHTO   N17 5993   6.619   3.570   0.735  0.1778 -0.1991  0.9182
   15CHTO  H174 5994   6.521   3.583   0.692  0.7366 -0.3487 -0.4052
   15CHTO  H175 5995   6.697   3.631   0.692  1.6363 -2.0664  0.8486
   15CHTO   C97 5996   6.601   3.437   0.960  0.2171 -0.1552  0.1728
   15CHTO  H184 5997   6.671   3.357   0.933 -0.0083 -0.6769  1.1321
   15CHTO   O64 5998   6.600   3.460   1.097  0.6800 -0.5761  0.2457
   15CHTO  C104 5999   6.718   3.511   1.161  0.0278 -0.2447 -0.5290
   15CHTO  H191 6000   6.809   3.454   1.142  0.6794  0.5206  0.3054
   15CHTO  C108 6001   6.698   3.512   1.312 -0.0159  0.4231  0.5165
   15CHTO   O71 6002   6.822   3.483   1.374 -0.4475 -0.3415  0.1915
   15CHTO  H171 6003   6.877   3.558   1.386  0.9186 -1.4465  0.9784
   15CHTO   O62 6004   6.468   3.388   0.940  0.2564 -0.2508 -0.1193
   15CHTO   C91 6005   6.455   3.292   0.827 -0.2704 -0.1687 -0.1831
   15CHTO  H178 6006   6.495   3.335   0.736 -1.6881  1.3260 -0.1165
   15CHTO   C92 6007   6.304   3.268   0.799  0.0886  0.0250  0.3587
   15CHTO  H179 6008   6.248   3.363   0.804  1.4351  0.8379  0.2874
   15CHTO   O66 6009   6.297   3.234   0.662 -0.4834 -0.2209 -0.3156
   15CHTO  H166 6010   6.338   3.152   0.643 -0.3501  0.2755 -2.2776
   15CHTO   C93 6011   6.230   3.157   0.879  0.3765  0.5778 -0.1335
   15CHTO  H180 6012   6.143   3.117   0.825 -0.5492  2.3821 -0.0333
   15CHTO   N16 6013   6.164   3.209   0.999 -0.5318 -0.0586 -0.0163
   15CHTO  H172 6014   6.231   3.256   1.069 -0.2955 -0.8975  0.3313
   15CHTO  H173 6015   6.082   3.272   0.969  0.2156  0.6601 -0.5671
   15CHTO   C94 6016   6.326   3.041   0.918  0.1152  0.0337 -0.5154
   15CHTO  H181 6017   6.358   3.048   1.022 -1.4213 -0.0412 -0.0313
   15CHTO   O61 6018   6.446   3.035   0.833  0.8039  0.1622 -0.2412
   15CHTO   C95 6019   6.531   3.150   0.844  0.4318 -0.4896 -0.2719
   15CHTO  H182 6020   6.573   3.150   0.944 -0.8628  1.6887  0.2810
   15CHTO  C106 6021   6.649   3.135   0.744  0.7671  0.4819  0.0257
   15CHTO   O69 6022   6.706   3.003   0.771 -0.6429  1.2386  0.0864
   15CHTO  H169 6023   6.787   3.001   0.725 -0.6538 -3.2960  0.0499
   15CHTO   O63 6024   6.260   2.915   0.908  0.2400  0.2131 -0.3523
   15CHTO   C96 6025   6.308   2.795   0.996  0.8078 -0.8652  0.1747
   15CHTO  H183 6026   6.328   2.823   1.100 -2.1320  0.6525  0.3964
   15CHTO   C98 6027   6.433   2.720   0.939  0.0161  0.2018  0.0539
   15CHTO  H185 6028   6.430   2.720   0.829  1.1403 -1.3619  0.0113
   15CHTO   O67 6029   6.540   2.804   0.977  0.9646  0.0648  0.2362
   15CHTO  H167 6030   6.566   2.863   0.908  0.3742  0.4416  0.3301
   15CHTO  C102 6031   6.457   2.565   0.991 -0.4760  0.0697  0.7506
   15CHTO  H189 6032   6.474   2.572   1.099 -0.9257  0.1836  0.8135
   15CHTO   N18 6033   6.574   2.496   0.935 -0.4247 -0.0180 -0.0464
   15CHTO  H176 6034   6.551   2.417   0.865  3.0867 -0.9498 -0.2509
   15CHTO  H177 6035   6.637   2.572   0.890 -0.4108  1.1249  1.8444
   15CHTO  C105 6036   6.320   2.501   0.959 -0.1897  0.3538 -0.5919
   15CHTO  H192 6037   6.304   2.508   0.851 -0.7280  0.8916 -0.4797
   15CHTO   O65 6038   6.215   2.564   1.030  0.2493 -0.2304 -0.0310
   15CHTO  C100 6039   6.183   2.702   1.004 -0.1606  0.1077  0.5671
   15CHTO  H187 6040   6.125   2.704   0.911  0.2961  2.7969  0.2910
   15CHTO  C107 6041   6.088   2.747   1.115  0.3195  0.0159 -1.0453
   15CHTO   O70 6042   6.046   2.882   1.127 -1.0003  0.0911  0.0178
   15CHTO  H170 6043   6.127   2.929   1.131 -1.1535  0.4955 -1.2420
   15CHTO   O57 6044   6.315   2.340   1.013 -0.0175  0.0496 -0.7407
   15CHTO   C85 6045   6.323   2.308   1.149  0.1898  0.3439 -0.0439
   15CHTO  H157 6046   6.337   2.406   1.200 -1.2913  0.2960  0.4758
   15CHTO   C83 6047   6.459   2.229   1.170  0.3687  0.3382 -1.2323
   15CHTO  H155 6048   6.539   2.303   1.159  0.4209  1.1176  3.3410
   15CHTO   O56 6049   6.477   2.135   1.067  0.0458  0.5912  0.1031
   15CHTO  H135 6050   6.474   2.180   0.984  2.8834  0.6664 -0.0102
   15CHTO   C81 6051   6.468   2.171   1.308 -0.3973 -0.5963 -1.2049
   15CHTO  H153 6052   6.451   2.255   1.376  0.7026 -1.9440  0.7545
   15CHTO   N14 6053   6.602   2.115   1.337  0.5153 -0.1167  0.1554
   15CHTO  H141 6054   6.600   2.015   1.377  2.2183 -0.7156 -1.1909
   15CHTO  H142 6055   6.655   2.178   1.405 -1.6405  2.3079 -0.3552
   15CHTO   C79 6056   6.347   2.071   1.332  0.4114  0.0111 -0.6080
   15CHTO  H151 6057   6.344   2.044   1.437 -3.0412 -1.0284 -0.9097
   15CHTO   O52 6058   6.224   2.137   1.311 -0.0109  0.2975  0.4864
   15CHTO   C86 6059   6.204   2.234   1.199  0.1260 -0.0637  0.0556
   15CHTO  H158 6060   6.158   2.174   1.117  0.0499 -1.2162  0.9365
   15CHTO   C90 6061   6.091   2.332   1.251 -0.7468  1.0284 -0.6592
   15CHTO   O60 6062   5.961   2.275   1.242  0.2949 -0.0471  0.1532
   15CHTO  H138 6063   5.949   2.212   1.311  0.6381  2.9565  3.0551
   15CHTO   O50 6064   6.342   1.954   1.247  0.6665  0.3146 -0.3562
   15CHTO   C73 6065   6.247   1.856   1.194 -0.6089 -0.6939  0.2134
   15CHTO  H145 6066   6.166   1.910   1.143 -1.9923 -2.4235  0.5039
   15CHTO   C74 6067   6.179   1.772   1.307 -0.0512  0.2813 -0.3671
   15CHTO  H146 6068   6.118   1.836   1.373 -1.1802 -0.2992 -0.8441
   15CHTO   O54 6069   6.081   1.678   1.247  0.1713 -0.0286  0.1570
   15CHTO  H133 6070   6.029   1.649   1.319  1.5273  1.9318  1.9826
   15CHTO   C75 6071   6.297   1.704   1.383  0.2535  0.6952  0.2408
   15CHTO  H147 6072   6.365   1.782   1.421 -0.7851  1.1116  1.2753
   15CHTO   N13 6073   6.264   1.640   1.512 -0.2894 -0.2183  0.1884
   15CHTO  H139 6074   6.223   1.540   1.500  2.7819 -1.2530 -2.3872
   15CHTO  H140 6075   6.204   1.706   1.572  0.5517  0.3569  0.3958
   15CHTO   C76 6076   6.377   1.604   1.284 -0.2061 -0.1803 -0.0918
   15CHTO  H148 6077   6.319   1.515   1.261  0.4784 -0.9720  1.1741
   15CHTO   O49 6078   6.405   1.664   1.148  0.5450 -0.4944  0.0963
   15CHTO   C77 6079   6.312   1.764   1.096 -0.1961  0.3573 -0.3847
   15CHTO  H149 6080   6.238   1.696   1.052 -1.4319  0.3321  1.6907
   15CHTO   C88 6081   6.376   1.829   0.969 -0.7188 -0.3273 -0.1345
   15CHTO   O58 6082   6.275   1.913   0.901 -0.3520 -0.0178  0.0903
   15CHTO  H136 6083   6.260   1.990   0.953 -0.5134  1.1660 -1.6858
   15CHTO   O51 6084   6.520   1.575   1.346  0.4649 -0.0029  0.0930
   15CHTO   C78 6085   6.604   1.477   1.262  0.6888  0.5841  0.7031
   15CHTO  H150 6086   6.555   1.448   1.167  1.6927 -1.6475  0.8304
   15CHTO   C80 6087   6.622   1.344   1.339  0.6367 -0.4125  0.0408
   15CHTO  H152 6088   6.661   1.369   1.440  0.3589 -1.7964  0.4951
   15CHTO   O55 6089   6.489   1.286   1.347 -0.0507 -0.3134 -0.5333
   15CHTO  H134 6090   6.469   1.278   1.438  0.9670 -3.0294 -0.5016
   15CHTO   C84 6091   6.719   1.246   1.255  0.1574  0.0814  0.2082
   15CHTO  H156 6092   6.679   1.218   1.158 -1.4948 -2.6343  1.6229
   15CHTO   N15 6093   6.736   1.109   1.318 -0.2427 -0.3313  0.0668
   15CHTO  H143 6094   6.773   1.124   1.417  0.3391  0.9143 -0.3337
   15CHTO  H144 6095   6.813   1.060   1.262 -0.6929  0.8965 -1.6683
   15CHTO   C87 6096   6.857   1.319   1.235  0.0041 -0.6898  0.1749
   15CHTO  H159 6097   6.907   1.347   1.327 -0.8278 -0.6757  0.6278
   15CHTO   O53 6098   6.822   1.449   1.163 -0.3131  0.3495  0.2092
   15CHTO   C82 6099   6.741   1.537   1.234  0.5191  0.1771 -0.1313
   15CHTO  H154 6100   6.787   1.568   1.328  0.0415  2.2767 -0.5577
   15CHTO   C89 6101   6.747   1.658   1.147  0.2480  0.0329  0.2971
   15CHTO   O59 6102   6.735   1.645   1.007  0.1475  0.2808 -0.0159
   15CHTO  H137 6103   6.822   1.650   0.973  1.0844 -2.7457  1.7377
   15CHTO   O45 6104   6.959   1.248   1.137  0.0926  0.0653  0.4543
   15CHTO   C67 6105   7.093   1.301   1.145  0.4269 -0.1161  0.5939
   15CHTO  H124 6106   7.088   1.400   1.190  1.1988  0.3397 -0.3136
   15CHTO   C65 6107   7.179   1.215   1.237 -0.3024 -0.4621  0.0806
   15CHTO  H122 6108   7.148   1.111   1.233  0.0132 -0.5178 -1.2950
   15CHTO   O44 6109   7.148   1.258   1.369  0.3266  0.3844 -0.5044
   15CHTO  H102 6110   7.178   1.346   1.384  1.3691 -0.2581  1.3388
   15CHTO   C63 6111   7.336   1.219   1.196 -0.4338 -0.6323 -0.5516
   15CHTO  H120 6112   7.351   1.146   1.117 -0.3475 -1.3249  0.0953
   15CHTO   N11 6113   7.428   1.162   1.300 -0.9309 -0.3950  0.3875
   15CHTO  H108 6114   7.486   1.082   1.259  0.5616  0.7061  0.2942
   15CHTO  H109 6115   7.364   1.120   1.374 -1.2375 -0.3519  0.1479
   15CHTO   C61 6116   7.361   1.368   1.141 -0.2507 -0.5602  0.3031
   15CHTO  H118 6117   7.469   1.365   1.119 -0.3853  1.2179 -0.6945
   15CHTO   O40 6118   7.293   1.398   1.018  0.0667 -0.6933  0.2032
   15CHTO   C68 6119   7.168   1.323   1.005 -0.0679  0.1654  0.2095
   15CHTO  H125 6120   7.182   1.224   0.958  1.0742  0.4016  0.0414
   15CHTO   C72 6121   7.073   1.398   0.916  0.1379  0.0839 -0.0754
   15CHTO   O48 6122   7.132   1.424   0.790 -0.1092 -0.3250 -0.4565
   15CHTO  H105 6123   7.087   1.500   0.758  0.0149 -0.2791 -0.5210
   15CHTO   O38 6124   7.338   1.474   1.242  0.6791  0.5089  0.1241
   15CHTO   C55 6125   7.383   1.605   1.218  0.1902  0.6109  0.0218
   15CHTO  H112 6126   7.399   1.626   1.111 -1.6359 -0.8343 -0.5692
   15CHTO   C56 6127   7.511   1.637   1.308  0.1167 -0.1290 -0.3497
   15CHTO  H113 6128   7.470   1.611   1.407 -0.8852 -1.7117 -1.1648
   15CHTO   O42 6129   7.625   1.562   1.282  0.7611  0.1197 -0.3857
   15CHTO  H100 6130   7.683   1.608   1.224 -1.2610 -0.1898 -2.7575
   15CHTO   C57 6131   7.546   1.793   1.292 -0.0271  0.6660  0.4458
   15CHTO  H114 6132   7.594   1.810   1.195  1.7338 -2.4967  0.6841
   15CHTO   N10 6133   7.650   1.827   1.389  0.0342  0.1768 -0.3044
   15CHTO  H106 6134   7.749   1.828   1.344 -1.1772 -0.3762 -3.1032
   15CHTO  H107 6135   7.647   1.772   1.482  0.5850  0.6460 -0.0077
   15CHTO   C58 6136   7.424   1.892   1.308 -0.9452 -0.4528 -0.0053
   15CHTO  H115 6137   7.403   1.899   1.416 -0.2422 -2.1353  0.2656
   15CHTO   O37 6138   7.313   1.848   1.238  0.8553 -0.2080  0.2874
   15CHTO   C59 6139   7.275   1.711   1.263 -0.7162 -0.0867  0.0531
   15CHTO  H116 6140   7.261   1.708   1.371  3.0175 -0.6255  0.5908
   15CHTO   C70 6141   7.141   1.682   1.203 -0.5642  0.5496  0.2051
   15CHTO   O46 6142   7.041   1.777   1.246 -0.3631  0.2375 -0.0808
   15CHTO  H103 6143   7.070   1.862   1.222  1.7609 -0.4566 -0.0692
   15CHTO   O39 6144   7.477   2.044   1.243 -0.7991  0.0299 -0.0412
   15CHTO   C60 6145   7.432   2.080   1.115 -0.6081 -0.1262 -0.4488
   15CHTO  H117 6146   7.405   1.992   1.056  0.9822  1.1101 -3.1556
   15CHTO   C62 6147   7.306   2.177   1.111  0.1102 -0.4766  0.0331
   15CHTO  H119 6148   7.228   2.142   1.182 -0.3265  0.1981 -0.1030
   15CHTO   O43 6149   7.345   2.307   1.158 -0.0416  0.2521 -0.2484
   15CHTO  H101 6150   7.350   2.315   1.251  2.7070  0.3906 -0.3583
   15CHTO   C66 6151   7.253   2.187   0.960  0.3735  0.2039  0.2637
   15CHTO  H123 6152   7.228   2.087   0.926 -1.7314  0.5966  0.5758
   15CHTO   N12 6153   7.122   2.258   0.950  0.0179  0.2962 -0.1646
   15CHTO  H110 6154   7.071   2.238   1.044 -1.0361 -0.6832 -0.9340
   15CHTO  H111 6155   7.058   2.225   0.870 -0.1041 -1.1127  0.5004
   15CHTO   C69 6156   7.363   2.251   0.867  0.2871 -1.0249  0.2728
   15CHTO  H126 6157   7.369   2.359   0.893 -1.3655 -1.0178  0.6532
   15CHTO   O41 6158   7.508   2.177   0.877  0.0995  0.1919 -0.0855
   15CHTO   C64 6159   7.548   2.148   1.037 -0.3179  0.2233  0.5158
   15CHTO  H121 6160   7.562   2.248   1.083  0.5912  0.4628 -0.2641
   15CHTO   C71 6161   7.674   2.078   1.062 -0.0467  0.2148  0.3243
   15CHTO   O47 6162   7.664   1.946   1.008 -0.1412  0.2260 -0.3969
   15CHTO  H104 6163   7.630   1.946   0.920  1.3033  1.3054 -0.9754
   15CHTO   O34 6164   7.336   2.235   0.718 -0.3429  0.1934 -0.0023
   15CHTO   C49 6165   7.268   2.273   0.580  0.4336 -0.2922 -0.4637
   15CHTO   H91 6166   7.244   2.177   0.535 -0.4184 -0.4308  0.2673
   15CHTO   C47 6167   7.369   2.346   0.492 -0.3519  0.4235 -0.2425
   15CHTO   H89 6168   7.308   2.356   0.400  1.8499 -0.7805 -1.8815
   15CHTO   O33 6169   7.473   2.252   0.466 -0.0228  0.2592  0.1438
   15CHTO   H70 6170   7.498   2.279   0.379  0.0945 -1.4556 -0.3711
   15CHTO   C45 6171   7.411   2.486   0.551 -0.1169  0.3095  0.7421
   15CHTO   H87 6172   7.451   2.460   0.651  2.3402  1.3883  0.0928
   15CHTO    N8 6173   7.515   2.567   0.475 -0.6741  0.4167 -0.6000
   15CHTO   H75 6174   7.511   2.672   0.500 -0.8508  0.4623 -0.8250
   15CHTO   H76 6175   7.551   2.536   0.378  2.7715  0.4551  0.5884
   15CHTO   C43 6176   7.277   2.568   0.569 -0.4545  0.0850  0.9370
   15CHTO   H85 6177   7.313   2.654   0.626 -1.7464  0.3740  1.3312
   15CHTO   O29 6178   7.177   2.498   0.636  0.0950  0.2704  0.3005
   15CHTO   C50 6179   7.147   2.366   0.592  0.0520  0.0415 -0.0901
   15CHTO   H92 6180   7.091   2.314   0.671 -1.5513 -0.4931 -1.5538
   15CHTO   C54 6181   7.047   2.355   0.474 -0.2869  0.2218  0.3446
   15CHTO   O36 6182   6.928   2.418   0.521  0.2345  0.1946  0.3557
   15CHTO   H72 6183   6.866   2.431   0.451  0.3045 -2.5836 -0.2802
   15CHTO   O27 6184   7.241   2.631   0.443  0.0277  0.6777 -0.1131
   15CHTO   C37 6185   7.144   2.689   0.351  0.1756 -0.2224  1.1142
   15CHTO   H79 6186   7.090   2.605   0.304 -2.0338  1.5775  0.3772
   15CHTO   C38 6187   7.043   2.774   0.437 -0.7964  0.2813  0.5594
   15CHTO   H80 6188   7.099   2.819   0.519  1.2403 -0.7474 -0.2256
   15CHTO   O31 6189   6.957   2.681   0.489  0.6519  0.0228  0.0056
   15CHTO   H68 6190   6.987   2.641   0.569  1.9620  2.8933  1.0057
   15CHTO   C39 6191   6.963   2.881   0.354 -0.4577 -0.3645 -0.4192
   15CHTO   H81 6192   6.879   2.829   0.308 -1.4524 -0.4158  1.4047
   15CHTO    N7 6193   6.909   2.988   0.445 -0.2169 -0.0579  0.5855
   15CHTO   H73 6194   6.836   3.035   0.381  2.1808  0.5994 -1.7751
   15CHTO   H74 6195   6.864   2.940   0.531 -0.5219 -1.6026 -0.4213
   15CHTO   C40 6196   7.046   2.942   0.234  0.2550  0.1379  0.1740
   15CHTO   H82 6197   7.116   3.017   0.271  0.8432 -0.7990  0.9767
   15CHTO   O26 6198   7.114   2.844   0.160  0.3431 -0.1814  0.1975
   15CHTO   C41 6199   7.213   2.775   0.244 -1.1339 -0.1215  0.5722
   15CHTO   H83 6200   7.277   2.852   0.291 -0.6232  0.8894 -1.6933
   15CHTO   C52 6201   7.306   2.682   0.160 -0.0276 -0.8451  0.6236
   15CHTO   O35 6202   7.398   2.764   0.052 -0.1245 -0.2595 -0.0151
   15CHTO   H71 6203   7.346   2.804  -0.014 -0.8861  0.6716  1.1235
   15CHTO   O28 6204   6.950   2.998   0.142  0.5105  0.2137 -0.2302
   15CHTO   C42 6205   6.969   3.104   0.045  0.0157  0.4419 -0.3784
   15CHTO   H84 6206   6.927   3.067  -0.048 -0.0849 -1.6895  0.4857
   15CHTO   C44 6207   7.107   3.152   0.009 -0.2682 -0.2310  0.9133
   15CHTO   H86 6208   7.151   3.196   0.099 -1.2703  2.2335  0.2427
   15CHTO   O32 6209   7.181   3.033  -0.033  0.0372 -0.6793 -0.4932
   15CHTO   H69 6210   7.268   3.063  -0.050 -0.5333  1.1340 -0.3557
   15CHTO   C48 6211   7.098   3.259  -0.100 -0.3786  0.2451 -0.0651
   15CHTO   H90 6212   7.054   3.212  -0.187  0.0254  1.1128 -0.7550
   15CHTO    N9 6213   7.235   3.310  -0.153 -0.2560 -0.0957 -0.8702
   15CHTO   H77 6214   7.250   3.413  -0.125 -0.9347  0.0365 -1.0043
   15CHTO   H78 6215   7.239   3.302  -0.261 -0.0787  0.5388 -0.9102
   15CHTO   C51 6216   7.013   3.382  -0.047  0.5969  0.4755  0.0397
   15CHTO   H93 6217   7.047   3.414   0.051  0.3626  1.9385 -0.3548
   15CHTO   O30 6218   6.881   3.329  -0.045  0.7341  0.2798  0.1604
   15CHTO   C46 6219   6.877   3.222   0.085  0.0898 -0.3073  0.0581
   15CHTO   H88 6220   6.912   3.268   0.178  0.7337 -0.7855  0.0517
   15CHTO   C53 6221   6.728   3.183   0.097 -0.5552  0.0315 -0.2853
   15CHTO   O72 6222   6.654   3.298   0.143  0.5809 -0.2453 -0.3346
   15CHTO  H199 6223   6.594   3.342   0.086 -0.1055  0.5084  0.9638
   15CHTO   O22 6224   6.999   3.484  -0.145 -0.0061  0.0694 -0.3944
   15CHTO   C31 6225   6.942   3.616  -0.112 -0.1319  0.6350 -0.1276
   15CHTO   H59 6226   6.930   3.667  -0.210 -3.2474 -1.7545 -1.0804
   15CHTO   C29 6227   6.801   3.626  -0.039 -0.8572  0.8395  0.3671
   15CHTO   H57 6228   6.800   3.566   0.053  0.9921 -1.7095 -1.2069
   15CHTO   O21 6229   6.698   3.563  -0.120  0.4454 -0.4211 -0.1475
   15CHTO   H37 6230   6.710   3.475  -0.149 -1.2948 -0.6042 -0.3597
   15CHTO   C27 6231   6.767   3.774  -0.003 -0.2613 -0.0767 -0.0083
   15CHTO   H55 6232   6.753   3.835  -0.093  0.1899  2.0667  1.3375
   15CHTO    N5 6233   6.642   3.787   0.069 -0.0798 -0.2878 -0.1417
   15CHTO   H43 6234   6.644   3.879   0.126  0.1074 -0.6940  0.5058
   15CHTO   H44 6235   6.564   3.798  -0.005 -0.7304  0.2094  0.6123
   15CHTO   C25 6236   6.891   3.837   0.073  0.8293 -0.4763 -0.0729
   15CHTO   H53 6237   6.912   3.785   0.167 -0.1656  0.3302  0.6047
   15CHTO   O17 6238   7.011   3.829  -0.017  0.0754  0.1000 -0.0497
   15CHTO   C32 6239   7.052   3.695  -0.035 -0.1681 -0.1595  0.1323
   15CHTO   H60 6240   7.070   3.648   0.061 -0.1417 -1.4672 -0.4983
   15CHTO   C36 6241   7.176   3.709  -0.121 -0.9321  0.2531 -0.1897
   15CHTO   O25 6242   7.287   3.783  -0.062  0.2976  0.5033  0.2205
   15CHTO   H40 6243   7.301   3.870  -0.094 -1.6502  0.5464 -0.5667
   15CHTO   O15 6244   6.867   3.991   0.112 -0.2298 -0.0501 -0.2366
   15CHTO   C19 6245   6.917   4.117   0.152  0.1601 -1.0491 -0.1380
   15CHTO   H47 6246   6.988   4.138   0.071  1.2812 -0.1750  1.0435
   15CHTO   C20 6247   6.803   4.221   0.151 -0.5294  0.7778  0.0312
   15CHTO   H48 6248   6.717   4.184   0.209 -2.6236  3.1098 -1.4452
   15CHTO   O19 6249   6.756   4.236   0.014 -0.3167 -0.0740 -0.2205
   15CHTO   H35 6250   6.707   4.315   0.000 -0.3569 -0.3737 -1.9416
   15CHTO   C21 6251   6.847   4.359   0.210  0.0617  0.6037 -0.1472
   15CHTO   H49 6252   6.908   4.403   0.130 -0.1679  0.1386 -0.5820
   15CHTO    N4 6253   6.737   4.453   0.228 -0.5294  0.7164 -0.9383
   15CHTO   H41 6254   6.683   4.450   0.134 -2.3819  1.5968  0.0839
   15CHTO   H42 6255   6.670   4.431   0.309 -0.5004 -1.9983 -1.5791
   15CHTO   C22 6256   6.939   4.351   0.336  0.4038 -0.0147  0.3484
   15CHTO   H50 6257   6.875   4.309   0.414 -0.0800 -1.5089 -0.8092
   15CHTO   O14 6258   7.045   4.257   0.320 -0.5369 -0.0759 -0.0174
   15CHTO   C23 6259   6.999   4.125   0.280  0.1474  0.1292  0.6166
   15CHTO   H51 6260   6.941   4.087   0.366 -0.5779 -0.8362 -0.2906
   15CHTO   C34 6261   7.122   4.030   0.268  0.1725 -0.6201 -0.2237
   15CHTO   O23 6262   7.192   3.986   0.384  0.0571  0.0727 -0.0292
   15CHTO   H38 6263   7.134   3.955   0.451 -2.0300  2.4505 -0.6423
   15CHTO   O16 6264   7.006   4.464   0.383 -0.0354  0.5487 -0.4415
   15CHTO   C24 6265   7.047   4.462   0.546 -0.1946  0.3938  0.2271
   15CHTO   H52 6266   7.022   4.367   0.594  2.0992 -0.7294 -0.7557
   15CHTO   C26 6267   6.966   4.580   0.605 -0.1774 -0.2318  0.0748
   15CHTO   H54 6268   6.988   4.671   0.546 -1.3451 -0.7266 -1.1448
   15CHTO   O20 6269   6.821   4.574   0.575  0.0650  0.4854 -0.1961
   15CHTO   H36 6270   6.794   4.485   0.588  0.0883  0.4220 -0.5694
   15CHTO   C30 6271   7.004   4.606   0.753  0.2084 -0.0627  0.3091
   15CHTO   H58 6272   6.972   4.515   0.806  0.2531 -0.2873 -0.0497
   15CHTO    N6 6273   6.928   4.727   0.815 -0.4171  0.3846  0.5494
   15CHTO   H45 6274   6.899   4.794   0.736 -2.7953  0.1235  1.1750
   15CHTO   H46 6275   6.843   4.707   0.878 -0.1942 -3.0770 -0.1448
   15CHTO   C33 6276   7.157   4.612   0.774 -0.8450  0.2046 -0.6319
   15CHTO   H61 6277   7.200   4.705   0.734 -1.8424 -0.4738 -3.4515
   15CHTO   O18 6278   7.219   4.498   0.706 -0.7725  0.1793 -0.3587
   15CHTO   C28 6279   7.196   4.483   0.567  0.0590  0.0134 -0.4715
   15CHTO   H56 6280   7.230   4.575   0.519  0.9335  0.0101  0.1289
   15CHTO   C35 6281   7.278   4.357   0.520  0.1762 -0.5277 -0.0495
   15CHTO   O24 6282   7.418   4.378   0.525  0.4044 -0.3301  0.1137
   15CHTO   H39 6283   7.440   4.445   0.464 -1.2193  0.0255 -0.1098
   15CHTO    O9 6284   7.195   4.611   0.914 -0.5682 -0.5390 -0.1927
   15CHTO   C13 6285   7.346   4.683   0.934 -0.0492  0.6307 -0.2746
   15CHTO   H26 6286   7.335   4.792   0.913  2.0956  0.8021 -0.6342
   15CHTO   C11 6287   7.459   4.620   0.839  0.3230 -0.0123  0.0141
   15CHTO   H24 6288   7.428   4.638   0.735  0.5629 -2.6931 -0.5654
   15CHTO    O8 6289   7.454   4.473   0.856 -0.0019 -0.6150  0.0007
   15CHTO    H3 6290   7.503   4.427   0.791  0.9324  0.2436  0.0832
   15CHTO    C9 6291   7.599   4.681   0.869 -0.6114  0.4502  0.5941
   15CHTO   H22 6292   7.581   4.789   0.857  0.3665  0.5521 -0.0429
   15CHTO    N2 6293   7.705   4.651   0.772  0.5952 -0.6129 -0.1616
   15CHTO   H10 6294   7.803   4.697   0.772  0.0549  0.5900 -1.4283
   15CHTO   H11 6295   7.710   4.545   0.751  0.2177 -1.0210  1.7863
   15CHTO    C7 6296   7.641   4.659   1.022 -0.4211 -0.0187  0.4149
   15CHTO   H20 6297   7.724   4.731   1.037 -0.2618 -0.1608  0.2214
   15CHTO    O4 6298   7.533   4.699   1.110  0.2647 -0.0767  0.3635
   15CHTO   C14 6299   7.391   4.689   1.079  0.0612 -1.0649 -0.4845
   15CHTO   H27 6300   7.354   4.779   1.132  1.1720 -1.0516  0.3025
   15CHTO   C18 6301   7.336   4.572   1.160 -0.6578  0.3116  0.3651
   15CHTO   O13 6302   7.398   4.441   1.137 -0.4293  0.0121 -0.1083
   15CHTO    H7 6303   7.399   4.420   1.046  3.2843 -0.6458 -0.0182
   15CHTO    O2 6304   7.683   4.507   1.054  0.2123  0.6261  0.0980
   15CHTO    C1 6305   7.780   4.495   1.159 -0.1355  0.0003  0.1642
   15CHTO   H14 6306   7.762   4.578   1.230 -0.9013 -1.1603  1.3582
   15CHTO    C2 6307   7.927   4.513   1.106 -0.2300 -0.4345  0.2181
   15CHTO   H15 6308   7.929   4.454   1.014 -0.6565  0.4393 -0.3589
   15CHTO    O6 6309   7.956   4.647   1.075 -0.3912 -0.0714 -0.0352
   15CHTO    H1 6310   7.955   4.659   0.982  1.1024  1.8771  0.1747
   15CHTO    C3 6311   8.045   4.452   1.202  0.5423 -0.3442  0.4795
   15CHTO   H16 6312   8.056   4.523   1.285 -1.0286 -0.0022  0.3984
   15CHTO    N1 6313   8.173   4.430   1.130  0.3920 -0.0445 -0.3868
   15CHTO    H8 6314   8.243   4.386   1.200  1.1262 -0.1524 -1.1917
   15CHTO    H9 6315   8.216   4.529   1.121  0.0756  0.1075 -0.2470
   15CHTO    C4 6316   8.002   4.319   1.270  0.6314  0.0780 -0.6776
   15CHTO   H17 6317   7.991   4.239   1.196  0.8433 -0.0592 -0.5592
   15CHTO    O1 6318   7.873   4.343   1.331 -0.3785 -0.0982 -0.1427
   15CHTO    C5 6319   7.763   4.364   1.246 -0.1640  0.1878  0.8775
   15CHTO   H18 6320   7.743   4.287   1.172 -2.5382  1.1646  0.4674
   15CHTO   C16 6321   7.644   4.370   1.336 -0.1536 -0.0034 -0.3419
   15CHTO   O11 6322   7.588   4.248   1.377 -0.4213 -0.1968 -0.1504
   15CHTO    H5 6323   7.538   4.253   1.456  0.9649 -2.7411  0.9581
   15CHTO    O3 6324   8.084   4.285   1.387  0.4024 -0.0765  0.0024
   15CHTO    C6 6325   8.078   4.139   1.419  0.1047  0.3738 -0.7532
   15CHTO   H19 6326   7.998   4.091   1.362  0.3967 -3.1184  1.6210
   15CHTO    C8 6327   8.201   4.066   1.380 -0.0105 -0.1741  0.5033
   15CHTO   H21 6328   8.284   4.125   1.420 -0.2374  1.2277 -1.0203
   15CHTO    O7 6329   8.206   4.080   1.237  0.3241 -0.3955 -0.5249
   15CHTO    H2 6330   8.281   4.035   1.204 -0.8019 -2.9443  0.3018
   15CHTO   C12 6331   8.192   3.915   1.425  0.4136  0.2248  0.3104
   15CHTO   H25 6332   8.100   3.873   1.380 -0.7556  1.8715  1.0945
   15CHTO    N3 6333   8.318   3.840   1.381  0.7925 -0.4717 -0.2952
   15CHTO   H12 6334   8.405   3.893   1.418  2.1279  0.1618 -4.1558
   15CHTO   H13 6335   8.324   3.841   1.273  0.8598  0.4911 -0.2838
   15CHTO   C15 6336   8.172   3.915   1.584  0.0942  0.7091 -0.0505
   15CHTO   H28 6337   8.255   3.963   1.636 -1.6842  2.1523  1.5002
   15CHTO   O10 6338   8.146   3.783   1.644 -0.2187  0.1695 -0.1592
   15CHTO    H4 6339   8.228   3.742   1.663  0.2724  0.1160 -2.3367
   15CHTO    O5 6340   8.053   3.988   1.616 -0.3528  0.0238  0.6738
   15CHTO   C10 6341   8.045   4.122   1.569  0.2370 -0.0384  0.6279
   15CHTO   H23 6342   8.113   4.180   1.631  1.5230 -0.8919  0.0174
   15CHTO   C17 6343   7.907   4.167   1.616  0.4847  0.1408 -0.1112
   15CHTO   O12 6344   7.873   4.301   1.625 -0.4353  0.0563  0.4729
   15CHTO    H6 6345   7.936   4.331   1.687 -1.0069  1.4939  0.3624
   16CHTO  H203 6346   6.055   4.546   0.447  2.1005  0.4972  1.4568
   16CHTO   O82 6347   6.091   4.460   0.447  0.0467 -0.4191 -0.5949
   16CHTO  C123 6348   6.228   4.464   0.488 -0.4687 -0.1092  0.0818
   16CHTO  H227 6349   6.266   4.567   0.494 -1.2421  0.1157  1.3575
   16CHTO   O77 6350   6.220   4.406   0.618 -0.2367  0.1262 -0.3888
   16CHTO  C118 6351   6.341   4.403   0.684 -0.0518 -0.0002 -0.1877
   16CHTO  H222 6352   6.384   4.504   0.675  2.1926 -0.8057  1.0177
   16CHTO  C125 6353   6.305   4.380   0.830  0.1323  0.0854 -0.0084
   16CHTO   O84 6354   6.227   4.261   0.846  0.1496 -0.7199 -0.1072
   16CHTO  H205 6355   6.208   4.262   0.938 -2.3791  0.7813 -0.5928
   16CHTO  C114 6356   6.438   4.300   0.619  0.3409  0.5067 -0.1792
   16CHTO  H218 6357   6.387   4.203   0.618  0.3174  0.5201 -0.2443
   16CHTO  C116 6358   6.459   4.334   0.472 -0.1138  0.2172 -0.1947
   16CHTO  H220 6359   6.523   4.425   0.468 -0.4200  0.3977 -0.9598
   16CHTO   O79 6360   6.532   4.233   0.396  0.2273 -0.1868 -0.1836
   16CHTO  H201 6361   6.609   4.199   0.436 -1.0301 -0.4283  2.1315
   16CHTO  C120 6362   6.316   4.366   0.404 -0.8456 -0.2830  0.0406
   16CHTO  H224 6363   6.260   4.270   0.395 -0.6369 -0.5053  1.1170
   16CHTO   N21 6364   6.333   4.423   0.266  0.1567  0.2981 -0.0402
   16CHTO  H211 6365   6.254   4.493   0.243  1.1645  1.5099  0.0944
   16CHTO  H212 6366   6.340   4.344   0.193 -1.2569 -0.8557  1.0323
   16CHTO   O75 6367   6.557   4.293   0.696  0.4840  0.2810  0.0056
   16CHTO  C112 6368   6.672   4.192   0.637  0.5128  0.3511  0.1022
   16CHTO  H216 6369   6.711   4.253   0.555 -0.6877  0.2774 -0.5408
   16CHTO   O73 6370   6.607   4.068   0.586 -0.3638 -0.4826 -0.5483
   16CHTO  C113 6371   6.691   3.978   0.515  0.3710 -0.6937 -0.0382
   16CHTO  H217 6372   6.729   4.038   0.430 -0.5241  0.2053  0.1795
   16CHTO  C124 6373   6.603   3.865   0.459 -0.2811  0.4584 -0.5349
   16CHTO   O83 6374   6.503   3.901   0.362  0.2691 -0.1633  0.2593
   16CHTO  H204 6375   6.435   3.954   0.402 -0.3948 -1.9591  1.5845
   16CHTO  C109 6376   6.819   3.933   0.597  0.2926 -0.0842  0.2883
   16CHTO  H213 6377   6.784   3.869   0.679 -1.8389  0.8905  0.1706
   16CHTO  C110 6378   6.888   4.063   0.666 -0.0902  0.2549  1.0749
   16CHTO  H214 6379   6.938   4.127   0.593 -0.6259  0.6652  1.0648
   16CHTO   O78 6380   6.993   4.012   0.755 -0.2106 -0.0928 -0.0987
   16CHTO  H200 6381   7.011   4.068   0.828 -0.1198 -0.8457  0.4598
   16CHTO  C111 6382   6.780   4.147   0.736  0.2804  0.6247 -0.4501
   16CHTO  H215 6383   6.729   4.081   0.808  2.2615 -0.2793  0.1683
   16CHTO   N19 6384   6.839   4.259   0.818  0.2333 -0.1399  0.1453
   16CHTO  H207 6385   6.792   4.351   0.787 -0.6060 -0.2776  0.9882
   16CHTO  H208 6386   6.817   4.234   0.921  0.2581 -1.2343 -0.0998
   16CHTO   O74 6387   6.919   3.867   0.515  0.3842  0.3778  0.6845
   16CHTO  C115 6388   6.920   3.705   0.509  0.5578  0.2886 -0.6958
   16CHTO  H219 6389   6.840   3.660   0.568 -0.1432  1.4242 -0.7820
   16CHTO   O76 6390   6.896   3.658   0.365 -0.1279 -0.0630 -0.0269
   16CHTO  C122 6391   6.880   3.514   0.355 -0.2784  0.0929  0.1736
   16CHTO  H226 6392   6.879   3.490   0.248 -0.6666 -1.8831  0.5991
   16CHTO  C126 6393   6.745   3.467   0.399  0.4012  0.4591  0.2259
   16CHTO   O85 6394   6.642   3.524   0.328 -0.1364 -0.1154 -0.4924
   16CHTO  H206 6395   6.561   3.513   0.375  0.5246 -0.5876  0.5430
   16CHTO  C121 6396   7.007   3.428   0.413 -0.2330  0.2893 -0.4637
   16CHTO  H225 6397   6.964   3.328   0.436  0.1432  0.2314 -0.0051
   16CHTO   O81 6398   7.107   3.429   0.312  0.4037 -0.6072 -0.1128
   16CHTO  H202 6399   7.144   3.343   0.304 -0.8117 -1.0910 -0.7200
   16CHTO  C119 6400   7.052   3.487   0.547  0.0359 -0.1895  0.5107
   16CHTO  H223 6401   6.975   3.452   0.615 -1.1136  0.7678 -0.2709
   16CHTO  C117 6402   7.055   3.645   0.556 -0.7287 -0.1493  0.0014
   16CHTO  H221 6403   7.130   3.688   0.490  0.5802 -2.3549 -0.0069
   16CHTO   N20 6404   7.091   3.693   0.693  0.4842 -0.5727 -0.7301
   16CHTO  H209 6405   7.086   3.800   0.693 -0.7099 -0.6269 -0.0631
   16CHTO  H210 6406   7.193   3.664   0.717  0.5654  1.1252  1.0416
   16CHTO   O80 6407   7.186   3.412   0.599 -0.0576  0.3888 -0.2344
   16CHTO  C103 6408   7.185   3.259   0.607 -0.1755  0.0146 -0.5408
   16CHTO  H190 6409   7.090   3.214   0.575 -0.1255 -0.2557 -0.3161
   16CHTO  C101 6410   7.296   3.186   0.527  0.2629  0.1853  0.4630
   16CHTO  H188 6411   7.388   3.244   0.530 -0.4005  1.2623  0.1703
   16CHTO   O68 6412   7.252   3.193   0.374  0.3125 -0.5293  0.5489
   16CHTO  H168 6413   7.182   3.133   0.353  1.5248 -1.2491 -1.5441
   16CHTO   C99 6414   7.322   3.030   0.569  0.0824 -0.8462  0.4653
   16CHTO  H186 6415   7.238   2.967   0.532 -0.3134 -0.0242 -0.0732
   16CHTO   N17 6416   7.450   2.972   0.518  0.2279 -0.5156  0.0331
   16CHTO  H174 6417   7.517   3.043   0.473 -0.1808 -0.5344 -0.6159
   16CHTO  H175 6418   7.499   2.903   0.585  0.2742 -1.8618 -1.3443
   16CHTO   C97 6419   7.314   3.015   0.724  0.2783 -0.7169  0.2118
   16CHTO  H184 6420   7.406   3.056   0.768 -0.6709 -1.0541  2.5728
   16CHTO   O64 6421   7.199   3.085   0.776 -0.3424 -0.4717 -0.2262
   16CHTO  C104 6422   7.200   3.226   0.755 -0.4653  0.5300 -0.1925
   16CHTO  H191 6423   7.285   3.281   0.797  0.2536 -1.4017  0.9669
   16CHTO  C108 6424   7.069   3.279   0.828 -0.2637  0.6149  0.0342
   16CHTO   O71 6425   7.080   3.412   0.870  0.1403  0.6272  0.1587
   16CHTO  H171 6426   7.001   3.456   0.847  0.4899  1.8406  1.1782
   16CHTO   O62 6427   7.292   2.872   0.751 -0.7077 -0.7246  0.1927
   16CHTO   C91 6428   7.293   2.840   0.890 -0.5020  0.3005 -0.1241
   16CHTO  H178 6429   7.316   2.927   0.951 -0.3664  1.8064 -2.2720
   16CHTO   C92 6430   7.409   2.737   0.917  0.7235 -0.2800  0.0757
   16CHTO  H179 6431   7.404   2.655   0.844 -2.7371 -1.8093  1.9598
   16CHTO   O66 6432   7.529   2.807   0.882 -0.1155 -0.4114 -0.1467
   16CHTO  H166 6433   7.602   2.753   0.906  0.0123 -0.6374 -1.0445
   16CHTO   C93 6434   7.414   2.691   1.068 -0.1508  0.1183  0.3369
   16CHTO  H180 6435   7.446   2.781   1.122  2.5529  0.5369 -1.8373
   16CHTO   N16 6436   7.518   2.586   1.091 -0.1137 -0.0026 -0.2409
   16CHTO  H172 6437   7.607   2.626   1.138  0.9207  0.0616 -2.2126
   16CHTO  H173 6438   7.542   2.537   0.998 -0.6716 -0.1936 -0.2837
   16CHTO   C94 6439   7.273   2.643   1.122 -0.0101 -0.3174  0.7072
   16CHTO  H181 6440   7.239   2.554   1.069  3.2817 -1.1984 -0.0304
   16CHTO   O61 6441   7.182   2.747   1.091 -0.3185  0.6968  0.4337
   16CHTO   C95 6442   7.164   2.773   0.947 -0.8250  0.3562  0.4853
   16CHTO  H182 6443   7.146   2.677   0.898  1.5517  0.5038 -0.7347
   16CHTO  C106 6444   7.028   2.859   0.937 -0.2337  0.4434 -0.2900
   16CHTO   O69 6445   7.018   2.977   1.019 -0.4273  0.3169 -0.4674
   16CHTO  H169 6446   7.095   2.992   1.069 -1.3336  2.4189  0.3355
   16CHTO   O63 6447   7.263   2.632   1.280  0.5217 -0.0550 -0.3575
   16CHTO   C96 6448   7.125   2.620   1.354 -0.2600  0.4003 -0.1354
   16CHTO  H183 6449   7.147   2.584   1.454  3.0767  0.4665 -0.7987
   16CHTO   C98 6450   7.017   2.522   1.292  0.0105 -0.0200 -1.3618
   16CHTO  H185 6451   7.012   2.546   1.185  3.1516  2.6331 -0.9932
   16CHTO   O67 6452   7.078   2.394   1.300 -0.0664 -0.5471 -0.4713
   16CHTO  H167 6453   7.016   2.327   1.278  1.1377 -0.8798 -3.0489
   16CHTO  C102 6454   6.879   2.533   1.362 -0.5671  0.0370  0.5321
   16CHTO  H189 6455   6.900   2.512   1.468  0.2999 -0.8911  0.1778
   16CHTO   N18 6456   6.779   2.434   1.325  0.2332 -0.0949  0.7039
   16CHTO  H176 6457   6.734   2.376   1.404  0.7823 -3.0504 -1.0842
   16CHTO  H177 6458   6.810   2.367   1.247 -1.9803  0.7928 -0.9921
   16CHTO  C105 6459   6.831   2.678   1.333 -0.0648  0.1611 -0.6332
   16CHTO  H192 6460   6.824   2.701   1.227 -1.5203  2.4381 -0.0977
   16CHTO   O65 6461   6.916   2.762   1.403 -0.1516 -0.6539  0.0625
   16CHTO  C100 6462   7.059   2.767   1.375 -0.2738  0.3625  0.3390
   16CHTO  H187 6463   7.074   2.821   1.281  0.1996  0.7229  0.6173
   16CHTO  C107 6464   7.135   2.847   1.484  0.4630 -0.5457 -0.0213
   16CHTO   O70 6465   7.086   2.982   1.480  0.0927  0.3281 -0.0680
   16CHTO  H170 6466   7.102   3.038   1.554 -0.5227 -0.4825  0.6843
   16CHTO   O57 6467   6.683   2.709   1.413  0.4364  0.2490 -0.1735
   16CHTO   C85 6468   6.589   2.788   1.335 -0.1529 -0.1069  0.1268
   16CHTO  H157 6469   6.593   2.744   1.234 -1.5940 -1.2924  0.5650
   16CHTO   C83 6470   6.642   2.937   1.323 -0.3949 -0.0239 -0.4515
   16CHTO  H155 6471   6.742   2.937   1.280 -0.1749  0.5467  0.0488
   16CHTO   O56 6472   6.650   2.978   1.462 -0.1707  0.4366  0.0969
   16CHTO  H135 6473   6.741   2.992   1.482 -0.2547  0.4631  0.4706
   16CHTO   C81 6474   6.554   3.030   1.238 -0.6861  0.4683 -0.4681
   16CHTO  H153 6475   6.552   2.985   1.139  0.7399 -0.1252 -0.2447
   16CHTO   N14 6476   6.616   3.164   1.208 -0.0838 -0.0495  0.3783
   16CHTO  H141 6477   6.714   3.151   1.168  0.1085 -0.6719  1.0261
   16CHTO  H142 6478   6.554   3.233   1.154 -1.9816 -2.4746 -0.6596
   16CHTO   C79 6479   6.411   3.031   1.297  0.7366  0.9418 -0.3947
   16CHTO  H151 6480   6.345   3.078   1.225  0.0455  2.0510  0.9586
   16CHTO   O52 6481   6.359   2.897   1.323 -0.0422 -0.5358 -0.0948
   16CHTO   C86 6482   6.441   2.791   1.387 -0.4026 -1.5085  0.0768
   16CHTO  H158 6483   6.436   2.825   1.492 -0.3259  0.4644 -0.5369
   16CHTO   C90 6484   6.379   2.651   1.372  0.9235  0.5724  0.0241
   16CHTO   O60 6485   6.256   2.645   1.439  0.1546  0.1291 -0.2048
   16CHTO  H138 6486   6.195   2.708   1.406 -1.1235 -1.6509 -1.3931
   16CHTO   O50 6487   6.400   3.102   1.421  0.4894 -0.0359 -0.0088
   16CHTO   C73 6488   6.332   3.083   1.552  0.3178  0.6087  0.2451
   16CHTO  H145 6489   6.373   2.996   1.605 -1.3436 -0.6017 -0.4066
   16CHTO   C74 6490   6.180   3.072   1.525 -0.6177  0.0983 -0.8336
   16CHTO  H146 6491   6.159   2.982   1.466  1.1205 -0.3006 -0.8881
   16CHTO   O54 6492   6.102   3.042   1.648 -0.1856 -0.3106 -0.5412
   16CHTO  H133 6493   6.028   2.999   1.609 -0.1027 -0.9568  0.0082
   16CHTO   C75 6494   6.127   3.202   1.459  0.6599 -0.0917  0.1893
   16CHTO  H147 6495   6.182   3.217   1.365 -2.2472  0.8788 -1.4125
   16CHTO   N13 6496   5.987   3.216   1.416  0.1656 -0.1152  0.0007
   16CHTO  H139 6497   5.941   3.120   1.427 -0.0909  0.0161  0.0770
   16CHTO  H140 6498   5.938   3.275   1.492  0.7979 -1.4294  1.4595
   16CHTO   C76 6499   6.171   3.336   1.544  1.0132 -0.7313 -0.7832
   16CHTO  H148 6500   6.122   3.334   1.641  1.2041 -1.7625 -0.7067
   16CHTO   O49 6501   6.312   3.324   1.578  0.1511  0.4485  0.3914
   16CHTO   C77 6502   6.351   3.207   1.644 -0.4450 -0.0838  0.0797
   16CHTO  H149 6503   6.293   3.183   1.733 -1.2261  0.0001 -0.4024
   16CHTO   C88 6504   6.499   3.228   1.686 -0.1717 -0.9211  0.2629
   16CHTO   O58 6505   6.528   3.332   1.781 -0.3736 -0.7618 -0.3749
   16CHTO  H136 6506   6.456   3.392   1.781  0.2459  0.0426  1.6287
   16CHTO   O51 6507   6.151   3.467   1.460 -0.4397  0.4298  0.5562
   16CHTO   C78 6508   6.147   3.596   1.562  0.0382  0.0714 -0.4994
   16CHTO  H150 6509   6.179   3.552   1.659  1.3124  1.5563 -0.2282
   16CHTO   C80 6510   6.003   3.655   1.577  0.2239 -0.3543 -0.5544
   16CHTO  H152 6511   5.968   3.694   1.479  1.0940  0.4158 -0.5710
   16CHTO   O55 6512   5.904   3.554   1.599 -0.2627 -0.6788 -0.5981
   16CHTO  H134 6513   5.853   3.571   1.676 -0.1779 -2.6014 -0.0745
   16CHTO   C84 6514   6.009   3.758   1.697 -0.2163  0.7558  0.1843
   16CHTO  H156 6515   6.047   3.698   1.780  0.7538 -1.3409 -1.7006
   16CHTO   N15 6516   5.877   3.818   1.744  0.2289 -0.1120 -0.0741
   16CHTO  H143 6517   5.797   3.788   1.679 -0.7338 -0.1691  1.1192
   16CHTO  H144 6518   5.852   3.781   1.841 -0.7188  2.6363  0.7624
   16CHTO   C87 6519   6.120   3.867   1.673  0.2139  0.2739  0.2697
   16CHTO  H159 6520   6.087   3.943   1.603  0.8459  0.7152  0.4460
   16CHTO   O53 6521   6.260   3.797   1.630  0.1100 -0.2152 -0.1102
   16CHTO   C82 6522   6.249   3.706   1.525  0.2495  0.0246  0.4257
   16CHTO  H154 6523   6.206   3.758   1.439 -2.5000 -2.8952 -0.0786
   16CHTO   C89 6524   6.389   3.647   1.477  0.0003 -0.2421  0.1242
   16CHTO   O59 6525   6.471   3.587   1.576  0.1140  0.2688 -0.3258
   16CHTO  H137 6526   6.423   3.541   1.642 -0.2667  1.5423  0.2990
   16CHTO   O45 6527   6.157   3.951   1.838 -0.0876 -0.1300  0.3848
   16CHTO   C67 6528   6.299   3.955   1.867  0.0045 -0.1499  0.7858
   16CHTO  H124 6529   6.345   3.859   1.841 -1.8604 -1.3355  1.7699
   16CHTO   C65 6530   6.363   4.076   1.783  0.4275  0.3614 -0.2267
   16CHTO  H122 6531   6.279   4.125   1.734  0.1705  0.0749 -0.0752
   16CHTO   O44 6532   6.450   4.012   1.682 -0.2302  0.1566 -0.1056
   16CHTO  H102 6533   6.397   3.952   1.634  1.7370 -1.2294 -0.5913
   16CHTO   C63 6534   6.426   4.183   1.879  0.4310 -0.2032  0.0756
   16CHTO  H120 6535   6.347   4.224   1.941  0.9271  2.0220 -0.7187
   16CHTO   N11 6536   6.474   4.305   1.802 -0.0375 -0.1922 -0.2658
   16CHTO  H108 6537   6.561   4.290   1.741 -1.4241 -0.1396 -2.2896
   16CHTO  H109 6538   6.463   4.402   1.846 -1.0754  0.0472 -1.0564
   16CHTO   C61 6539   6.527   4.108   1.979  0.1552 -0.4638  0.4303
   16CHTO  H118 6540   6.561   4.183   2.052  2.3907 -1.0401 -0.0121
   16CHTO   O40 6541   6.466   3.993   2.054 -0.4237  0.3437  0.0866
   16CHTO   C68 6542   6.325   3.971   2.018 -0.3419  0.2601  0.2069
   16CHTO  H125 6543   6.258   4.055   2.047 -0.0979  0.4412  0.2410
   16CHTO   C72 6544   6.270   3.845   2.096  0.2179 -0.3550  0.3071
   16CHTO   O48 6545   6.316   3.837   2.233  0.0984 -0.0280  0.3336
   16CHTO  H105 6546   6.397   3.789   2.239 -0.1937 -0.6103 -0.4249
   16CHTO   O38 6547   6.630   4.065   1.890 -0.2882  0.2842  0.2154
   16CHTO   C55 6548   6.745   4.017   1.947 -0.0546  0.1303 -0.3698
   16CHTO  H112 6549   6.725   3.992   2.052 -1.2616  1.5368 -0.2552
   16CHTO   C56 6550   6.863   4.121   1.936 -0.4756 -0.0428 -0.0115
   16CHTO  H113 6551   6.856   4.147   1.830 -0.8257  0.5283  0.1533
   16CHTO   O42 6552   6.840   4.236   2.019  0.2938 -0.3716  0.1835
   16CHTO  H100 6553   6.757   4.272   1.993  0.2922 -0.4499  0.0762
   16CHTO   C57 6554   7.008   4.053   1.956  0.1663  0.3535 -0.3332
   16CHTO  H114 6555   7.005   4.015   2.058 -0.5281  2.0467  0.2888
   16CHTO   N10 6556   7.127   4.142   1.930 -0.3241  0.2692 -0.1193
   16CHTO  H106 6557   7.163   4.185   2.023 -1.8131  0.7458  0.2600
   16CHTO  H107 6558   7.210   4.089   1.886  0.6872  0.8686  1.0463
   16CHTO   C58 6559   7.008   3.927   1.861 -0.1648 -0.5077 -0.3757
   16CHTO  H115 6560   6.988   3.960   1.757  2.3371  0.5949 -0.5608
   16CHTO   O37 6561   6.908   3.837   1.892 -0.3446  0.0621  0.5109
   16CHTO   C59 6562   6.775   3.883   1.867 -0.7467 -0.6135 -0.2217
   16CHTO  H116 6563   6.760   3.902   1.761 -1.5096  1.7444  0.2723
   16CHTO   C70 6564   6.685   3.765   1.905 -0.9341  0.3899 -0.0384
   16CHTO   O46 6565   6.728   3.645   1.838 -0.0905  0.4202 -0.6056
   16CHTO  H103 6566   6.778   3.585   1.891 -2.2056  0.2198  1.2550
   16CHTO   O39 6567   7.133   3.834   1.861  0.2429  0.0602 -0.2951
   16CHTO   C60 6568   7.162   3.786   1.724 -0.2619  0.1191  0.9310
   16CHTO  H117 6569   7.080   3.807   1.655 -0.1431 -2.1420  0.0916
   16CHTO   C62 6570   7.289   3.855   1.669  0.2446  0.4506  0.5430
   16CHTO  H119 6571   7.263   3.963   1.658  0.2250  0.5981  1.9296
   16CHTO   O43 6572   7.390   3.856   1.771 -0.0857 -0.0394  0.3364
   16CHTO  H101 6573   7.477   3.870   1.737 -0.0602  1.8639  1.1532
   16CHTO   C66 6574   7.312   3.794   1.522 -0.7585  0.3154 -0.7451
   16CHTO  H123 6575   7.219   3.797   1.465  0.0473 -1.0926 -2.1868
   16CHTO   N12 6576   7.414   3.872   1.446 -0.4189  0.1848  0.1882
   16CHTO  H110 6577   7.502   3.875   1.507 -0.2757 -2.9975  0.1950
   16CHTO  H111 6578   7.375   3.971   1.428  1.3033  0.5994 -1.4748
   16CHTO   C69 6579   7.355   3.643   1.539  0.6861  0.1386 -0.1346
   16CHTO  H126 6580   7.443   3.636   1.607 -0.3187 -1.5188  1.0251
   16CHTO   O41 6581   7.243   3.576   1.589 -0.2979  0.3896  0.3246
   16CHTO   C64 6582   7.183   3.634   1.721 -0.1356  0.2500  0.0030
   16CHTO  H121 6583   7.246   3.613   1.810 -0.0347  0.5055 -0.0075
   16CHTO   C71 6584   7.052   3.561   1.753 -0.1078 -0.3541  0.7980
   16CHTO   O47 6585   6.952   3.577   1.652 -0.5897 -0.0900 -0.0560
   16CHTO  H104 6586   6.982   3.536   1.573 -1.0355  0.1208 -0.3347
   16CHTO   O34 6587   7.393   3.595   1.397  0.2819  0.5499 -0.1774
   16CHTO   C49 6588   7.351   3.564   1.248  0.7582  0.0533 -0.3199
   16CHTO   H91 6589   7.344   3.656   1.190  0.1249  0.0757 -0.2107
   16CHTO   C47 6590   7.217   3.482   1.245  0.0167 -0.0260 -0.0628
   16CHTO   H89 6591   7.184   3.495   1.140  1.1746 -0.3451 -0.4704
   16CHTO   O33 6592   7.128   3.546   1.330 -0.2016 -0.5560  0.2272
   16CHTO   H70 6593   7.050   3.495   1.340  0.5703 -1.8848 -0.5179
   16CHTO   C45 6594   7.244   3.325   1.289 -0.2701  0.0838 -0.3396
   16CHTO   H87 6595   7.194   3.305   1.385  1.1317  1.4417  0.6985
   16CHTO    N8 6596   7.182   3.245   1.184  0.1492 -0.0116 -0.0483
   16CHTO   H75 6597   7.079   3.254   1.216 -0.1318 -0.7478 -0.7396
   16CHTO   H76 6598   7.209   3.142   1.197  0.1625 -0.0693 -0.5424
   16CHTO   C43 6599   7.398   3.302   1.315  0.4982  0.1435 -0.5662
   16CHTO   H85 6600   7.426   3.361   1.403 -2.0957 -3.4896  2.8690
   16CHTO   O29 6601   7.467   3.345   1.195  0.1244 -0.2814 -0.5981
   16CHTO   C50 6602   7.465   3.487   1.174 -0.0058  0.7708 -0.7750
   16CHTO   H92 6603   7.559   3.525   1.218 -1.4768  0.8971  2.3124
   16CHTO   C54 6604   7.463   3.537   1.026 -0.2808 -0.5423  0.2983
   16CHTO   O36 6605   7.575   3.487   0.946 -0.4039  0.1159  0.1616
   16CHTO   H72 6606   7.658   3.526   0.965  0.5890 -0.2902 -2.9646
   16CHTO   O27 6607   7.428   3.166   1.341 -0.2831  0.0071 -0.0658
   16CHTO   C37 6608   7.504   3.098   1.444  0.5826 -0.5878  0.7202
   16CHTO   H79 6609   7.596   3.158   1.455  0.7566 -0.9387  1.2101
   16CHTO   C38 6610   7.424   3.099   1.575  0.2302 -0.0020 -0.4933
   16CHTO   H80 6611   7.319   3.075   1.550  0.1350 -1.4000  1.1906
   16CHTO   O31 6612   7.422   3.230   1.639  0.2571  0.2829 -0.1633
   16CHTO   H68 6613   7.510   3.260   1.649 -0.1173  1.3480  0.0751
   16CHTO   C39 6614   7.474   2.996   1.683  0.7808 -0.2618 -0.1805
   16CHTO   H81 6615   7.568   3.032   1.725  1.3075  0.4997 -1.9617
   16CHTO    N7 6616   7.379   2.973   1.797 -0.0083  0.0106  0.1761
   16CHTO   H73 6617   7.324   2.881   1.786 -0.4087  0.2631  0.0667
   16CHTO   H74 6618   7.313   3.057   1.815  1.1084  0.8783  0.2517
   16CHTO   C40 6619   7.505   2.858   1.614  0.2644  0.1458  0.4109
   16CHTO   H82 6620   7.416   2.806   1.579  1.3577 -0.7175 -1.1848
   16CHTO   O26 6621   7.595   2.887   1.507  0.5918  0.4997  0.0606
   16CHTO   C41 6622   7.534   2.958   1.395 -0.2002  0.4323 -0.4643
   16CHTO   H83 6623   7.437   2.917   1.361  0.1204  0.4894 -1.4574
   16CHTO   C52 6624   7.635   2.960   1.271  0.2497  0.0022  0.0194
   16CHTO   O35 6625   7.600   3.034   1.150 -0.2504 -0.3518  0.1982
   16CHTO   H71 6626   7.669   3.097   1.136 -0.4866  0.0096  0.6755
   16CHTO   O28 6627   7.569   2.767   1.714 -0.1810  0.1070 -0.2123
   16CHTO   C42 6628   7.560   2.618   1.704 -0.9258 -0.9774  0.3117
   16CHTO   H84 6629   7.631   2.573   1.773 -2.8401 -0.8443  2.4265
   16CHTO   C44 6630   7.600   2.552   1.564  0.0332  0.1433 -0.9143
   16CHTO   H86 6631   7.532   2.592   1.489 -2.3777 -1.8817  0.1194
   16CHTO   O32 6632   7.734   2.594   1.532 -0.2103 -0.3628 -0.2263
   16CHTO   H69 6633   7.733   2.672   1.480 -1.3282  0.9388  1.7041
   16CHTO   C48 6634   7.594   2.393   1.574  0.5090 -0.2404 -0.2507
   16CHTO   H90 6635   7.664   2.352   1.647  0.2593  1.7799  1.1568
   16CHTO    N9 6636   7.621   2.333   1.443 -0.0538  0.0423 -0.5773
   16CHTO   H77 6637   7.683   2.245   1.440 -1.2705 -0.7865 -1.9270
   16CHTO   H78 6638   7.532   2.328   1.381 -1.0860  0.6247  0.8260
   16CHTO   C51 6639   7.448   2.352   1.619 -0.3977 -0.9613 -0.1041
   16CHTO   H93 6640   7.387   2.388   1.536  2.8892  0.4712 -2.0044
   16CHTO   O30 6641   7.413   2.416   1.741 -0.3878 -0.4405 -0.2650
   16CHTO   C46 6642   7.422   2.564   1.746 -0.5524  0.7533 -0.3384
   16CHTO   H88 6643   7.342   2.604   1.684 -1.2939  1.6409  1.1701
   16CHTO   C53 6644   7.390   2.595   1.884 -0.2817  0.3412 -0.0464
   16CHTO   O72 6645   7.264   2.562   1.943 -0.5612 -0.0498 -0.5058
   16CHTO  H199 6646   7.237   2.619   2.013 -0.6368 -0.4121 -0.2382
   16CHTO   O22 6647   7.432   2.211   1.643  0.0297  0.3371  0.6749
   16CHTO   C31 6648   7.293   2.147   1.678  0.5171 -0.4302 -1.0049
   16CHTO   H59 6649   7.241   2.215   1.748 -1.0811 -1.5445 -1.0523
   16CHTO   C29 6650   7.197   2.127   1.558  0.0407  0.2890  0.0889
   16CHTO   H57 6651   7.259   2.087   1.476  1.2426 -0.7634  1.5044
   16CHTO   O21 6652   7.176   2.258   1.502  0.3221 -0.3103 -0.1349
   16CHTO   H37 6653   7.122   2.244   1.426 -2.2791  3.3696  0.9453
   16CHTO   C27 6654   7.071   2.035   1.584 -0.3256  0.3671 -0.2314
   16CHTO   H55 6655   7.004   2.099   1.644 -2.0517 -0.7357 -0.9554
   16CHTO    N5 6656   7.002   2.008   1.456  0.1201 -0.2623 -0.3967
   16CHTO   H43 6657   7.048   2.068   1.378 -0.0211  0.7164  0.2673
   16CHTO   H44 6658   6.897   2.029   1.471  0.1049 -1.2345  0.9058
   16CHTO   C25 6659   7.121   1.902   1.660 -0.3653 -0.7391 -0.2701
   16CHTO   H53 6660   7.192   1.851   1.594 -0.3801  2.3740 -2.8006
   16CHTO   O17 6661   7.187   1.945   1.780  0.0471 -0.0479 -0.1488
   16CHTO   C32 6662   7.312   2.012   1.756  0.1484  0.2667  1.1166
   16CHTO   H60 6663   7.377   1.946   1.698 -0.3485  1.8678 -1.3333
   16CHTO   C36 6664   7.376   2.043   1.891  0.4200  0.5987 -0.2949
   16CHTO   O25 6665   7.419   1.920   1.950  0.6449 -0.3788 -0.2326
   16CHTO   H40 6666   7.512   1.916   1.941  0.5072 -0.3548 -1.8214
   16CHTO   O15 6667   7.000   1.802   1.706 -0.0200  0.0614 -0.2241
   16CHTO   C19 6668   6.887   1.781   1.793 -0.0188 -0.0756  0.2565
   16CHTO   H47 6669   6.878   1.672   1.805 -1.6500  0.0370  0.0488
   16CHTO   C20 6670   6.927   1.829   1.935 -0.0699 -0.6561 -0.8121
   16CHTO   H48 6671   6.967   1.931   1.930 -1.6428 -0.0310 -1.2095
   16CHTO   O19 6672   7.030   1.743   1.978  0.3830  0.0263 -0.2543
   16CHTO   H35 6673   7.070   1.773   2.058 -1.4819 -1.3946  1.2726
   16CHTO   C21 6674   6.819   1.830   2.046  0.0288 -0.2027  0.8969
   16CHTO   H49 6675   6.798   1.728   2.078 -1.4642 -0.4689 -0.8282
   16CHTO    N4 6676   6.856   1.908   2.168 -1.0045 -0.6642  0.2917
   16CHTO   H41 6677   6.963   1.918   2.170 -0.9175 -1.3344 -0.6269
   16CHTO   H42 6678   6.817   1.863   2.258 -0.7574  0.8678  1.1866
   16CHTO   C22 6679   6.690   1.885   1.980  0.3833 -0.1814 -1.0676
   16CHTO   H50 6680   6.709   1.990   1.961 -2.0929  0.0537 -2.4728
   16CHTO   O14 6681   6.658   1.820   1.863  0.0864 -0.2873 -0.3513
   16CHTO   C23 6682   6.752   1.841   1.755 -0.2562 -0.0231 -0.0008
   16CHTO   H51 6683   6.765   1.947   1.726  2.3144 -0.6098 -1.1039
   16CHTO   C34 6684   6.690   1.788   1.624  0.2109  0.0753 -0.3223
   16CHTO   O23 6685   6.656   1.650   1.648  0.3939  0.1732 -0.4176
   16CHTO   H38 6686   6.700   1.597   1.585 -2.0573 -0.3152 -1.7690
   16CHTO   O16 6687   6.573   1.876   2.065 -0.1189  0.3754 -0.5490
   16CHTO   C24 6688   6.453   1.983   2.016 -0.1915  0.1694  0.3683
   16CHTO   H52 6689   6.471   2.021   1.915  0.4339 -0.2892  0.3059
   16CHTO   C26 6690   6.439   2.098   2.117  0.2202 -0.1423  0.5323
   16CHTO   H54 6691   6.433   2.061   2.221 -1.3226 -1.6547 -0.0633
   16CHTO   O20 6692   6.558   2.180   2.117 -0.1695 -0.0511  0.4130
   16CHTO   H36 6693   6.636   2.128   2.128  0.8054  1.3684  0.2834
   16CHTO   C30 6694   6.310   2.186   2.096 -0.4005  0.1615 -0.0858
   16CHTO   H58 6695   6.306   2.229   1.995 -0.6470 -2.4440 -1.2218
   16CHTO    N6 6696   6.290   2.300   2.189  0.0144 -0.4122  0.7416
   16CHTO   H45 6697   6.286   2.387   2.125  1.2177 -1.1069 -0.2910
   16CHTO   H46 6698   6.198   2.285   2.244 -0.4950  0.7752  0.2480
   16CHTO   C33 6699   6.192   2.088   2.092 -0.1013  0.5192 -0.0160
   16CHTO   H61 6700   6.182   2.041   2.191  0.6760  0.5841  0.0981
   16CHTO   O18 6701   6.213   1.983   1.997 -0.3531  0.7762  0.0536
   16CHTO   C28 6702   6.324   1.896   2.012 -0.1706  0.3190  0.3154
   16CHTO   H56 6703   6.316   1.850   2.111 -0.1439 -0.8986 -0.2389
   16CHTO   C35 6704   6.335   1.794   1.897 -0.4685 -0.2607  0.2495
   16CHTO   O24 6705   6.230   1.693   1.908  0.2202  0.5916 -0.1729
   16CHTO   H39 6706   6.146   1.735   1.906 -0.2048 -0.1413  1.4932
   16CHTO    O9 6707   6.067   2.152   2.064  0.7259 -0.1166 -0.0372
   16CHTO   C13 6708   5.939   2.056   2.112  0.6398 -0.2406 -0.7413
   16CHTO   H26 6709   5.971   1.995   2.199 -0.0927  2.2508  1.3314
   16CHTO   C11 6710   5.889   1.973   1.994  0.1895 -0.1929  1.0021
   16CHTO   H24 6711   5.972   1.905   1.970  0.8567  0.8305  0.3681
   16CHTO    O8 6712   5.874   2.049   1.872 -0.7310  0.2899 -0.0707
   16CHTO    H3 6713   5.962   2.072   1.850  0.4496 -2.3929  1.5471
   16CHTO    C9 6714   5.761   1.896   2.032 -0.0376  0.5065  0.4589
   16CHTO   H22 6715   5.794   1.827   2.111 -1.1193 -1.9233 -1.1419
   16CHTO    N2 6716   5.712   1.797   1.929 -0.2691  0.2949 -0.2451
   16CHTO   H10 6717   5.725   1.697   1.968 -3.0076 -1.6421 -3.9797
   16CHTO   H11 6718   5.745   1.816   1.828 -0.7837 -0.5454 -0.5745
   16CHTO    C7 6719   5.647   2.001   2.077  0.9227  0.4894  0.4127
   16CHTO   H20 6720   5.580   1.928   2.126 -0.3819  0.6143 -1.1250
   16CHTO    O4 6721   5.693   2.094   2.176 -0.0414 -0.0817 -0.1083
   16CHTO   C14 6722   5.829   2.152   2.173 -0.3792 -0.3286 -0.0999
   16CHTO   H27 6723   5.856   2.172   2.278  0.1364 -1.0169 -0.0931
   16CHTO   C18 6724   5.814   2.298   2.108 -0.2700  0.6172 -0.7791
   16CHTO   O13 6725   5.768   2.306   1.971  0.6728  0.3267 -0.0010
   16CHTO    H7 6726   5.675   2.315   1.971  0.6296 -0.0871 -0.2897
   16CHTO    O2 6727   5.589   2.088   1.942  0.7378 -0.6224 -0.2997
   16CHTO    C1 6728   5.446   2.118   1.928  0.2038  0.3967  0.1235
   16CHTO   H14 6729   5.434   2.188   1.843 -1.2717 -1.4198 -1.2115
   16CHTO    C2 6730   5.368   2.190   2.054  0.1892  0.5780 -0.7292
   16CHTO   H15 6731   5.387   2.129   2.143 -1.5019  0.5761 -0.3526
   16CHTO    O6 6732   5.434   2.319   2.069 -0.1383 -0.0087  0.6505
   16CHTO    H1 6733   5.378   2.393   2.082  1.6028  1.8796 -1.9855
   16CHTO    C3 6734   5.211   2.208   2.025 -0.4942 -1.1453 -0.8582
   16CHTO   H16 6735   5.201   2.266   1.932  0.8287 -1.0533 -0.9464
   16CHTO    N1 6736   5.149   2.274   2.145 -0.5136  0.1595  0.0819
   16CHTO    H8 6737   5.173   2.213   2.231  1.2966 -0.4905 -0.8548
   16CHTO    H9 6738   5.043   2.274   2.125 -0.5543 -1.0284  0.2136
   16CHTO    C4 6739   5.156   2.060   1.997 -0.2045 -0.0491  0.6453
   16CHTO   H17 6740   5.166   1.999   2.086  0.7232  1.7605  1.8130
   16CHTO    O1 6741   5.228   2.011   1.880 -0.4046 -0.1742 -0.6842
   16CHTO    C5 6742   5.372   1.987   1.885  0.3247  0.4321 -0.1738
   16CHTO   H18 6743   5.402   1.917   1.963 -0.8749 -1.4052 -1.3396
   16CHTO   C16 6744   5.400   1.939   1.742 -0.2832 -0.6011 -0.0730
   16CHTO   O11 6745   5.358   2.026   1.641  0.2218  0.5291  0.1522
   16CHTO    H5 6746   5.425   2.049   1.579  0.1218 -1.6213 -0.8126
   16CHTO    O3 6747   5.019   2.050   1.954  0.3520  0.0121 -0.1239
   16CHTO    C6 6748   4.962   1.916   1.949  0.0489 -0.4087  1.1394
   16CHTO   H19 6749   5.034   1.839   1.923  0.1784  0.3635 -0.8525
   16CHTO    C8 6750   4.880   1.899   2.089  0.4325 -0.6504  0.8605
   16CHTO   H21 6751   4.820   1.989   2.100  0.3156 -0.5530 -0.4771
   16CHTO    O7 6752   4.975   1.893   2.196 -0.2953 -0.2429  0.3701
   16CHTO    H2 6753   4.924   1.891   2.276 -3.8036  0.2145 -1.7291
   16CHTO   C12 6754   4.787   1.764   2.081 -0.0034 -0.4804  1.1818
   16CHTO   H25 6755   4.858   1.679   2.086  0.2361 -0.3243  0.4391
   16CHTO    N3 6756   4.711   1.751   2.213  0.4508  0.7216 -0.7045
   16CHTO   H12 6757   4.622   1.691   2.200  0.1502  1.1224 -0.5094
   16CHTO   H13 6758   4.779   1.735   2.295  2.1837 -0.1932 -2.2553
   16CHTO   C15 6759   4.706   1.761   1.943  0.2579  0.2890 -0.3768
   16CHTO   H28 6760   4.630   1.839   1.955  1.2014  1.2671 -0.6572
   16CHTO   O10 6761   4.649   1.622   1.902 -0.1621  0.5970 -0.4216
   16CHTO    H4 6762   4.575   1.592   1.951  0.3727 -1.4656 -0.8440
   16CHTO    O5 6763   4.791   1.795   1.837  0.4398 -0.5826  0.2291
   16CHTO   C10 6764   4.861   1.916   1.833  0.6509 -1.0879  0.8194
   16CHTO   H23 6765   4.778   1.986   1.846 -0.2903 -1.8128 -1.1308
   16CHTO   C17 6766   4.917   1.948   1.694  0.2747 -0.2133  0.4696
   16CHTO   O12 6767   5.018   1.851   1.669  0.1918  0.0180 -0.5250
   16CHTO    H6 6768   5.051   1.869   1.583  0.1150  0.0201 -0.5534
   17CHTO  H203 6769   5.773   4.306   0.484  0.7476 -0.3179 -1.3452
   17CHTO   O82 6770   5.724   4.364   0.429 -0.2035 -0.3112 -0.4976
   17CHTO  C123 6771   5.685   4.486   0.494 -0.0794  0.2739 -0.3744
   17CHTO  H227 6772   5.644   4.464   0.594 -1.1209 -0.3937 -0.9368
   17CHTO   O77 6773   5.816   4.553   0.503 -0.1430  0.4935  0.5778
   17CHTO  C118 6774   5.818   4.687   0.556 -0.5788  0.6570 -0.7911
   17CHTO  H222 6775   5.785   4.681   0.661  0.0522  0.8084 -0.5784
   17CHTO  C125 6776   5.967   4.738   0.559 -0.5497  0.5351 -0.1667
   17CHTO   O84 6777   6.036   4.642   0.645 -0.0221 -0.1383 -0.1152
   17CHTO  H205 6778   6.057   4.675   0.731  2.6144  2.4719 -1.6445
   17CHTO  C114 6779   5.739   4.774   0.464 -0.0040 -0.2114 -0.3759
   17CHTO  H218 6780   5.789   4.780   0.367 -0.8112 -0.4769 -0.8124
   17CHTO  C116 6781   5.592   4.726   0.444  0.6291  0.6227  0.3002
   17CHTO  H220 6782   5.532   4.754   0.533  0.2598  2.6863 -0.5835
   17CHTO   O79 6783   5.525   4.793   0.337 -0.8289  0.2108  0.1173
   17CHTO  H201 6784   5.433   4.794   0.357 -0.9726  2.6515 -0.5471
   17CHTO  C120 6785   5.593   4.572   0.407 -0.0255 -0.6258  0.3966
   17CHTO  H224 6786   5.635   4.573   0.304  0.3715  0.0857  0.5670
   17CHTO   N21 6787   5.459   4.512   0.403  0.2096  0.5379 -0.0656
   17CHTO  H211 6788   5.452   4.405   0.416  0.5037  0.4083 -0.9476
   17CHTO  H212 6789   5.408   4.532   0.310 -1.1257 -1.1031  0.2802
   17CHTO   O75 6790   5.751   4.896   0.538  0.0447 -0.1231 -0.1521
   17CHTO  C112 6791   5.748   5.027   0.437 -0.7891 -0.1620 -0.0824
   17CHTO  H216 6792   5.679   5.003   0.354  1.7582  0.5478 -2.4635
   17CHTO   O73 6793   5.883   5.059   0.392 -0.0984 -0.0762  0.0470
   17CHTO  C113 6794   5.880   5.168   0.291  0.3975 -0.5233 -0.1952
   17CHTO  H217 6795   5.796   5.159   0.218 -0.0709 -0.1616  0.2894
   17CHTO  C124 6796   6.011   5.159   0.217  0.0788 -0.1070  0.7109
   17CHTO   O83 6797   6.129   5.188   0.292 -0.0032  0.4440  0.3460
   17CHTO  H204 6798   6.158   5.274   0.268  3.4937 -0.4434  1.1095
   17CHTO  C109 6799   5.853   5.303   0.368 -0.0664  0.1760 -0.0845
   17CHTO  H213 6800   5.926   5.308   0.450  1.1475 -0.1886 -1.1372
   17CHTO  C110 6801   5.718   5.282   0.442 -0.5550  0.3500  0.0153
   17CHTO  H214 6802   5.638   5.285   0.369  0.7148 -0.0371 -1.4176
   17CHTO   O78 6803   5.702   5.395   0.526  0.6507 -0.3610  0.7131
   17CHTO  H200 6804   5.767   5.418   0.590  0.8853  2.8053 -0.5803
   17CHTO  C111 6805   5.706   5.151   0.526 -0.0579 -0.5595  0.0846
   17CHTO  H215 6806   5.773   5.160   0.613 -0.6609  2.6958  0.2910
   17CHTO   N19 6807   5.571   5.137   0.580  0.0658  0.0882 -0.1249
   17CHTO  H207 6808   5.501   5.170   0.504 -1.2098  0.6441  1.2565
   17CHTO  H208 6809   5.552   5.031   0.592 -0.8945 -0.2556 -3.8641
   17CHTO   O74 6810   5.868   5.420   0.280  0.2699  0.2101  0.1032
   17CHTO  C115 6811   5.924   5.544   0.338 -0.1690 -0.0896 -0.0291
   17CHTO  H219 6812   5.872   5.577   0.427  0.5844 -2.0755  1.1769
   17CHTO   O76 6813   6.071   5.519   0.389 -0.1160  0.3042  0.2867
   17CHTO  C122 6814   6.173   5.570   0.297  0.3439 -0.8317  0.0456
   17CHTO  H226 6815   6.161   5.524   0.199  1.4557 -0.9188 -0.0600
   17CHTO  C126 6816   6.303   5.520   0.352  0.0305 -0.2623  0.8376
   17CHTO   O85 6817   6.400   5.538   0.256  0.2081  0.2130  0.6450
   17CHTO  H206 6818   6.479   5.573   0.292 -0.9374  4.3221 -0.5641
   17CHTO  C121 6819   6.152   5.727   0.297  0.1988 -0.0107 -0.0502
   17CHTO  H225 6820   6.188   5.767   0.394  0.3397  1.0958 -0.5460
   17CHTO   O81 6821   6.244   5.779   0.195 -0.2377 -0.3244  0.0200
   17CHTO  H202 6822   6.238   5.872   0.192 -1.6585 -0.4444 -1.7916
   17CHTO  C119 6823   6.013   5.779   0.271  0.1505  0.2130 -0.6140
   17CHTO  H223 6824   5.976   5.812   0.368  2.7428  0.1261  0.4417
   17CHTO  C117 6825   5.914   5.659   0.226 -0.1553  0.0549  0.2069
   17CHTO  H221 6826   5.940   5.612   0.131 -0.8481  0.7652 -0.3441
   17CHTO   N20 6827   5.767   5.697   0.209 -0.7939 -0.0695 -0.3463
   17CHTO  H209 6828   5.717   5.617   0.157  0.4844 -0.2226 -1.3791
   17CHTO  H210 6829   5.717   5.715   0.303 -0.7981 -2.3129  0.1178
   17CHTO   O80 6830   6.000   5.925   0.169  0.0292  0.3909 -0.3866
   17CHTO  C103 6831   6.027   6.074   0.242 -0.4989 -0.4197  0.6091
   17CHTO  H190 6832   6.046   6.071   0.350 -0.0857  1.7415  0.6134
   17CHTO  C101 6833   6.150   6.150   0.172 -0.1155  0.0631  0.1943
   17CHTO  H188 6834   6.139   6.154   0.064 -1.6237  0.6279  0.3579
   17CHTO   O68 6835   6.294   6.072   0.208  0.3916 -0.3874 -0.4730
   17CHTO  H168 6836   6.287   6.027   0.290  1.5686 -1.7301 -1.0800
   17CHTO   C99 6837   6.155   6.295   0.231  0.1800  0.1160  0.9833
   17CHTO  H186 6838   6.176   6.286   0.340 -0.0217  1.1879  1.1166
   17CHTO   N17 6839   6.276   6.379   0.182  0.0978  0.0530 -0.0392
   17CHTO  H174 6840   6.243   6.434   0.095  1.8757 -1.0878 -1.4694
   17CHTO  H175 6841   6.360   6.315   0.160 -0.0440 -1.2840  3.0056
   17CHTO   C97 6842   6.012   6.365   0.215  0.0482  0.2335  0.4207
   17CHTO  H184 6843   5.991   6.373   0.107 -1.2151 -0.0851  0.6390
   17CHTO   O64 6844   5.913   6.286   0.279  0.5707 -0.0091  0.1703
   17CHTO  C104 6845   5.900   6.162   0.217 -0.0939 -0.0376  0.1192
   17CHTO  H191 6846   5.890   6.178   0.110 -0.2335 -0.5437  0.0574
   17CHTO  C108 6847   5.774   6.090   0.258  0.6267 -0.3514  0.6578
   17CHTO   O71 6848   5.748   6.065   0.398 -0.4125  0.1251  0.1434
   17CHTO  H171 6849   5.678   6.122   0.425 -0.6336 -0.5005  0.8929
   17CHTO   O62 6850   6.014   6.487   0.289  0.0969 -0.5603  0.4059
   17CHTO   C91 6851   5.903   6.573   0.270 -0.5901 -0.5149  0.2007
   17CHTO  H178 6852   5.821   6.524   0.217 -0.1598 -0.6274 -0.3678
   17CHTO   C92 6853   5.967   6.687   0.180 -0.1446  0.4646  0.1448
   17CHTO  H179 6854   6.019   6.647   0.092 -2.4620 -2.7750  0.1867
   17CHTO   O66 6855   5.854   6.750   0.122 -0.1174  0.0704 -0.6150
   17CHTO  H166 6856   5.804   6.701   0.060 -1.2657  0.2737  0.1239
   17CHTO   C93 6857   6.057   6.792   0.259  0.8532  0.2032  0.2172
   17CHTO  H180 6858   6.069   6.873   0.185 -0.8076 -0.1387 -0.4533
   17CHTO   N16 6859   6.197   6.742   0.284  0.3620 -0.0761 -0.1979
   17CHTO  H172 6860   6.237   6.686   0.201  2.0469 -0.5586  0.9196
   17CHTO  H173 6861   6.194   6.679   0.372 -0.6878  2.5755  1.7284
   17CHTO   C94 6862   5.985   6.846   0.387 -0.3575 -0.1250  0.1260
   17CHTO  H181 6863   6.047   6.836   0.476  0.6762  1.2911 -0.4188
   17CHTO   O61 6864   5.854   6.787   0.408  0.2947 -0.0887 -0.1360
   17CHTO   C95 6865   5.851   6.643   0.404  0.3048  0.1656  0.9591
   17CHTO  H182 6866   5.920   6.603   0.479  0.1859 -1.6832  0.0950
   17CHTO  C106 6867   5.711   6.578   0.436 -0.0862  0.1561  0.4174
   17CHTO   O69 6868   5.728   6.441   0.464  0.5226 -0.6939 -0.4860
   17CHTO  H169 6869   5.657   6.391   0.430  0.0919  0.3482 -1.1391
   17CHTO   O63 6870   5.956   6.987   0.372  0.4660 -0.0124  0.5649
   17CHTO   C96 6871   5.938   7.087   0.494 -0.7511  1.2165  0.5989
   17CHTO  H183 6872   5.953   7.034   0.588 -2.1896  2.8056  1.7697
   17CHTO   C98 6873   5.801   7.159   0.498 -0.6477  0.3839  0.2183
   17CHTO  H185 6874   5.779   7.215   0.406  1.8868  2.0154  0.5658
   17CHTO   O67 6875   5.699   7.055   0.517 -0.0320 -0.4730  0.5887
   17CHTO  H167 6876   5.622   7.078   0.468  0.0950 -0.6646  0.2958
   17CHTO  C102 6877   5.800   7.272   0.619  0.1846  0.0635 -0.2424
   17CHTO  H189 6878   5.804   7.212   0.711  0.5922 -1.1812 -1.0447
   17CHTO   N18 6879   5.678   7.356   0.632 -0.6976  0.2478 -0.0424
   17CHTO  H176 6880   5.604   7.321   0.562 -1.4864 -0.0881  0.9374
   17CHTO  H177 6881   5.643   7.321   0.729  0.4250 -2.0911 -0.4335
   17CHTO  C105 6882   5.929   7.360   0.605  0.9645 -0.1876 -0.1523
   17CHTO  H192 6883   5.901   7.465   0.594  0.8235 -0.3148 -1.0681
   17CHTO   O65 6884   6.021   7.328   0.496  0.4156  0.1950  0.4630
   17CHTO  C100 6885   6.058   7.190   0.478 -0.7465  0.2027  0.6553
   17CHTO  H187 6886   6.089   7.178   0.373 -1.9626 -0.6089  0.3899
   17CHTO  C107 6887   6.188   7.157   0.566  0.3641 -0.3779  0.0925
   17CHTO   O70 6888   6.313   7.181   0.505  0.4956 -0.2329  0.3693
   17CHTO  H170 6889   6.386   7.140   0.547  0.1988 -0.2461  0.8775
   17CHTO   O57 6890   5.999   7.351   0.743  0.0355  0.1223 -0.2376
   17CHTO   C85 6891   6.033   7.457   0.836  0.2648 -0.2581  0.0396
   17CHTO  H157 6892   5.961   7.534   0.800 -0.8893 -0.3008  2.2260
   17CHTO   C83 6893   6.172   7.527   0.824  0.5318 -0.3040  0.6268
   17CHTO  H155 6894   6.173   7.577   0.727  0.7616 -0.5072  0.5222
   17CHTO   O56 6895   6.276   7.427   0.826 -0.1264  0.4708 -0.0346
   17CHTO  H135 6896   6.281   7.400   0.916  0.6895 -1.9109 -0.7617
   17CHTO   C81 6897   6.192   7.635   0.937 -0.0638 -0.4198  0.2304
   17CHTO  H153 6898   6.115   7.711   0.925 -0.3706 -0.5527  1.2688
   17CHTO   N14 6899   6.319   7.713   0.921  0.9149  0.8082  0.2258
   17CHTO  H141 6900   6.323   7.744   0.818 -0.6115  1.1864  0.2714
   17CHTO  H142 6901   6.399   7.645   0.937  0.2324 -0.8682 -3.0576
   17CHTO   C79 6902   6.171   7.566   1.075  0.3646 -0.2267  0.2296
   17CHTO  H151 6903   6.181   7.643   1.151  1.4888 -0.9863  0.8627
   17CHTO   O52 6904   6.039   7.514   1.089 -0.0149  0.8063 -0.3201
   17CHTO   C86 6905   6.001   7.414   0.991  0.2871  0.2197 -0.3530
   17CHTO  H158 6906   6.061   7.327   1.025  0.3711  0.6059  0.5076
   17CHTO   C90 6907   5.851   7.375   1.010 -0.5875 -0.2132 -0.1352
   17CHTO   O60 6908   5.828   7.352   1.148  0.0438 -0.4794  0.0744
   17CHTO  H138 6909   5.750   7.395   1.177 -0.0522 -1.7345  1.7591
   17CHTO   O50 6910   6.264   7.460   1.104 -0.2494  0.4417  0.5490
   17CHTO   C73 6911   6.348   7.386   1.184 -0.0651 -0.1269  0.0263
   17CHTO  H145 6912   6.412   7.451   1.246  0.4670 -0.5137 -0.1091
   17CHTO   C74 6913   6.444   7.302   1.095 -0.4267  0.3216 -0.1885
   17CHTO  H146 6914   6.488   7.363   1.015  2.0262  0.9624  1.6140
   17CHTO   O54 6915   6.557   7.263   1.179  0.0018  0.3655 -0.1475
   17CHTO  H133 6916   6.603   7.185   1.154  1.1957  1.2652 -0.8511
   17CHTO   C75 6917   6.372   7.172   1.034 -0.5119  0.2491 -0.7427
   17CHTO  H147 6918   6.295   7.205   0.963 -0.7897 -0.1306 -0.6208
   17CHTO   N13 6919   6.463   7.081   0.961  0.8050  0.6973  0.4203
   17CHTO  H139 6920   6.407   6.993   0.932  0.3647  1.2838 -0.5514
   17CHTO  H140 6921   6.506   7.128   0.874  0.2487  1.3675  0.5040
   17CHTO   C76 6922   6.290   7.095   1.154  0.0677 -0.1510  0.4512
   17CHTO  H148 6923   6.364   7.063   1.227 -1.1194 -1.0112  1.2899
   17CHTO   O49 6924   6.200   7.185   1.214 -0.0115  0.1182 -0.0428
   17CHTO   C77 6925   6.261   7.296   1.282 -0.9510 -0.2931  0.0982
   17CHTO  H149 6926   6.325   7.253   1.359  1.2623  0.9747 -0.9819
   17CHTO   C88 6927   6.152   7.374   1.355 -0.2018  0.4579 -0.5675
   17CHTO   O58 6928   6.215   7.495   1.431 -0.4656 -0.4564 -0.2425
   17CHTO  H136 6929   6.207   7.485   1.524 -0.8504 -2.1473 -0.4443
   17CHTO   O51 6930   6.206   6.965   1.095 -0.1457  0.3109 -0.1577
   17CHTO   C78 6931   6.055   6.949   1.147 -0.4027 -0.0729 -0.2281
   17CHTO  H150 6932   6.008   7.050   1.151 -0.6042 -0.1099 -1.4021
   17CHTO   C80 6933   6.049   6.877   1.280  0.2339  0.6066  0.1774
   17CHTO  H152 6934   6.088   6.774   1.267 -0.7459  0.2843 -0.1999
   17CHTO   O55 6935   6.130   6.945   1.377 -0.5655 -0.2361 -0.2838
   17CHTO  H134 6936   6.134   6.889   1.452  0.7974 -0.9503 -0.8737
   17CHTO   C84 6937   5.894   6.860   1.328 -0.4398  0.0614 -0.3647
   17CHTO  H156 6938   5.854   6.960   1.342 -1.2637 -0.2173 -0.6825
   17CHTO   N15 6939   5.885   6.775   1.451  0.6042  0.0297  0.0304
   17CHTO  H143 6940   5.950   6.813   1.527 -0.8741  3.0046 -0.1596
   17CHTO  H144 6941   5.920   6.676   1.431 -1.3223 -0.5285 -0.6810
   17CHTO   C87 6942   5.811   6.799   1.209 -0.3260 -0.2060 -0.5700
   17CHTO  H159 6943   5.847   6.698   1.188 -1.3719 -0.3287 -1.8553
   17CHTO   O53 6944   5.834   6.874   1.081 -0.7124 -0.0447  0.1269
   17CHTO   C82 6945   5.974   6.870   1.039  0.1237  0.2956 -0.4409
   17CHTO  H154 6946   6.009   6.768   1.024 -0.7961 -0.1386  0.3443
   17CHTO   C89 6947   5.982   6.936   0.900  0.1288 -0.8315  0.0395
   17CHTO   O59 6948   5.921   6.855   0.791 -0.2579 -0.1786 -0.1264
   17CHTO  H137 6949   5.940   6.878   0.702  0.7091 -0.5172 -0.0052
   17CHTO   O45 6950   5.634   6.804   1.241  0.3689  0.0737 -0.7336
   17CHTO   C67 6951   5.558   6.694   1.194  0.6025  0.3713  0.2954
   17CHTO  H124 6952   5.465   6.706   1.250  2.0676  1.4710  2.6093
   17CHTO   C65 6953   5.536   6.703   1.036  0.2632  0.1057  0.0101
   17CHTO  H122 6954   5.611   6.770   0.996  0.7789  0.2396  1.1702
   17CHTO   O44 6955   5.411   6.752   1.005  0.2459  0.1899 -0.4475
   17CHTO  H102 6956   5.341   6.690   1.020 -0.1191  0.3410 -1.4721
   17CHTO   C63 6957   5.571   6.567   0.966 -0.2198 -0.2971  0.2154
   17CHTO  H120 6958   5.678   6.551   0.982 -0.0196 -2.4260 -2.8567
   17CHTO   N11 6959   5.557   6.565   0.816 -0.5090 -0.1943 -0.4333
   17CHTO  H108 6960   5.490   6.492   0.778  0.0841 -1.3610  0.7285
   17CHTO  H109 6961   5.536   6.661   0.773 -0.5336 -1.5208 -3.4910
   17CHTO   C61 6962   5.503   6.456   1.051  0.0451 -0.1727 -0.2673
   17CHTO  H118 6963   5.540   6.365   1.000  0.7077 -0.0918  0.0737
   17CHTO   O40 6964   5.545   6.444   1.189 -0.0085  0.3860 -0.3101
   17CHTO   C68 6965   5.615   6.555   1.239  0.4507 -0.0349  0.6544
   17CHTO  H125 6966   5.719   6.546   1.199  0.1558 -2.4512  0.3667
   17CHTO   C72 6967   5.622   6.539   1.397  0.5080  0.5850  0.4364
   17CHTO   O48 6968   5.722   6.442   1.432  0.5705 -0.4335  0.0819
   17CHTO  H105 6969   5.733   6.442   1.526 -1.1753 -1.1081  0.3028
   17CHTO   O38 6970   5.359   6.458   1.036 -0.3618  0.1359 -0.4103
   17CHTO   C55 6971   5.271   6.381   1.119  0.3099 -0.0815  0.2421
   17CHTO  H112 6972   5.309   6.373   1.222 -0.1456 -0.2678  0.3936
   17CHTO   C56 6973   5.238   6.239   1.057 -0.6322 -0.6716 -0.2500
   17CHTO  H113 6974   5.208   6.262   0.954 -1.9408  2.2176  0.7248
   17CHTO   O42 6975   5.360   6.163   1.042  0.4878 -0.1576  0.0509
   17CHTO  H100 6976   5.383   6.129   0.958  3.8400  2.4714 -0.2406
   17CHTO   C57 6977   5.123   6.173   1.142  0.0826 -0.2031 -0.8173
   17CHTO  H114 6978   5.165   6.169   1.242  1.3064  0.8956 -1.2656
   17CHTO   N10 6979   5.088   6.037   1.104 -0.1368  0.2023  0.1164
   17CHTO  H106 6980   5.103   6.007   1.001  0.8722  0.0868  0.2911
   17CHTO  H107 6981   5.120   5.956   1.168  1.5801 -0.4994 -1.5787
   17CHTO   C58 6982   5.002   6.267   1.136  0.5088 -0.3592  0.3363
   17CHTO  H115 6983   4.975   6.286   1.030 -0.9915 -0.4306  0.6957
   17CHTO   O37 6984   5.032   6.392   1.195 -0.2779 -0.0810 -0.5225
   17CHTO   C59 6985   5.142   6.462   1.133 -0.3935  0.4432  0.1229
   17CHTO  H116 6986   5.107   6.497   1.037  1.8729  0.9220 -0.5673
   17CHTO   C70 6987   5.176   6.581   1.226  0.5960 -0.1290 -0.0840
   17CHTO   O46 6988   5.061   6.662   1.244 -0.1317  0.2713  0.2837
   17CHTO  H103 6989   5.096   6.749   1.241  2.0522 -0.5748 -0.2096
   17CHTO   O39 6990   4.872   6.209   1.219 -0.5493 -0.1105  0.2688
   17CHTO   C60 6991   4.750   6.289   1.213 -0.1424  0.3798 -0.0223
   17CHTO  H117 6992   4.770   6.396   1.210 -0.8303  0.7117  4.0475
   17CHTO   C62 6993   4.664   6.247   1.091 -0.0622 -0.1269 -0.2168
   17CHTO  H119 6994   4.726   6.259   1.000  0.4643 -0.7446  0.0561
   17CHTO   O43 6995   4.637   6.106   1.106  0.1858  0.0231 -0.2496
   17CHTO  H101 6996   4.711   6.051   1.091  1.7887  2.3148 -0.8756
   17CHTO   C66 6997   4.532   6.339   1.094  0.1224  0.0779 -0.1935
   17CHTO  H123 6998   4.562   6.443   1.085 -2.0605  0.6934 -0.5815
   17CHTO   N12 6999   4.447   6.318   0.977  0.1734  0.2147 -0.1314
   17CHTO  H110 7000   4.450   6.397   0.905  0.3792  1.0882  0.8215
   17CHTO  H111 7001   4.345   6.301   1.009  0.4757 -1.1121  0.1783
   17CHTO   C69 7002   4.447   6.325   1.227  0.6512  0.4625  0.4507
   17CHTO  H126 7003   4.401   6.225   1.244  0.3053  0.5296 -0.0616
   17CHTO   O41 7004   4.538   6.356   1.330 -0.4214  0.2702 -0.8799
   17CHTO   C64 7005   4.664   6.268   1.334 -0.3001 -0.5818 -0.5250
   17CHTO  H121 7006   4.626   6.165   1.350  0.1688 -0.5498  0.8362
   17CHTO   C71 7007   4.740   6.310   1.465  0.2644  0.2523  0.3895
   17CHTO   O47 7008   4.676   6.276   1.586 -0.5204 -0.0995 -1.1697
   17CHTO  H104 7009   4.599   6.330   1.590 -1.2636 -1.2540  0.8187
   17CHTO   O34 7010   4.329   6.407   1.235 -0.4149  0.3838 -0.6351
   17CHTO   C49 7011   4.267   6.534   1.306 -0.1228 -0.2077  0.1657
   17CHTO   H91 7012   4.339   6.613   1.284  0.1241  0.0407  1.8245
   17CHTO   C47 7013   4.258   6.504   1.462  1.0441  0.0856 -0.2979
   17CHTO   H89 7014   4.215   6.595   1.508 -3.5416 -1.6152 -1.0145
   17CHTO   O33 7015   4.391   6.487   1.523 -0.2378  0.1459  0.3061
   17CHTO   H70 7016   4.397   6.470   1.615  3.9776 -2.5302 -0.3081
   17CHTO   C45 7017   4.172   6.369   1.492  0.0590 -0.1869 -0.3649
   17CHTO   H87 7018   4.247   6.289   1.490  2.2396  1.7806 -0.0199
   17CHTO    N8 7019   4.106   6.376   1.628  0.0351  0.6909 -0.0030
   17CHTO   H75 7020   4.028   6.301   1.624 -0.2602  1.0967 -2.1169
   17CHTO   H76 7021   4.178   6.352   1.705 -1.0491  0.4286  0.9561
   17CHTO   C43 7022   4.067   6.349   1.367  0.2832  0.3551 -0.0112
   17CHTO   H85 7023   4.128   6.293   1.296  2.6413  1.3471  1.1764
   17CHTO   O29 7024   4.020   6.474   1.314  0.2641  0.4944 -0.0864
   17CHTO   C50 7025   4.123   6.563   1.262  0.0075 -0.0163 -0.2087
   17CHTO   H92 7026   4.121   6.564   1.152 -3.2642 -0.2931 -0.1900
   17CHTO   C54 7027   4.087   6.712   1.295 -0.4300  0.1017 -0.0959
   17CHTO   O36 7028   3.994   6.756   1.195  0.4732  0.2776  0.4373
   17CHTO   H72 7029   3.962   6.844   1.209 -0.0432  0.2702 -0.6828
   17CHTO   O27 7030   3.956   6.264   1.396 -0.3010  0.5484  0.4369
   17CHTO   C37 7031   3.918   6.140   1.331  0.2514 -0.3035 -0.6097
   17CHTO   H79 7032   3.819   6.115   1.373  2.0146 -0.2381  3.8209
   17CHTO   C38 7033   3.910   6.160   1.173 -0.3322  0.0614 -0.6836
   17CHTO   H80 7034   4.005   6.205   1.141  0.0200  0.2011  0.5441
   17CHTO   O31 7035   3.803   6.250   1.140  0.0989 -0.3940  0.2692
   17CHTO   H68 7036   3.814   6.332   1.184  1.1218 -0.7236  0.6487
   17CHTO   C39 7037   3.902   6.027   1.094 -0.7858 -0.1421 -1.1715
   17CHTO   H81 7038   3.801   5.985   1.102 -0.7955  0.1248  0.1811
   17CHTO    N7 7039   3.925   6.050   0.948  0.0564  0.1401  0.7237
   17CHTO   H73 7040   3.901   5.970   0.881  0.5400  0.3152  0.3410
   17CHTO   H74 7041   4.027   6.080   0.931  0.0093  0.0795  0.3501
   17CHTO   C40 7042   4.010   5.928   1.149  0.1916  0.5280  0.3645
   17CHTO   H82 7043   4.110   5.970   1.136 -0.0547  0.5282 -1.6880
   17CHTO   O26 7044   3.979   5.904   1.289 -0.1874  0.0366  0.1999
   17CHTO   C41 7045   4.012   6.021   1.372 -0.4257 -0.6620 -0.4480
   17CHTO   H83 7046   4.114   6.060   1.363 -0.5525 -0.7399 -2.4452
   17CHTO   C52 7047   4.001   5.985   1.519 -0.0600 -0.4785  0.8701
   17CHTO   O35 7048   4.077   5.876   1.555  0.1726 -1.0227  0.6602
   17CHTO   H71 7049   4.066   5.858   1.646 -2.0058 -1.3531  0.3506
   17CHTO   O28 7050   3.990   5.794   1.096 -0.0913  0.0950  0.2077
   17CHTO   C42 7051   4.104   5.696   1.087  0.7862  0.4328 -0.1157
   17CHTO   H84 7052   4.052   5.602   1.071  2.3450 -0.4644  0.0151
   17CHTO   C44 7053   4.190   5.680   1.224 -0.8526 -0.3063  0.4999
   17CHTO   H86 7054   4.216   5.778   1.263 -1.6173  0.8203 -1.7085
   17CHTO   O32 7055   4.107   5.635   1.327 -0.1744 -0.1878 -0.1657
   17CHTO   H69 7056   4.083   5.547   1.305 -1.0117 -0.1540  0.5696
   17CHTO   C48 7057   4.317   5.596   1.195  0.0966  0.0232 -0.3835
   17CHTO   H90 7058   4.289   5.492   1.176  0.1293 -0.3008  1.2534
   17CHTO    N9 7059   4.400   5.582   1.315  0.2640 -0.8279 -0.0539
   17CHTO   H77 7060   4.432   5.681   1.345 -1.3900  0.9123 -3.6311
   17CHTO   H78 7061   4.349   5.533   1.396 -2.1305  1.4727 -0.1053
   17CHTO   C51 7062   4.401   5.657   1.068 -0.8032  0.1956  0.0048
   17CHTO   H93 7063   4.426   5.761   1.088 -0.0128 -0.1021  0.5509
   17CHTO   O30 7064   4.310   5.648   0.955  0.0582  0.1385  0.3809
   17CHTO   C46 7065   4.189   5.725   0.964 -0.0682 -0.0913  0.1948
   17CHTO   H88 7066   4.213   5.832   0.964  0.3314 -0.1519  2.9357
   17CHTO   C53 7067   4.104   5.698   0.835  0.2004  0.1396  0.2555
   17CHTO   O72 7068   4.168   5.746   0.718  0.7640 -0.4187 -0.3247
   17CHTO  H199 7069   4.246   5.698   0.698 -0.5584 -2.1465 -1.5406
   17CHTO   O22 7070   4.533   5.589   1.050 -0.2148 -0.3280 -0.5591
   17CHTO   C31 7071   4.630   5.634   0.932  0.2288  0.7593  0.7960
   17CHTO   H59 7072   4.715   5.563   0.926 -0.4287  0.1744 -2.2891
   17CHTO   C29 7073   4.564   5.637   0.794  0.3306 -0.0175  0.7070
   17CHTO   H57 7074   4.474   5.700   0.805  1.0689  1.1368  0.1478
   17CHTO   O21 7075   4.528   5.503   0.769 -0.3098 -0.3400  0.2894
   17CHTO   H37 7076   4.476   5.485   0.692 -1.4312 -2.9818  1.5974
   17CHTO   C27 7077   4.652   5.687   0.675  0.3408 -0.3701 -0.0728
   17CHTO   H55 7078   4.737   5.619   0.662  0.4063 -0.2365 -0.3634
   17CHTO    N5 7079   4.589   5.702   0.544  0.2490  0.1559 -0.2827
   17CHTO   H43 7080   4.652   5.699   0.456  2.1202 -0.1919  1.0228
   17CHTO   H44 7081   4.496   5.648   0.546 -0.1806  0.9104  0.6410
   17CHTO   C25 7082   4.689   5.838   0.724 -0.5150  0.0157  0.4425
   17CHTO   H53 7083   4.592   5.884   0.747 -0.1398  1.2140 -0.3317
   17CHTO   O17 7084   4.771   5.830   0.850  0.1373  0.3066 -0.2126
   17CHTO   C32 7085   4.697   5.775   0.966  0.1854 -0.1242  0.1594
   17CHTO   H60 7086   4.617   5.845   0.991  0.3802  0.8089 -1.6968
   17CHTO   C36 7087   4.791   5.748   1.087 -0.2638 -0.3276  0.4251
   17CHTO   O25 7088   4.717   5.764   1.204  0.0326 -0.3279  0.2130
   17CHTO   H40 7089   4.781   5.760   1.272  3.2101  1.1899 -2.5442
   17CHTO   O15 7090   4.774   5.915   0.650 -0.6454 -0.1382  0.2105
   17CHTO   C19 7091   4.804   6.060   0.614 -0.0527 -0.5391  0.7848
   17CHTO   H47 7092   4.861   6.052   0.521  2.2206  3.2815  1.7440
   17CHTO   C20 7093   4.682   6.150   0.594 -0.6450 -0.4849 -0.2909
   17CHTO   H48 7094   4.610   6.137   0.675  0.6907 -0.9183  0.8508
   17CHTO   O19 7095   4.622   6.111   0.473  0.2195 -0.0969  0.3403
   17CHTO   H35 7096   4.529   6.116   0.468  0.0834 -2.4159  0.0603
   17CHTO   C21 7097   4.718   6.308   0.583 -0.7006 -0.3304  0.6596
   17CHTO   H49 7098   4.772   6.328   0.491 -0.9203 -0.0861  0.5843
   17CHTO    N4 7099   4.599   6.399   0.573  0.3145  0.6321  0.1999
   17CHTO   H41 7100   4.633   6.488   0.520 -0.7682  1.0919  0.2637
   17CHTO   H42 7101   4.562   6.430   0.669 -0.2991 -0.1147  0.2055
   17CHTO   C22 7102   4.814   6.340   0.701 -0.1543  0.3222 -0.0005
   17CHTO   H50 7103   4.759   6.317   0.792 -1.5665  0.4504 -0.8195
   17CHTO   O14 7104   4.935   6.257   0.703  0.2521  0.3076  0.1539
   17CHTO   C23 7105   4.907   6.113   0.715  0.0937  0.1524 -0.2675
   17CHTO   H51 7106   4.872   6.094   0.817 -0.2767 -0.5984 -0.5291
   17CHTO   C34 7107   5.037   6.030   0.709 -0.0363  1.5055  0.3817
   17CHTO   O23 7108   5.049   5.895   0.761  0.8606  0.0123 -0.0947
   17CHTO   H38 7109   5.142   5.882   0.767  1.0928  1.8061  0.4594
   17CHTO   O16 7110   4.869   6.477   0.695 -0.4140 -0.6561 -0.5371
   17CHTO   C24 7111   4.908   6.546   0.810  0.3974 -0.0434  0.2752
   17CHTO   H52 7112   4.946   6.479   0.887  0.0717 -1.1111 -0.4806
   17CHTO   C26 7113   4.794   6.631   0.867 -0.2371  0.2036  0.3707
   17CHTO   H54 7114   4.754   6.696   0.787  1.0378  0.3240 -0.1901
   17CHTO   O20 7115   4.701   6.538   0.916  0.1079  0.0123 -0.1531
   17CHTO   H36 7116   4.615   6.573   0.929 -0.0661  0.2072 -1.7051
   17CHTO   C30 7117   4.834   6.723   0.986 -0.5642 -0.3878  0.3870
   17CHTO   H58 7118   4.861   6.651   1.064 -0.6613 -1.4821 -0.5771
   17CHTO    N6 7119   4.721   6.808   1.037  0.5306  0.1060 -0.0344
   17CHTO   H45 7120   4.666   6.851   0.955  0.8215 -1.5374 -1.1167
   17CHTO   H46 7121   4.656   6.748   1.098  0.7809  0.7206  0.8496
   17CHTO   C33 7122   4.964   6.800   0.953  0.0926 -0.3506  0.3143
   17CHTO   H61 7123   4.941   6.871   0.872 -0.0682  0.0507  0.7155
   17CHTO   O18 7124   5.061   6.708   0.903  0.5952  0.1598  0.2420
   17CHTO   C28 7125   5.029   6.637   0.779 -0.4340  0.9083 -0.0521
   17CHTO   H56 7126   5.004   6.709   0.701 -2.1732  0.7061  0.2983
   17CHTO   C35 7127   5.155   6.550   0.749  0.0598 -0.2909 -0.3510
   17CHTO   O24 7128   5.139   6.461   0.634 -0.3430  0.2042 -0.2342
   17CHTO   H39 7129   5.218   6.410   0.633  1.2707  2.5425  2.0452
   17CHTO    O9 7130   5.017   6.873   1.061  0.2051  0.0078 -0.2462
   17CHTO   C13 7131   5.136   6.964   1.030 -0.4915  0.5291 -0.3833
   17CHTO   H26 7132   5.179   6.922   0.937 -1.8713  0.4070 -0.9817
   17CHTO   C11 7133   5.242   6.977   1.148 -0.5287 -0.4719  0.0373
   17CHTO   H24 7134   5.286   6.879   1.173 -0.1932 -0.6575 -1.2406
   17CHTO    O8 7135   5.181   7.021   1.269 -0.3578 -0.4932 -0.4308
   17CHTO    H3 7136   5.175   7.115   1.273  0.6970 -0.4441  0.3102
   17CHTO    C9 7137   5.353   7.073   1.093  0.5007 -0.3687 -0.0315
   17CHTO   H22 7138   5.389   7.021   1.003  2.2538 -1.7041  1.3968
   17CHTO    N2 7139   5.472   7.076   1.178  0.2804  0.3163 -0.3772
   17CHTO   H10 7140   5.484   7.153   1.253 -0.7313  1.0960 -1.0090
   17CHTO   H11 7141   5.563   7.064   1.121  0.3723 -0.4606 -0.0685
   17CHTO    C7 7142   5.299   7.209   1.049  0.6459  0.7325  0.6164
   17CHTO   H20 7143   5.376   7.267   0.993 -0.5085 -0.0395 -1.8684
   17CHTO    O4 7144   5.194   7.199   0.951  0.2753 -0.8540  0.0518
   17CHTO   C14 7145   5.083   7.107   0.972  0.3252 -0.3623  0.8031
   17CHTO   H27 7146   5.044   7.100   0.868  1.1432 -0.1242  0.4717
   17CHTO   C18 7147   4.976   7.172   1.062 -0.0593  0.0248  0.1404
   17CHTO   O13 7148   4.942   7.301   1.010  0.0919  0.0954 -0.5703
   17CHTO    H7 7149   4.984   7.365   1.063 -0.2667 -0.5311  0.4975
   17CHTO    O2 7150   5.252   7.295   1.187  0.6460 -0.4302 -0.5430
   17CHTO    C1 7151   5.218   7.435   1.171  0.3210  0.7820 -0.0392
   17CHTO   H14 7152   5.162   7.450   1.076  0.0691 -3.2682 -0.6479
   17CHTO    C2 7153   5.354   7.522   1.159  0.1998  0.1452  0.0926
   17CHTO   H15 7154   5.409   7.477   1.244 -0.3925  0.8102  0.8405
   17CHTO    O6 7155   5.419   7.509   1.033 -0.1020 -0.0005  0.5057
   17CHTO    H1 7156   5.352   7.492   0.970 -0.6396  1.6309  0.6109
   17CHTO    C3 7157   5.331   7.676   1.184  0.5607  0.0559  0.8094
   17CHTO   H16 7158   5.273   7.728   1.106  1.5680 -0.8848 -0.5776
   17CHTO    N1 7159   5.459   7.756   1.200  0.2691 -0.4359  0.0686
   17CHTO    H8 7160   5.516   7.711   1.279  1.6140 -0.0295 -0.6599
   17CHTO    H9 7161   5.444   7.862   1.216 -1.0021 -0.5282 -0.4302
   17CHTO    C4 7162   5.249   7.699   1.319  0.2820  0.2925 -0.0477
   17CHTO   H17 7163   5.306   7.663   1.404  0.0373  2.4722  1.0789
   17CHTO    O1 7164   5.122   7.634   1.305  0.0341  0.6788  0.0192
   17CHTO    C5 7165   5.139   7.489   1.299  0.4546  0.3838  0.2880
   17CHTO   H18 7166   5.199   7.464   1.387 -0.0108 -1.4497  0.1147
   17CHTO   C16 7167   4.996   7.438   1.322  0.1755  0.1505 -0.2307
   17CHTO   O11 7168   4.957   7.474   1.458 -0.0314  0.2656  0.5086
   17CHTO    H5 7169   4.882   7.430   1.492 -0.3742  1.7209  1.6689
   17CHTO    O3 7170   5.211   7.832   1.346 -0.0437 -0.1073  0.1536
   17CHTO    C6 7171   5.180   7.876   1.480 -0.5176 -0.2020 -0.2464
   17CHTO   H19 7172   5.109   7.959   1.474 -0.2895  0.0571  0.6861
   17CHTO    C8 7173   5.113   7.771   1.579  0.3448 -0.5015  0.3163
   17CHTO   H21 7174   5.164   7.676   1.566  0.5561 -0.3117 -0.2857
   17CHTO    O7 7175   4.980   7.765   1.526 -0.0351 -0.2160 -0.6818
   17CHTO    H2 7176   4.927   7.840   1.539  0.0659 -0.0932 -0.9756
   17CHTO   C12 7177   5.109   7.825   1.726 -0.4057  0.5782  0.6887
   17CHTO   H25 7178   5.048   7.918   1.720 -3.1166 -1.2973 -1.7557
   17CHTO    N3 7179   5.045   7.728   1.820 -0.5794  0.3096  0.7194
   17CHTO   H12 7180   4.960   7.771   1.869 -0.8841 -2.9995  3.2453
   17CHTO   H13 7181   5.024   7.637   1.765  0.0022  1.5984 -1.7538
   17CHTO   C15 7182   5.257   7.865   1.768  0.0971 -0.2155  0.2131
   17CHTO   H28 7183   5.326   7.781   1.771  0.2749 -0.0390  2.2887
   17CHTO   O10 7184   5.266   7.950   1.904 -0.5296 -0.0695 -0.1553
   17CHTO    H4 7185   5.299   7.894   1.971  0.3331 -1.6879 -1.9004
   17CHTO    O5 7186   5.299   7.974   1.680  0.3889  0.3305  0.0504
   17CHTO   C10 7187   5.307   7.934   1.541  0.0123 -0.0720 -0.2579
   17CHTO   H23 7188   5.380   7.853   1.536 -1.1649 -1.1767  0.1480
   17CHTO   C17 7189   5.370   8.044   1.460  0.2869 -0.2902 -0.2814
   17CHTO   O12 7190   5.302   8.167   1.483 -0.4241 -0.0213  0.2904
   17CHTO    H6 7191   5.316   8.206   1.567  1.9517  1.0720 -0.5593
   18CHTO  H203 7192   6.385   7.565   2.002  1.0085  0.1348  0.3272
   18CHTO   O82 7193   6.460   7.539   1.952  0.5761  0.0569 -0.2877
   18CHTO  C123 7194   6.451   7.576   1.810 -0.5403 -0.2165 -0.2454
   18CHTO  H227 7195   6.346   7.574   1.776 -0.5154  0.6154 -0.3710
   18CHTO   O77 7196   6.504   7.710   1.818 -0.3948  0.0700  0.2882
   18CHTO  C118 7197   6.480   7.787   1.700  0.0313 -0.2312  0.6071
   18CHTO  H222 7198   6.375   7.783   1.668 -0.2111  2.1645  1.0134
   18CHTO  C125 7199   6.531   7.938   1.729  0.4693  0.7130  0.6035
   18CHTO   O84 7200   6.449   8.008   1.826  0.2400 -0.0926  0.0213
   18CHTO  H205 7201   6.514   8.051   1.879  0.2849 -0.0339 -0.0816
   18CHTO  C114 7202   6.557   7.724   1.581 -0.6307 -0.1405  0.0731
   18CHTO  H218 7203   6.665   7.736   1.591 -0.1492 -1.4107 -3.0775
   18CHTO  C116 7204   6.535   7.571   1.567  0.5048  0.4197 -0.1214
   18CHTO  H220 7205   6.432   7.554   1.529  1.6462 -3.1236 -1.8613
   18CHTO   O79 7206   6.624   7.508   1.469 -0.7504 -0.1414 -0.1824
   18CHTO  H201 7207   6.715   7.527   1.485 -0.9457  0.0756  0.6992
   18CHTO  C120 7208   6.541   7.494   1.706 -0.8547 -0.0465 -0.3206
   18CHTO  H224 7209   6.648   7.503   1.734 -1.0156  1.4922 -0.1259
   18CHTO   N21 7210   6.499   7.354   1.690  0.5092 -0.7083  0.8449
   18CHTO  H211 7211   6.448   7.335   1.597  1.8448  1.6117 -0.4056
   18CHTO  H212 7212   6.437   7.329   1.775 -1.9585 -1.2316 -1.0572
   18CHTO   O75 7213   6.520   7.793   1.458 -0.0938 -0.4061  0.4447
   18CHTO  C112 7214   6.641   7.831   1.367  0.1271 -0.6068  0.2475
   18CHTO  H216 7215   6.728   7.770   1.397 -0.2519 -0.9445  0.6624
   18CHTO   O73 7216   6.664   7.973   1.388 -0.3571 -0.3399 -0.4485
   18CHTO  C113 7217   6.767   8.040   1.314 -0.6579 -0.1668 -0.1067
   18CHTO  H217 7218   6.865   8.000   1.345 -1.4072 -0.1749  2.3722
   18CHTO  C124 7219   6.771   8.191   1.348 -0.6885 -0.0799  0.5159
   18CHTO   O83 7220   6.781   8.223   1.489  0.2831 -0.3356  1.0310
   18CHTO  H204 7221   6.696   8.206   1.527  1.2783  1.1353  4.0625
   18CHTO  C109 7222   6.740   8.022   1.163  0.5674  0.2395  0.0196
   18CHTO  H213 7223   6.648   8.076   1.136  1.3760  1.4305 -0.3738
   18CHTO  C110 7224   6.718   7.868   1.130  0.7281  0.4438  0.3992
   18CHTO  H214 7225   6.813   7.819   1.150  0.9900  0.9568  0.4205
   18CHTO   O78 7226   6.678   7.857   0.989  0.3393  0.1427  0.5943
   18CHTO  H200 7227   6.587   7.863   0.969  0.8456  0.8142 -1.6365
   18CHTO  C111 7228   6.608   7.808   1.218  0.1676  0.2964  0.1075
   18CHTO  H215 7229   6.516   7.862   1.194 -0.1011 -0.7354 -1.2287
   18CHTO   N19 7230   6.574   7.665   1.196 -0.3175  0.2138  0.1120
   18CHTO  H207 7231   6.635   7.605   1.261 -0.3022 -0.2302 -0.3054
   18CHTO  H208 7232   6.469   7.643   1.208 -0.5992  2.4734  2.2272
   18CHTO   O74 7233   6.850   8.084   1.084 -0.6224 -0.4476 -0.0589
   18CHTO  C115 7234   6.798   8.146   0.916  1.0950 -0.9274  0.1785
   18CHTO  H219 7235   6.739   8.069   0.865  1.4983 -1.6233  0.7587
   18CHTO   O76 7236   6.703   8.272   0.924  0.5233  0.0204  0.1162
   18CHTO  C122 7237   6.661   8.324   0.799 -0.2476 -0.1273  0.0241
   18CHTO  H226 7238   6.610   8.420   0.807 -0.5874 -0.4406  1.8369
   18CHTO  C126 7239   6.550   8.227   0.740  0.1220  0.4206  0.0113
   18CHTO   O85 7240   6.511   8.238   0.600  0.1745 -0.2258 -0.2552
   18CHTO  H206 7241   6.511   8.327   0.571  0.9199 -0.5923 -1.4222
   18CHTO  C121 7242   6.786   8.347   0.705  0.2471  0.4836 -0.4450
   18CHTO  H225 7243   6.735   8.352   0.606  0.1373 -0.8627 -0.4673
   18CHTO   O81 7244   6.854   8.468   0.746 -0.0666 -0.4281  0.3775
   18CHTO  H202 7245   6.881   8.518   0.672  1.8190 -1.8475  0.0582
   18CHTO  C119 7246   6.886   8.236   0.695  0.0313 -0.6070 -0.0236
   18CHTO  H223 7247   6.827   8.155   0.653  0.0278 -1.2899  1.2607
   18CHTO  C117 7248   6.933   8.173   0.836  0.9260 -0.8494  0.1811
   18CHTO  H221 7249   6.992   8.239   0.900 -0.0301  2.0199 -1.7943
   18CHTO   N20 7250   7.009   8.052   0.814  0.0264 -0.1445  0.1234
   18CHTO  H209 7251   6.964   7.970   0.760  0.7816 -0.1546 -0.5070
   18CHTO  H210 7252   7.066   8.022   0.900 -0.2554 -0.5694  0.1642
   18CHTO   O80 7253   6.989   8.262   0.582  0.2285 -0.0620  0.0210
   18CHTO  C103 7254   6.986   8.162   0.429  0.3531  0.9259 -0.0604
   18CHTO  H190 7255   7.058   8.202   0.357  0.7869 -1.6165 -1.0767
   18CHTO  C101 7256   7.012   8.012   0.447  0.4538 -0.5227  0.0933
   18CHTO  H188 7257   6.931   7.974   0.509 -1.7773  0.1322 -2.3037
   18CHTO   O68 7258   7.152   7.986   0.510 -0.2176  0.1341 -0.2606
   18CHTO  H168 7259   7.217   8.029   0.459  0.3164 -1.2846 -0.8229
   18CHTO   C99 7260   6.991   7.939   0.304 -0.3878 -0.5283  0.0157
   18CHTO  H186 7261   7.062   7.986   0.233  0.1134 -0.2475  0.6955
   18CHTO   N17 7262   7.023   7.793   0.299  0.3497  1.0930 -0.0890
   18CHTO  H174 7263   7.122   7.762   0.328  0.5636 -1.0004 -2.7723
   18CHTO  H175 7264   6.997   7.744   0.206 -0.0913  0.7983  0.1856
   18CHTO   C97 7265   6.842   7.969   0.253  0.2295 -0.4194 -0.1212
   18CHTO  H184 7266   6.766   7.921   0.316  0.5011  0.4277  0.8571
   18CHTO   O64 7267   6.821   8.110   0.252 -0.1252  0.7084  0.1393
   18CHTO  C104 7268   6.843   8.185   0.368  0.1485 -0.3477 -0.4621
   18CHTO  H191 7269   6.772   8.154   0.445  0.6405  1.6014  0.8048
   18CHTO  C108 7270   6.810   8.332   0.342 -0.2756  0.6842 -0.6767
   18CHTO   O71 7271   6.891   8.388   0.240  0.7069 -0.3842  0.3727
   18CHTO  H171 7272   6.980   8.362   0.253  0.6799 -0.9331 -0.4989
   18CHTO   O62 7273   6.805   7.929   0.119 -0.3137  0.3656 -0.0581
   18CHTO   C91 7274   6.667   7.925   0.087 -0.4097  0.2534 -0.0627
   18CHTO  H178 7275   6.602   7.950   0.171 -1.4884 -2.2722 -0.1055
   18CHTO   C92 7276   6.635   7.776   0.052 -0.4684  0.4022  0.5785
   18CHTO  H179 7277   6.696   7.754  -0.037 -1.1542  0.1414  0.1737
   18CHTO   O66 7278   6.674   7.692   0.158 -0.3821  0.1740 -0.1321
   18CHTO  H166 7279   6.599   7.670   0.210 -0.5788  1.5617  0.1995
   18CHTO   C93 7280   6.484   7.761   0.008  0.3214 -0.5706 -0.3450
   18CHTO  H180 7281   6.426   7.779   0.100 -0.5022 -0.3046 -0.9132
   18CHTO   N16 7282   6.448   7.628  -0.038 -0.2919 -0.1574 -0.2160
   18CHTO  H172 7283   6.515   7.584  -0.111 -1.2591  0.6947 -1.6390
   18CHTO  H173 7284   6.396   7.564   0.032 -0.7901 -0.9919 -1.3324
   18CHTO   C94 7285   6.448   7.869  -0.096  0.1552  0.1422  0.3138
   18CHTO  H181 7286   6.493   7.845  -0.193 -0.9952 -2.4616  0.3789
   18CHTO   O61 7287   6.484   8.004  -0.064  0.2209 -0.1305  0.5324
   18CHTO   C95 7288   6.623   8.017  -0.037  0.4009 -0.0316 -0.0293
   18CHTO  H182 7289   6.681   7.999  -0.128 -0.0711  1.0297 -0.5576
   18CHTO  C106 7290   6.642   8.168  -0.018  0.1409 -0.0363  0.7770
   18CHTO   O69 7291   6.780   8.213  -0.027  0.0964 -0.2181  0.1978
   18CHTO  H169 7292   6.792   8.274  -0.098  1.2145  0.1706  0.7108
   18CHTO   O63 7293   6.270   7.868  -0.116 -0.7374  0.0426 -0.2468
   18CHTO   C96 7294   6.180   7.990  -0.058 -0.1791 -0.1714  0.1718
   18CHTO  H183 7295   6.221   8.086  -0.090 -3.8892  0.8806 -1.6534
   18CHTO   C98 7296   6.158   8.006   0.097  0.4030  0.0866 -0.0388
   18CHTO  H185 7297   6.087   7.931   0.135  0.9771 -0.3004  0.2780
   18CHTO   O67 7298   6.288   7.982   0.155 -0.1556 -0.7543 -0.3093
   18CHTO  H167 7299   6.342   8.056   0.135 -1.2058  0.0580 -0.1996
   18CHTO  C102 7300   6.099   8.155   0.120  0.1164  0.3870  0.0573
   18CHTO  H189 7301   6.186   8.221   0.107 -0.0400  0.4071 -0.8903
   18CHTO   N18 7302   6.045   8.180   0.259  0.3571 -0.7095  0.7027
   18CHTO  H176 7303   6.089   8.263   0.311 -0.7011 -0.5785  1.4177
   18CHTO  H177 7304   6.045   8.088   0.316  1.0401 -2.5386 -2.1358
   18CHTO  C105 7305   5.988   8.196   0.009 -0.3745 -0.3401 -0.8076
   18CHTO  H192 7306   5.890   8.172   0.050 -1.1136  1.6116 -1.3829
   18CHTO   O65 7307   5.995   8.132  -0.121  0.1797 -0.3061  0.0800
   18CHTO  C100 7308   6.041   7.996  -0.120 -0.5682  0.3152  0.0200
   18CHTO  H187 7309   5.974   7.933  -0.060 -1.8116  1.4428 -0.1637
   18CHTO  C107 7310   6.025   7.940  -0.258 -0.1194  0.1945  0.0619
   18CHTO   O70 7311   6.086   8.019  -0.364 -0.1900  0.4419 -1.0055
   18CHTO  H170 7312   6.172   8.051  -0.343 -0.5771  0.3600  0.7804
   18CHTO   O57 7313   6.016   8.350  -0.004  0.1574  0.0571  0.1342
   18CHTO   C85 7314   5.927   8.457  -0.031 -0.5373  0.3940 -0.2901
   18CHTO  H157 7315   6.001   8.537  -0.053 -0.7942  0.6840 -0.1038
   18CHTO   C83 7316   5.844   8.499   0.096  0.1359  0.4209 -0.1033
   18CHTO  H155 7317   5.905   8.547   0.173 -1.6574  1.0982  0.9130
   18CHTO   O56 7318   5.792   8.380   0.163 -0.0738  0.2600 -0.0655
   18CHTO  H135 7319   5.857   8.345   0.221  0.3100 -0.4609 -0.9136
   18CHTO   C81 7320   5.741   8.606   0.050 -0.4334 -0.2420  0.9723
   18CHTO  H153 7321   5.794   8.691   0.008  0.1750 -0.6181  0.9772
   18CHTO   N14 7322   5.665   8.662   0.164  0.2127  0.0288 -0.5965
   18CHTO  H141 7323   5.740   8.692   0.233  0.4417  0.1055 -0.8786
   18CHTO  H142 7324   5.607   8.585   0.210  0.0394 -0.0913 -1.0079
   18CHTO   C79 7325   5.650   8.547  -0.058  0.7720  0.0400 -0.1258
   18CHTO  H151 7326   5.580   8.624  -0.088 -1.2869 -1.6321  0.2709
   18CHTO   O52 7327   5.725   8.515  -0.176 -0.6008  0.2578  0.3422
   18CHTO   C86 7328   5.837   8.423  -0.159 -0.1213 -0.6353 -0.6169
   18CHTO  H158 7329   5.787   8.324  -0.158  2.0378 -1.7632 -0.1076
   18CHTO   C90 7330   5.919   8.420  -0.288 -0.3577 -0.2937  0.2649
   18CHTO   O60 7331   6.001   8.311  -0.305 -0.4642 -0.2582 -0.4492
   18CHTO  H138 7332   6.084   8.353  -0.316 -0.7393 -0.0615 -1.8650
   18CHTO   O50 7333   5.570   8.437  -0.021 -0.0177 -0.5743  0.2761
   18CHTO   C73 7334   5.472   8.334  -0.043 -0.0394 -0.5899 -0.6414
   18CHTO  H145 7335   5.484   8.282  -0.139 -0.7130 -0.9998 -0.5121
   18CHTO   C74 7336   5.326   8.392  -0.035 -0.7930  0.1444 -0.1740
   18CHTO  H146 7337   5.317   8.463  -0.118  2.1004 -0.0099 -0.6729
   18CHTO   O54 7338   5.224   8.290  -0.051  0.5227  0.1008 -0.3371
   18CHTO  H133 7339   5.231   8.247  -0.134 -3.4916  1.1868 -1.3485
   18CHTO   C75 7340   5.305   8.467   0.107  0.6031  0.1067 -0.2130
   18CHTO  H147 7341   5.369   8.556   0.108 -1.2076  1.4397 -0.5581
   18CHTO   N13 7342   5.170   8.529   0.129 -0.1666  0.5085 -0.1874
   18CHTO  H139 7343   5.130   8.509   0.227  1.4207 -0.9252  0.2066
   18CHTO  H140 7344   5.177   8.635   0.113  1.0097  0.2559 -1.5072
   18CHTO   C76 7345   5.355   8.374   0.234  0.1979  0.1637  0.7060
   18CHTO  H148 7346   5.275   8.312   0.274  0.2871  0.2247  0.9774
   18CHTO   O49 7347   5.470   8.290   0.201  0.1119 -0.7347  0.1421
   18CHTO   C77 7348   5.481   8.232   0.070 -0.3995 -0.5140  0.1814
   18CHTO  H149 7349   5.397   8.163   0.063 -1.0243  0.1760  0.7917
   18CHTO   C88 7350   5.602   8.133   0.067  0.2330  0.6028  0.2422
   18CHTO   O58 7351   5.609   8.052  -0.059  0.2235 -0.1755 -0.1026
   18CHTO  H136 7352   5.556   7.976  -0.042 -0.1635  0.1270  0.0604
   18CHTO   O51 7353   5.410   8.464   0.346 -0.3271 -0.2087  0.1828
   18CHTO   C78 7354   5.383   8.410   0.497  0.2982  0.3142 -0.2362
   18CHTO  H150 7355   5.362   8.302   0.487  2.0535 -0.0213 -0.5453
   18CHTO   C80 7356   5.266   8.486   0.559 -0.4663  0.1185  0.6498
   18CHTO  H152 7357   5.290   8.594   0.560 -0.2158  0.0909  3.3586
   18CHTO   O55 7358   5.147   8.455   0.483  0.0297 -0.3584 -0.4911
   18CHTO  H134 7359   5.142   8.504   0.403  0.6164 -0.0868 -0.3589
   18CHTO   C84 7360   5.249   8.447   0.715 -0.1872 -0.4703 -0.1776
   18CHTO  H156 7361   5.229   8.340   0.718  1.0689 -0.7568 -1.8119
   18CHTO   N15 7362   5.131   8.510   0.785 -0.2821  0.1666  0.1075
   18CHTO  H143 7363   5.139   8.617   0.785  1.3707  0.1496 -3.8190
   18CHTO  H144 7364   5.128   8.473   0.885  0.7878 -0.6308 -0.1410
   18CHTO   C87 7365   5.381   8.486   0.781 -0.7811 -0.0760 -0.3919
   18CHTO  H159 7366   5.390   8.592   0.758  0.2030 -0.1115 -0.1632
   18CHTO   O53 7367   5.493   8.388   0.714  0.0245 -0.8671  0.0853
   18CHTO   C82 7368   5.513   8.432   0.579 -0.2188  0.0292  0.0414
   18CHTO  H154 7369   5.550   8.535   0.577  1.7660 -0.6716  0.2051
   18CHTO   C89 7370   5.625   8.347   0.521 -0.0909  0.5920 -0.1511
   18CHTO   O59 7371   5.753   8.381   0.576 -0.1642 -0.1057  0.2429
   18CHTO  H137 7372   5.741   8.372   0.668 -1.3902 -2.6980 -0.1285
   18CHTO   O45 7373   5.381   8.443   0.951  0.0111  0.7465  0.1803
   18CHTO   C67 7374   5.507   8.456   1.003  0.3527 -0.5853 -0.3951
   18CHTO  H124 7375   5.587   8.415   0.940  0.1369 -1.1796 -0.2870
   18CHTO   C65 7376   5.534   8.615   1.016  0.0165  0.1882 -0.1622
   18CHTO  H122 7377   5.437   8.665   1.011  0.4057  0.8891 -0.8761
   18CHTO   O44 7378   5.612   8.660   0.903 -0.3392 -0.9550 -0.0658
   18CHTO  H102 7379   5.700   8.628   0.907  0.3254  0.7099 -0.9465
   18CHTO   C63 7380   5.595   8.651   1.156  0.3686 -0.1627 -0.4738
   18CHTO  H120 7381   5.513   8.642   1.227  0.7315 -0.7000 -0.1152
   18CHTO   N11 7382   5.648   8.795   1.174 -0.0822 -0.5076  0.4040
   18CHTO  H108 7383   5.681   8.821   1.273  0.7235  0.0657 -0.0122
   18CHTO  H109 7384   5.731   8.812   1.109  1.2901 -1.6588  1.8016
   18CHTO   C61 7385   5.702   8.538   1.187 -0.1458 -0.1035  0.0491
   18CHTO  H118 7386   5.745   8.559   1.286 -1.2588 -2.1543  0.9952
   18CHTO   O40 7387   5.647   8.408   1.195  0.4168 -0.0674 -0.3950
   18CHTO   C68 7388   5.520   8.384   1.140  0.5205  0.4610  0.0199
   18CHTO  H125 7389   5.445   8.424   1.210  0.1876 -0.0439 -0.0473
   18CHTO   C72 7390   5.499   8.231   1.121  0.5033 -0.3647 -0.3205
   18CHTO   O48 7391   5.611   8.152   1.079 -0.3466  0.1522  0.1156
   18CHTO  H105 7392   5.579   8.071   1.043 -1.0082  0.9790 -1.2104
   18CHTO   O38 7393   5.802   8.535   1.089  0.1131  0.4765  0.1993
   18CHTO   C55 7394   5.931   8.481   1.118 -0.1783  0.5669 -0.0852
   18CHTO  H112 7395   5.925   8.409   1.202  1.5251 -0.1430 -0.5424
   18CHTO   C56 7396   6.032   8.592   1.152 -0.0589  0.1007 -0.0100
   18CHTO  H113 7397   6.041   8.657   1.064  2.0409 -0.4880 -0.2416
   18CHTO   O42 7398   5.978   8.670   1.259 -0.1989  0.3214 -0.0981
   18CHTO  H100 7399   6.049   8.719   1.295 -0.2356 -0.2711  0.7932
   18CHTO   C57 7400   6.170   8.522   1.195  0.6955 -0.6745 -0.5111
   18CHTO  H114 7401   6.136   8.458   1.277 -0.7322  0.5655 -0.1203
   18CHTO   N10 7402   6.272   8.617   1.243  0.0113  0.0106  0.1524
   18CHTO  H106 7403   6.318   8.558   1.322  0.3491 -1.3720 -1.0621
   18CHTO  H107 7404   6.342   8.635   1.164  1.1769  0.1671  1.2004
   18CHTO   C58 7405   6.221   8.430   1.082 -0.0802 -0.4115 -0.1303
   18CHTO  H115 7406   6.263   8.489   0.998 -1.4420  0.2826 -0.3388
   18CHTO   O37 7407   6.117   8.347   1.023 -0.6582  0.0072  0.7252
   18CHTO   C59 7408   5.990   8.400   0.997 -0.7001 -0.1573 -0.5376
   18CHTO  H116 7409   6.001   8.473   0.917  0.8652  1.1614  0.8414
   18CHTO   C70 7410   5.895   8.287   0.950 -0.2972  0.3172  0.1513
   18CHTO   O46 7411   5.929   8.229   0.824 -0.0736 -0.0603  0.2486
   18CHTO  H103 7412   6.018   8.203   0.812 -0.5100  0.1631 -4.1631
   18CHTO   O39 7413   6.324   8.327   1.135 -0.4846 -0.0497  0.1463
   18CHTO   C60 7414   6.278   8.223   1.218  0.0460  0.7606 -0.5339
   18CHTO  H117 7415   6.192   8.255   1.278 -0.1207 -0.4917 -0.0923
   18CHTO   C62 7416   6.240   8.094   1.136 -0.4072  0.7988 -0.6548
   18CHTO  H119 7417   6.177   8.123   1.049  0.3000  0.9208 -1.1285
   18CHTO   O43 7418   6.357   8.040   1.078  0.3866 -0.1935  0.4975
   18CHTO  H101 7419   6.326   7.987   1.008 -2.1237  2.7625 -0.6853
   18CHTO   C66 7420   6.160   7.998   1.236 -0.7453  0.3843  0.1699
   18CHTO  H123 7421   6.085   8.060   1.286 -0.2038 -0.2295  1.7437
   18CHTO   N12 7422   6.076   7.895   1.174 -0.2162  0.0781 -0.3921
   18CHTO  H110 7423   6.104   7.797   1.209  0.5303  0.2064 -0.6088
   18CHTO  H111 7424   6.075   7.898   1.066  0.1073 -1.1351 -0.4351
   18CHTO   C69 7425   6.242   7.941   1.355  0.3317  0.0360  0.2702
   18CHTO  H126 7426   6.292   7.846   1.327  0.8323  0.5224 -0.5019
   18CHTO   O41 7427   6.352   8.066   1.424 -0.0526 -0.1529 -0.4729
   18CHTO   C64 7428   6.395   8.199   1.325  0.7367 -0.5216 -0.5673
   18CHTO  H121 7429   6.491   8.179   1.274  1.4539 -0.5742  0.7901
   18CHTO   C71 7430   6.426   8.324   1.414 -0.4281 -0.1178  0.2859
   18CHTO   O47 7431   6.321   8.355   1.506  0.2719 -0.0632  0.7581
   18CHTO  H104 7432   6.323   8.447   1.519  0.7059  0.0367  0.0162
   18CHTO   O34 7433   6.140   7.890   1.467 -0.0954  0.4236  0.0848
   18CHTO   C49 7434   6.079   7.942   1.595 -0.2136 -0.4964  0.0091
   18CHTO   H91 7435   6.136   7.911   1.682 -0.2864 -0.3270  0.1150
   18CHTO   C47 7436   5.945   7.869   1.604 -0.1970 -0.0315 -0.0505
   18CHTO   H89 7437   5.907   7.894   1.705 -2.2376 -3.9322  0.2581
   18CHTO   O33 7438   5.977   7.730   1.599  0.0376  0.1158  0.9162
   18CHTO   H70 7439   5.905   7.675   1.625  0.8138 -1.3934 -0.0290
   18CHTO   C45 7440   5.840   7.913   1.487  0.4514 -0.3793  0.0707
   18CHTO   H87 7441   5.875   7.896   1.384  1.8957 -1.8834  0.7985
   18CHTO    N8 7442   5.708   7.844   1.500  0.5231  0.0493 -0.6315
   18CHTO   H75 7443   5.677   7.789   1.412 -2.3237  0.4312  0.0736
   18CHTO   H76 7444   5.717   7.767   1.576 -0.3100  0.3842 -0.1827
   18CHTO   C43 7445   5.830   8.076   1.481  0.9727  0.3703 -0.3864
   18CHTO   H85 7446   5.779   8.096   1.387 -2.9447 -4.0146  0.6281
   18CHTO   O29 7447   5.953   8.144   1.509 -0.0102  0.1214 -0.7748
   18CHTO   C50 7448   6.057   8.101   1.596 -0.4804 -0.4559 -0.2609
   18CHTO   H92 7449   6.147   8.148   1.556 -0.6544  0.2092  0.1140
   18CHTO   C54 7450   6.037   8.162   1.738  0.3949 -0.2164 -0.2786
   18CHTO   O36 7451   6.145   8.141   1.826 -0.1594  0.0891 -0.1244
   18CHTO   H72 7452   6.142   8.202   1.897 -0.1482  1.1191 -0.9912
   18CHTO   O27 7453   5.740   8.131   1.581 -0.0021  0.3740  0.8110
   18CHTO   C37 7454   5.680   8.237   1.648  0.2027 -0.0018 -0.4279
   18CHTO   H79 7455   5.748   8.302   1.705  0.0132 -1.3524  1.4075
   18CHTO   C38 7456   5.600   8.332   1.554 -0.6414  0.3368 -0.3658
   18CHTO   H80 7457   5.534   8.269   1.492  0.0793 -1.3523  0.5456
   18CHTO   O31 7458   5.701   8.386   1.472 -0.4034  0.3999  0.3812
   18CHTO   H68 7459   5.699   8.479   1.472  1.1003  0.4507 -0.6008
   18CHTO   C39 7460   5.508   8.433   1.627  0.2056 -0.1691  0.1826
   18CHTO   H81 7461   5.569   8.515   1.665  1.3619 -0.3728 -1.2015
   18CHTO    N7 7462   5.410   8.494   1.529  0.9713 -0.0111 -0.2751
   18CHTO   H73 7463   5.426   8.447   1.433  1.1995  1.2403 -0.8612
   18CHTO   H74 7464   5.432   8.600   1.533  0.7273 -0.0410  2.4283
   18CHTO   C40 7465   5.428   8.368   1.747  0.5806 -0.2750 -0.8927
   18CHTO   H82 7466   5.337   8.321   1.710 -0.4426  1.8859 -1.2516
   18CHTO   O26 7467   5.510   8.281   1.819 -0.1053 -0.4300  0.3087
   18CHTO   C41 7468   5.581   8.172   1.748 -0.0013 -0.8920  0.7091
   18CHTO   H83 7469   5.497   8.122   1.699 -2.5114  2.4647  1.3499
   18CHTO   C52 7470   5.647   8.091   1.854 -0.1926 -0.6753 -0.2442
   18CHTO   O35 7471   5.552   8.038   1.950  0.0220 -0.2121  0.2962
   18CHTO   H71 7472   5.585   7.980   2.015 -1.8139 -0.9691  0.6062
   18CHTO   O28 7473   5.402   8.473   1.839  0.0088 -0.3912  0.5974
   18CHTO   C42 7474   5.291   8.486   1.939  0.0447  0.6066  0.3198
   18CHTO   H84 7475   5.353   8.524   2.020  2.7991  0.9419 -1.8753
   18CHTO   C44 7476   5.215   8.353   1.993  0.0250  0.1228  0.5509
   18CHTO   H86 7477   5.276   8.268   1.964 -0.1056  0.0954  0.3637
   18CHTO   O32 7478   5.225   8.350   2.131  0.3902  0.9167  0.3285
   18CHTO   H69 7479   5.187   8.271   2.165  1.0075  0.5781  0.2310
   18CHTO   C48 7480   5.069   8.334   1.931 -1.0430  0.8006 -0.3915
   18CHTO   H90 7481   4.996   8.381   1.996 -1.3532 -1.7547  1.1681
   18CHTO    N9 7482   5.028   8.186   1.927 -0.1230 -0.1134  0.1771
   18CHTO   H77 7483   4.926   8.188   1.891 -1.3131  0.1408  3.4162
   18CHTO   H78 7484   5.104   8.143   1.863  0.8439  1.3990  0.2792
   18CHTO   C51 7485   5.051   8.405   1.790  0.5195 -0.4522 -0.0221
   18CHTO   H93 7486   5.115   8.350   1.721  1.7727  0.0901  0.7115
   18CHTO   O30 7487   5.085   8.546   1.793  0.7506  0.4043  0.4937
   18CHTO   C46 7488   5.194   8.599   1.901  0.5259  0.0707 -0.0242
   18CHTO   H88 7489   5.250   8.677   1.848 -1.3882  2.1957  1.0039
   18CHTO   C53 7490   5.131   8.654   2.031  0.1245  0.7600  0.0893
   18CHTO   O72 7491   5.048   8.768   2.001 -0.3375  0.0609  0.0590
   18CHTO  H199 7492   4.965   8.772   2.046  0.0655 -0.5105  0.8712
   18CHTO   O22 7493   4.910   8.404   1.746  0.0492 -0.0028 -0.4786
   18CHTO   C31 7494   4.881   8.392   1.595  0.6299 -0.7150  0.1353
   18CHTO   H59 7495   4.777   8.428   1.579  1.0302  0.0574 -0.8239
   18CHTO   C29 7496   4.968   8.476   1.500 -0.1548 -0.0070  0.8463
   18CHTO   H57 7497   5.075   8.452   1.509  0.5560  1.5224 -2.5479
   18CHTO   O21 7498   4.974   8.611   1.557  0.4704  0.4263 -0.2821
   18CHTO   H37 7499   5.061   8.645   1.565  0.3592  0.7931 -0.6514
   18CHTO   C27 7500   4.932   8.457   1.345  0.1995  0.2439  0.2511
   18CHTO   H55 7501   4.827   8.488   1.331  0.2205  1.2266  2.0761
   18CHTO    N5 7502   5.018   8.540   1.259  0.1600 -0.2043 -0.3243
   18CHTO   H43 7503   5.044   8.631   1.312  1.3938 -0.1111 -1.0661
   18CHTO   H44 7504   4.963   8.579   1.175 -0.0356  1.8377  0.7101
   18CHTO   C25 7505   4.937   8.303   1.314 -0.0437  0.2405 -0.4022
   18CHTO   H53 7506   5.030   8.252   1.342 -0.2527 -0.6867 -1.3538
   18CHTO   O17 7507   4.837   8.236   1.402 -0.1740  0.4186  0.2673
   18CHTO   C32 7508   4.878   8.249   1.536 -0.4932 -0.0567  0.7561
   18CHTO   H60 7509   4.977   8.205   1.547 -0.7398 -0.8847 -0.2693
   18CHTO   C36 7510   4.787   8.170   1.629  0.1015  0.0620  0.4572
   18CHTO   O25 7511   4.815   8.029   1.617  0.2422 -0.0578  0.1901
   18CHTO   H40 7512   4.807   8.003   1.528 -0.5717  2.1532 -0.4317
   18CHTO   O15 7513   4.907   8.279   1.169 -0.1167 -0.1644  0.5904
   18CHTO   C19 7514   4.912   8.195   1.051 -0.2070  0.1732  0.3446
   18CHTO   H47 7515   4.850   8.107   1.070  0.6667 -0.5481 -0.0978
   18CHTO   C20 7516   4.853   8.259   0.923 -0.4145 -0.8055  0.0818
   18CHTO   H48 7517   4.899   8.358   0.904  0.3261 -1.3927 -1.3113
   18CHTO   O19 7518   4.713   8.270   0.943  0.3943 -0.5459 -0.6222
   18CHTO   H35 7519   4.680   8.317   0.869  0.7440  1.0778  0.2177
   18CHTO   C21 7520   4.877   8.163   0.790  0.2427 -0.6670  0.0306
   18CHTO   H49 7521   4.806   8.080   0.790  0.1010 -0.5599 -2.0626
   18CHTO    N4 7522   4.843   8.238   0.666 -0.4994  0.0458  0.1997
   18CHTO   H41 7523   4.739   8.266   0.672 -1.1183 -1.9705 -0.8598
   18CHTO   H42 7524   4.858   8.176   0.578  1.6268  0.7031  0.0742
   18CHTO   C22 7525   5.019   8.111   0.793 -0.2304 -0.2704 -0.6763
   18CHTO   H50 7526   5.081   8.200   0.790  0.5753 -0.7995  0.0913
   18CHTO   O14 7527   5.034   8.047   0.913  0.5939 -0.3501  0.8588
   18CHTO   C23 7528   5.050   8.140   1.022  0.1292  0.8899  0.6427
   18CHTO   H51 7529   5.122   8.220   0.998  0.3479  0.1657 -1.2465
   18CHTO   C34 7530   5.108   8.067   1.145 -0.4377  0.3830  0.3345
   18CHTO   O23 7531   5.249   8.027   1.144  0.6041 -0.0497  0.1607
   18CHTO   H38 7532   5.257   7.942   1.107 -0.4416 -0.2044  0.2827
   18CHTO   O16 7533   5.060   8.019   0.691  0.2939  0.5601 -0.2318
   18CHTO   C24 7534   5.191   8.049   0.617  0.0649 -0.0377 -0.2924
   18CHTO   H52 7535   5.222   8.151   0.640 -2.7316  1.0266 -1.0144
   18CHTO   C26 7536   5.170   8.032   0.467 -0.1645  0.3025 -0.5018
   18CHTO   H54 7537   5.114   7.936   0.458  2.7251 -1.5022  0.2899
   18CHTO   O20 7538   5.083   8.132   0.422  0.3403 -1.1999  0.4073
   18CHTO   H36 7539   5.003   8.098   0.388 -0.6891  1.4856 -0.0098
   18CHTO   C30 7540   5.304   8.020   0.387 -0.2887 -0.5064  0.0425
   18CHTO   H58 7541   5.355   8.116   0.375  0.1723 -0.5440  1.6089
   18CHTO    N6 7542   5.269   7.983   0.244  0.2372  0.4310  0.7270
   18CHTO   H45 7543   5.231   7.884   0.226 -0.1943  0.2668  2.4452
   18CHTO   H46 7544   5.365   7.988   0.194  0.4857 -0.0208  1.1513
   18CHTO   C33 7545   5.407   7.918   0.449 -0.4220 -0.3402 -0.0570
   18CHTO   H61 7546   5.364   7.817   0.442 -1.5062  0.1749 -1.0067
   18CHTO   O18 7547   5.426   7.954   0.590  0.0466 -0.1066  0.3470
   18CHTO   C28 7548   5.302   7.948   0.669 -0.2969 -0.3337  0.5534
   18CHTO   H56 7549   5.257   7.849   0.675 -1.0245 -0.0866 -0.6270
   18CHTO   C35 7550   5.340   7.987   0.812 -0.7534  0.0480  0.0263
   18CHTO   O24 7551   5.424   7.886   0.868  0.3545 -0.1316 -0.0791
   18CHTO   H39 7552   5.510   7.903   0.835  1.1723 -0.5750  1.7115
   18CHTO    O9 7553   5.532   7.912   0.385 -0.2091  0.1696  0.0615
   18CHTO   C13 7554   5.641   7.813   0.458  0.8988 -0.2322  0.1928
   18CHTO   H26 7555   5.591   7.729   0.513  0.3510 -1.1485 -1.6765
   18CHTO   C11 7556   5.746   7.899   0.555  0.8639  0.1803  0.2138
   18CHTO   H24 7557   5.694   7.940   0.643  1.7669 -1.3550  1.4801
   18CHTO    O8 7558   5.802   8.009   0.483  0.3311  0.5269 -1.0824
   18CHTO    H3 7559   5.861   7.971   0.421  0.8341  0.8631 -0.8207
   18CHTO    C9 7560   5.844   7.786   0.613  0.2770 -0.8524  0.1188
   18CHTO   H22 7561   5.786   7.709   0.666  0.6519 -0.1738  1.5382
   18CHTO    N2 7562   5.928   7.839   0.719  0.9036  0.4986  0.0867
   18CHTO   H10 7563   5.974   7.763   0.780  1.0460  0.0410 -0.5907
   18CHTO   H11 7564   5.866   7.897   0.786  2.0855 -1.2434  2.7789
   18CHTO    C7 7565   5.923   7.726   0.493  0.7998 -0.1641  0.6423
   18CHTO   H20 7566   5.993   7.654   0.540  0.7438 -0.9546 -0.4603
   18CHTO    O4 7567   5.838   7.660   0.400  0.6587 -0.1872  0.0183
   18CHTO   C14 7568   5.726   7.735   0.349 -0.1900 -0.9996  0.6553
   18CHTO   H27 7569   5.666   7.654   0.303 -0.1025  0.1904 -1.6419
   18CHTO   C18 7570   5.773   7.825   0.222  0.2685 -0.3035  0.2230
   18CHTO   O13 7571   5.826   7.732   0.126  0.1900  0.5101  0.0297
   18CHTO    H7 7572   5.822   7.769   0.040  1.1504 -1.0677 -0.7130
   18CHTO    O2 7573   6.023   7.828   0.415  0.1358 -0.7901  0.6921
   18CHTO    C1 7574   6.161   7.791   0.408  0.0541 -0.5076  0.1456
   18CHTO   H14 7575   6.209   7.855   0.331  0.4201  0.4324  1.1495
   18CHTO    C2 7576   6.183   7.636   0.357  0.3788  0.0469 -0.2320
   18CHTO   H15 7577   6.134   7.565   0.424  0.4322 -0.8371 -1.1232
   18CHTO    O6 7578   6.117   7.619   0.228 -0.7559  0.3142  0.4934
   18CHTO    H1 7579   6.179   7.629   0.159  0.9306 -0.6530  1.8495
   18CHTO    C3 7580   6.342   7.598   0.359  0.0399 -0.0532  0.3767
   18CHTO   H16 7581   6.399   7.665   0.293  0.5923  0.3499  1.2532
   18CHTO    N1 7582   6.378   7.456   0.315  0.2628 -0.8326  0.5890
   18CHTO    H8 7583   6.315   7.428   0.232 -0.2867 -0.6848  0.9513
   18CHTO    H9 7584   6.486   7.448   0.308  0.4594  2.0796 -0.2719
   18CHTO    C4 7585   6.398   7.630   0.501  0.0671 -0.3092 -0.2599
   18CHTO   H17 7586   6.344   7.573   0.577  0.4261 -0.8212 -0.3859
   18CHTO    O1 7587   6.380   7.771   0.532  0.7734  0.4931 -0.0844
   18CHTO    C5 7588   6.242   7.813   0.541  0.4276 -0.8451 -0.0249
   18CHTO   H18 7589   6.202   7.756   0.625  1.9660 -0.3602  1.0525
   18CHTO   C16 7590   6.243   7.963   0.575  0.2098  0.3015 -1.2605
   18CHTO   O11 7591   6.305   7.979   0.705 -0.0723  0.0299 -0.2859
   18CHTO    H5 7592   6.248   7.944   0.771  0.2349 -2.2710 -1.1895
   18CHTO    O3 7593   6.545   7.598   0.505  0.2305 -0.1546 -0.1474
   18CHTO    C6 7594   6.605   7.601   0.641  0.6041 -0.1950 -0.7330
   18CHTO   H19 7595   6.533   7.639   0.714 -0.1677  1.4357 -2.3007
   18CHTO    C8 7596   6.648   7.463   0.692  0.4942 -0.2359  0.4826
   18CHTO   H21 7597   6.719   7.422   0.620 -0.4679 -0.9061 -0.1051
   18CHTO    O7 7598   6.529   7.378   0.690  0.1863 -0.3669 -0.1429
   18CHTO    H2 7599   6.506   7.339   0.772 -4.4605  1.1573 -0.5746
   18CHTO   C12 7600   6.710   7.475   0.837  0.2131 -0.8102  0.1944
   18CHTO   H25 7601   6.626   7.507   0.901  0.0010 -1.9563  0.5041
   18CHTO    N3 7602   6.759   7.341   0.894  0.8430  0.0437  0.6269
   18CHTO   H12 7603   6.766   7.261   0.822  1.2684  1.4419 -0.9426
   18CHTO   H13 7604   6.691   7.308   0.970  0.8554 -0.3205  0.4799
   18CHTO   C15 7605   6.822   7.580   0.836 -0.2251 -0.5230 -1.0532
   18CHTO   H28 7606   6.907   7.551   0.774 -1.3090 -0.8294 -2.4102
   18CHTO   O10 7607   6.872   7.611   0.989  0.0389  0.2859  0.6377
   18CHTO    H4 7608   6.826   7.556   1.050  0.1571 -2.4930 -1.6690
   18CHTO    O5 7609   6.770   7.703   0.787  0.7106  0.5169 -0.3208
   18CHTO   C10 7610   6.732   7.695   0.648  0.0479 -0.7302 -1.0211
   18CHTO   H23 7611   6.813   7.655   0.587  0.5237 -1.0509 -0.1880
   18CHTO   C17 7612   6.718   7.840   0.594 -0.1841 -0.4423 -0.0603
   18CHTO   O12 7613   6.619   7.919   0.664 -0.7193 -0.1337 -0.0231
   18CHTO    H6 7614   6.552   7.855   0.677 -1.1332  0.3815  0.3711
   19CHTO  H203 7615   5.125   9.483   2.404 -1.9085  0.2180 -1.3745
   19CHTO   O82 7616   5.180   9.425   2.355 -0.2540  0.2395  0.3590
   19CHTO  C123 7617   5.127   9.291   2.345 -0.2413  0.1329  0.0087
   19CHTO  H227 7618   5.032   9.301   2.291 -0.1530  0.2498 -0.1263
   19CHTO   O77 7619   5.224   9.228   2.259 -0.3013 -0.0645  0.6135
   19CHTO  C118 7620   5.192   9.088   2.243  0.2827  0.3876  0.7197
   19CHTO  H222 7621   5.088   9.078   2.209  0.7381  1.2861 -0.9987
   19CHTO  C125 7622   5.277   9.031   2.132 -0.4382  0.6699  0.6193
   19CHTO   O84 7623   5.234   9.067   2.003  0.1949  0.2912 -0.1618
   19CHTO  H205 7624   5.271   9.152   1.992  0.9928 -0.1697 -1.1867
   19CHTO  C114 7625   5.212   9.018   2.381 -0.2484  0.0496  0.2391
   19CHTO  H218 7626   5.314   9.042   2.411 -0.6163  1.5351  0.3778
   19CHTO  C116 7627   5.104   9.072   2.480 -0.4020 -0.6163 -0.9793
   19CHTO  H220 7628   5.005   9.053   2.433  0.0075 -0.1674 -2.0254
   19CHTO   O79 7629   5.099   9.001   2.607 -0.2745 -0.1548  0.2348
   19CHTO  H201 7630   5.024   9.020   2.659  0.6437 -1.1866  2.0019
   19CHTO  C120 7631   5.114   9.229   2.489 -0.4818 -0.2613 -0.0194
   19CHTO  H224 7632   5.205   9.249   2.550  1.8471 -1.5105 -2.9852
   19CHTO   N21 7633   5.003   9.289   2.568 -0.9108  0.3864 -0.1536
   19CHTO  H211 7634   5.032   9.285   2.672 -0.3995 -0.1467 -0.3076
   19CHTO  H212 7635   4.919   9.223   2.552 -0.7128  0.3388 -1.0468
   19CHTO   O75 7636   5.192   8.883   2.343  0.2216 -0.4546 -0.3439
   19CHTO  C112 7637   5.296   8.782   2.418 -0.1798  0.8119 -0.1659
   19CHTO  H216 7638   5.302   8.800   2.526 -1.8237 -0.2699  0.1275
   19CHTO   O73 7639   5.421   8.794   2.350 -0.3558  0.2919  0.5713
   19CHTO  C113 7640   5.519   8.703   2.391 -0.8028  0.0001  0.7331
   19CHTO  H217 7641   5.548   8.719   2.497 -0.6590 -3.1322  1.2160
   19CHTO  C124 7642   5.647   8.735   2.308  0.2817  0.2240 -0.2737
   19CHTO   O83 7643   5.763   8.657   2.352 -0.1922  0.4798 -0.1732
   19CHTO  H204 7644   5.744   8.568   2.333 -0.1490  0.4839 -0.2345
   19CHTO  C109 7645   5.470   8.553   2.362  0.0992 -0.2268  0.4329
   19CHTO  H213 7646   5.446   8.550   2.255 -1.1814 -1.9175  0.7526
   19CHTO  C110 7647   5.348   8.529   2.454 -0.3606 -0.6063  0.0380
   19CHTO  H214 7648   5.384   8.538   2.557 -0.0818  1.5270 -0.2201
   19CHTO   O78 7649   5.301   8.398   2.428  0.7916 -0.0734 -0.0566
   19CHTO  H200 7650   5.369   8.334   2.440 -0.3732 -1.1589  1.0146
   19CHTO  C111 7651   5.239   8.631   2.409 -0.1551  0.4819  0.8208
   19CHTO  H215 7652   5.220   8.602   2.305 -0.9052 -2.0437  1.6436
   19CHTO   N19 7653   5.111   8.615   2.481 -0.2526  0.0044  0.1599
   19CHTO  H207 7654   5.047   8.694   2.445 -0.9749 -1.2451 -1.3475
   19CHTO  H208 7655   5.106   8.657   2.580  0.5522 -3.2589  1.6671
   19CHTO   O74 7656   5.572   8.458   2.391  0.1553  0.0596 -0.3592
   19CHTO  C115 7657   5.559   8.330   2.300  0.6465 -0.5975  0.3393
   19CHTO  H219 7658   5.460   8.285   2.305  0.1368  0.6832  2.9192
   19CHTO   O76 7659   5.589   8.371   2.138 -0.0756 -0.1070 -0.2918
   19CHTO  C122 7660   5.733   8.398   2.124 -0.1466 -0.0881  0.3930
   19CHTO  H226 7661   5.765   8.468   2.201 -1.4159  0.9201  0.0213
   19CHTO  C126 7662   5.756   8.473   1.990  0.1735  0.8788  0.5327
   19CHTO   O85 7663   5.701   8.604   1.995 -0.3120  0.3547  0.2338
   19CHTO  H206 7664   5.735   8.651   2.069 -0.8494  1.7175 -0.3762
   19CHTO  C121 7665   5.826   8.271   2.147  0.1073 -0.0967  0.1991
   19CHTO  H225 7666   5.849   8.232   2.045 -0.0029 -1.4195  0.6649
   19CHTO   O81 7667   5.949   8.307   2.200 -0.4092 -0.3824  0.0357
   19CHTO  H202 7668   6.004   8.233   2.183 -2.3908 -1.7201 -0.7387
   19CHTO  C119 7669   5.748   8.159   2.232  0.2075 -0.3319  0.0085
   19CHTO  H223 7670   5.670   8.119   2.167 -0.2501  0.4683  0.0619
   19CHTO  C117 7671   5.666   8.227   2.353 -0.1410  0.6789 -0.3337
   19CHTO  H221 7672   5.740   8.278   2.416  0.0488 -0.9696  0.8004
   19CHTO   N20 7673   5.603   8.125   2.438 -0.0589  0.1038  0.2773
   19CHTO  H209 7674   5.548   8.161   2.524 -1.1695  0.9992 -0.7854
   19CHTO  H210 7675   5.674   8.051   2.471  3.1029  3.0342  0.2949
   19CHTO   O80 7676   5.837   8.021   2.258 -0.2445 -0.1147 -0.1739
   19CHTO  C103 7677   5.876   7.928   2.137  0.1465  0.5267  0.6308
   19CHTO  H190 7678   5.826   7.962   2.046 -2.3678 -1.5558  1.2053
   19CHTO  C101 7679   6.028   7.909   2.115  0.0628 -0.6927 -0.1341
   19CHTO  H188 7680   6.063   7.849   2.199 -0.0464 -1.7818 -0.8499
   19CHTO   O68 7681   6.099   8.052   2.110  0.1573 -0.0669 -0.3543
   19CHTO  H168 7682   6.192   8.041   2.117  0.3526  0.8649 -1.3700
   19CHTO   C99 7683   6.044   7.814   1.985 -0.4150 -0.4617 -0.3387
   19CHTO  H186 7684   6.006   7.862   1.892 -1.2397  1.0723  0.7710
   19CHTO   N17 7685   6.187   7.774   1.955 -0.1145  0.1678  0.7340
   19CHTO  H174 7686   6.245   7.865   1.952 -0.0097  0.1074  0.9177
   19CHTO  H175 7687   6.224   7.706   2.030  1.1057 -0.6633 -0.5939
   19CHTO   C97 7688   5.961   7.681   2.001  0.6225  0.0569  0.0183
   19CHTO  H184 7689   6.007   7.604   2.066  1.8249  0.1924 -0.6641
   19CHTO   O64 7690   5.823   7.713   2.042 -0.3847 -0.0318 -0.1895
   19CHTO  C104 7691   5.815   7.784   2.166 -0.3302  0.0097 -0.3950
   19CHTO  H191 7692   5.871   7.730   2.242 -0.9725  1.1385  0.8977
   19CHTO  C108 7693   5.671   7.789   2.218 -0.0858 -0.0214 -0.3595
   19CHTO   O71 7694   5.631   7.654   2.258 -0.4485 -0.5471 -0.3447
   19CHTO  H171 7695   5.700   7.602   2.293 -1.3033 -1.4347  0.0377
   19CHTO   O62 7696   5.943   7.628   1.868  0.2338  0.5134 -0.4156
   19CHTO   C91 7697   5.865   7.508   1.834 -0.4999  0.0710 -0.6187
   19CHTO  H178 7698   5.863   7.451   1.927  0.7479 -1.5513 -1.5482
   19CHTO   C92 7699   5.953   7.424   1.740  0.1015  0.4655 -0.5265
   19CHTO  H179 7700   5.986   7.489   1.658  2.0753  0.7911  0.4913
   19CHTO   O66 7701   6.061   7.386   1.817  0.3160  0.0873  0.0378
   19CHTO  H166 7702   6.142   7.384   1.770  0.9518  0.4975  1.0956
   19CHTO   C93 7703   5.881   7.291   1.691  0.2918 -1.1739 -0.5527
   19CHTO  H180 7704   5.879   7.224   1.778 -1.0884 -1.1606 -0.5575
   19CHTO   N16 7705   5.954   7.217   1.592  0.2905  0.2787  0.1438
   19CHTO  H172 7706   5.989   7.280   1.512 -1.4647 -0.8026 -1.5345
   19CHTO  H173 7707   5.903   7.128   1.556 -0.0945  0.8708 -0.7922
   19CHTO   C94 7708   5.736   7.315   1.644 -0.1335  0.3056 -0.8550
   19CHTO  H181 7709   5.732   7.349   1.540 -0.2022  0.2883 -0.8579
   19CHTO   O61 7710   5.670   7.411   1.726 -0.0022  0.7426 -0.0169
   19CHTO   C95 7711   5.725   7.532   1.766  0.3521  0.5776  0.6478
   19CHTO  H182 7712   5.741   7.600   1.683 -0.0223  2.0682  1.7729
   19CHTO  C106 7713   5.623   7.594   1.867  0.6117  0.3501  0.5608
   19CHTO   O69 7714   5.507   7.622   1.786 -0.0076 -0.2283 -0.2732
   19CHTO  H169 7715   5.448   7.677   1.836  2.0199  0.0121  1.9122
   19CHTO   O63 7716   5.647   7.177   1.668 -0.2611 -0.0105  0.4930
   19CHTO   C96 7717   5.496   7.183   1.593 -0.1187  0.4046 -0.3834
   19CHTO  H183 7718   5.509   7.203   1.486 -2.3305  1.1991 -0.5330
   19CHTO   C98 7719   5.400   7.298   1.641 -0.2502  0.0522 -0.1612
   19CHTO  H185 7720   5.418   7.313   1.749  2.2079 -0.6498 -0.4408
   19CHTO   O67 7721   5.453   7.420   1.587 -0.2176  0.5232  0.3352
   19CHTO  H167 7722   5.452   7.414   1.494 -1.7471 -0.8036  0.4263
   19CHTO  C102 7723   5.237   7.268   1.613 -0.0025  0.0144 -0.2688
   19CHTO  H189 7724   5.216   7.287   1.506 -1.6231 -1.3114 -0.2146
   19CHTO   N18 7725   5.155   7.368   1.686  0.1108 -0.3189  0.0125
   19CHTO  H176 7726   5.047   7.365   1.675 -0.0349  1.8137  0.6120
   19CHTO  H177 7727   5.181   7.463   1.643 -0.5673  0.5521  1.4963
   19CHTO  C105 7728   5.206   7.121   1.653  0.4117 -0.4677 -0.4504
   19CHTO  H192 7729   5.216   7.108   1.761  1.4396 -0.7515 -0.5757
   19CHTO   O65 7730   5.293   7.026   1.588 -0.0224  0.5337 -0.4739
   19CHTO  C100 7731   5.440   7.037   1.618  0.0006  0.0392 -0.3075
   19CHTO  H187 7732   5.451   7.014   1.725 -2.5502 -1.0621 -0.2284
   19CHTO  C107 7733   5.519   6.928   1.539 -0.3073  0.1933 -0.3626
   19CHTO   O70 7734   5.449   6.809   1.561 -0.0233 -0.4897 -0.2268
   19CHTO  H170 7735   5.475   6.740   1.502  0.4915 -1.1494  0.7394
   19CHTO   O57 7736   5.047   7.091   1.594 -0.5478 -0.3591 -0.0401
   19CHTO   C85 7737   4.963   6.989   1.650  1.1168  0.2826  0.0450
   19CHTO  H157 7738   5.018   6.942   1.734 -1.2123  1.1606  2.1432
   19CHTO   C83 7739   4.929   6.894   1.531  0.7643 -0.6140  0.2010
   19CHTO  H155 7740   5.021   6.851   1.493 -0.0351 -2.4670  0.2933
   19CHTO   O56 7741   4.878   6.971   1.423  0.0059  0.8502 -0.5155
   19CHTO  H135 7742   4.801   7.018   1.450  0.2960  0.2057  1.5124
   19CHTO   C81 7743   4.836   6.779   1.583  0.0348  0.0058 -0.5489
   19CHTO  H153 7744   4.883   6.725   1.665 -1.0660  0.1197  0.1604
   19CHTO   N14 7745   4.828   6.673   1.479  0.3465  0.3004 -0.2372
   19CHTO  H141 7746   4.925   6.664   1.436  0.1012  1.7387 -1.1329
   19CHTO  H142 7747   4.763   6.702   1.399  0.0753  0.6370  0.1039
   19CHTO   C79 7748   4.705   6.839   1.638 -0.0404 -0.1443 -0.9304
   19CHTO  H151 7749   4.652   6.762   1.693  1.1066 -0.2592  0.0244
   19CHTO   O52 7750   4.737   6.935   1.747  0.0584 -0.0751 -0.1143
   19CHTO   C86 7751   4.823   7.044   1.702 -0.9600  0.1950  0.1132
   19CHTO  H158 7752   4.763   7.098   1.625  2.0377  1.5928 -1.3310
   19CHTO   C90 7753   4.842   7.146   1.821 -0.0352  0.2368 -0.6260
   19CHTO   O60 7754   4.743   7.245   1.826  0.2731 -0.0039 -0.5855
   19CHTO  H138 7755   4.658   7.215   1.853  1.5394  0.1757  4.1136
   19CHTO   O50 7756   4.619   6.889   1.533  0.0315  0.0518  0.4915
   19CHTO   C73 7757   4.487   6.915   1.493  0.1442 -0.1400 -0.1398
   19CHTO  H145 7758   4.423   6.825   1.492 -0.9723  0.6563 -1.8695
   19CHTO   C74 7759   4.493   6.983   1.345 -0.4953  0.2245 -0.0468
   19CHTO  H146 7760   4.551   6.910   1.287  0.3825  0.2408  0.8069
   19CHTO   O54 7761   4.364   6.991   1.290 -0.0392 -0.0540 -0.3551
   19CHTO  H133 7762   4.341   6.911   1.245 -1.2253  0.7930 -1.3159
   19CHTO   C75 7763   4.560   7.130   1.345  0.1278  0.4208  0.5095
   19CHTO  H147 7764   4.663   7.122   1.383 -0.4275 -2.3822  1.5370
   19CHTO   N13 7765   4.577   7.198   1.213 -0.0624  0.8476 -0.1306
   19CHTO  H139 7766   4.538   7.299   1.202  0.0640  0.6961 -2.1267
   19CHTO  H140 7767   4.533   7.145   1.130  0.3181  0.7033 -0.2387
   19CHTO   C76 7768   4.495   7.218   1.460 -0.1579 -0.5666  0.3310
   19CHTO  H148 7769   4.391   7.239   1.434  0.2878  0.0187 -1.0335
   19CHTO   O49 7770   4.494   7.141   1.585 -0.0988  0.0418 -0.5865
   19CHTO   C77 7771   4.414   7.021   1.593 -0.3205 -0.1671 -0.9435
   19CHTO  H149 7772   4.316   7.042   1.552  0.4184 -0.0341 -2.6799
   19CHTO   C88 7773   4.410   6.980   1.740  0.2238 -0.5107  0.1909
   19CHTO   O58 7774   4.319   6.883   1.766 -0.0639  0.1703 -0.1244
   19CHTO  H136 7775   4.316   6.866   1.858  1.1354 -0.3708 -0.1690
   19CHTO   O51 7776   4.580   7.352   1.486 -0.0664 -0.0693  0.1063
   19CHTO   C78 7777   4.492   7.501   1.456 -0.2063  0.6091 -0.0796
   19CHTO  H150 7778   4.414   7.487   1.377  0.4642 -0.9093 -0.4805
   19CHTO   C80 7779   4.601   7.608   1.413  0.0623  0.2025  0.1792
   19CHTO  H152 7780   4.693   7.599   1.474 -0.3861  1.1426  1.0158
   19CHTO   O55 7781   4.654   7.568   1.289 -0.2006  0.4801  0.2380
   19CHTO  H134 7782   4.728   7.622   1.270 -0.6064  0.8308 -0.3843
   19CHTO   C84 7783   4.553   7.763   1.412  0.0692  0.0548  0.3904
   19CHTO  H156 7784   4.473   7.777   1.339  1.0506 -1.3511 -0.9869
   19CHTO   N15 7785   4.649   7.867   1.371  0.5371  0.4259 -1.0032
   19CHTO  H143 7786   4.745   7.865   1.419 -0.0792  1.4715  0.2988
   19CHTO  H144 7787   4.615   7.968   1.366 -1.0926 -0.0379  0.3487
   19CHTO   C87 7788   4.484   7.802   1.546 -0.4729  0.0749 -0.1219
   19CHTO  H159 7789   4.560   7.792   1.623 -0.8343  3.5873  0.7526
   19CHTO   O53 7790   4.368   7.687   1.560  0.4231  0.5547  0.5424
   19CHTO   C82 7791   4.422   7.556   1.579  0.0472 -0.1915  0.5054
   19CHTO  H154 7792   4.493   7.561   1.661  0.3048  1.7204  0.1808
   19CHTO   C89 7793   4.308   7.462   1.628  0.6728  0.0428  0.5007
   19CHTO   O59 7794   4.361   7.370   1.720  0.3798 -0.5762  0.0550
   19CHTO  H137 7795   4.392   7.290   1.681 -0.5998 -1.4648  1.0297
   19CHTO   O45 7796   4.422   7.951   1.548 -0.4993 -0.0313 -0.4854
   19CHTO   C67 7797   4.367   7.982   1.675 -0.5902 -0.2475 -1.1386
   19CHTO  H124 7798   4.328   7.892   1.723  1.9953 -0.1961  1.2258
   19CHTO   C65 7799   4.477   8.054   1.768  0.6852  0.2226 -0.0231
   19CHTO  H122 7800   4.551   8.099   1.702 -0.4273  0.0503 -1.4364
   19CHTO   O44 7801   4.543   7.953   1.844 -0.3297 -0.1964 -0.0444
   19CHTO  H102 7802   4.483   7.904   1.897  0.3418  0.7280  1.6128
   19CHTO   C63 7803   4.410   8.177   1.836  0.1439  0.0267 -0.0568
   19CHTO  H120 7804   4.394   8.255   1.762  1.4337 -0.5337 -0.9474
   19CHTO   N11 7805   4.493   8.248   1.931 -0.1703  0.3385  0.1974
   19CHTO  H108 7806   4.585   8.195   1.943 -0.7745 -0.3185  2.1568
   19CHTO  H109 7807   4.503   8.351   1.904 -1.1625  0.4066  0.0818
   19CHTO   C61 7808   4.269   8.136   1.898 -0.0816 -0.3982  0.8601
   19CHTO  H118 7809   4.234   8.233   1.938  3.0186  0.7993  0.8222
   19CHTO   O40 7810   4.179   8.108   1.795  0.7579  0.1309 -0.1057
   19CHTO   C68 7811   4.234   8.077   1.663 -0.8616  0.9772  0.7044
   19CHTO  H125 7812   4.269   8.166   1.606  1.2903 -1.0656 -1.3139
   19CHTO   C72 7813   4.126   8.012   1.576  0.0787 -0.0507 -0.4437
   19CHTO   O48 7814   4.040   8.106   1.507 -0.1357 -0.1647  0.1249
   19CHTO  H105 7815   3.983   8.148   1.569  0.5770  0.2147  0.5284
   19CHTO   O38 7816   4.280   8.047   2.009 -0.2420  0.1648 -0.1298
   19CHTO   C55 7817   4.171   7.953   2.041  0.2733  0.2993  0.1696
   19CHTO  H112 7818   4.102   7.936   1.957 -2.0063 -0.2519  2.1002
   19CHTO   C56 7819   4.098   8.008   2.157 -0.4398 -0.5363 -0.7030
   19CHTO  H113 7820   4.167   8.027   2.240 -0.3521  1.5616 -1.2520
   19CHTO   O42 7821   4.039   8.138   2.118 -0.7426  0.7302 -0.5023
   19CHTO  H100 7822   4.039   8.200   2.188  0.9082  1.9088 -1.5244
   19CHTO   C57 7823   3.985   7.915   2.211  0.8954 -0.3269 -0.9851
   19CHTO  H114 7824   3.918   7.905   2.126  0.2961  1.2116 -0.7113
   19CHTO   N10 7825   3.913   7.972   2.325 -0.1996 -0.0133 -0.9140
   19CHTO  H106 7826   3.809   7.946   2.331  0.5658 -2.7139  1.5499
   19CHTO  H107 7827   3.960   7.957   2.421 -1.1666 -1.5039 -0.6559
   19CHTO   C58 7828   4.045   7.777   2.246 -0.2716 -0.0607  0.7878
   19CHTO  H115 7829   4.109   7.791   2.335  1.5752 -1.1752 -0.3305
   19CHTO   O37 7830   4.125   7.730   2.136 -0.5083 -0.8164  0.0440
   19CHTO   C59 7831   4.228   7.814   2.079 -0.6741 -0.1040  0.4432
   19CHTO  H116 7832   4.314   7.817   2.146  0.2250 -1.2190 -0.6206
   19CHTO   C70 7833   4.292   7.741   1.956 -0.0098  0.0318 -0.6948
   19CHTO   O46 7834   4.195   7.672   1.881 -0.6605  0.3358 -0.1957
   19CHTO  H103 7835   4.218   7.676   1.790 -0.8702 -0.6968 -0.3004
   19CHTO   O39 7836   3.912   7.658   2.279  0.3848 -0.3011  0.2228
   19CHTO   C60 7837   3.891   7.566   2.163  0.1090 -0.1349  0.2518
   19CHTO  H117 7838   3.892   7.634   2.077 -0.6653  0.1144  0.4351
   19CHTO   C62 7839   3.990   7.451   2.154 -0.7367 -0.5329  0.4681
   19CHTO  H119 7840   4.090   7.493   2.134 -1.4108  0.3613 -1.0735
   19CHTO   O43 7841   3.991   7.391   2.285 -0.0182 -0.1529  0.2837
   19CHTO  H101 7842   4.064   7.333   2.293  0.5691  0.6021  0.3710
   19CHTO   C66 7843   3.954   7.345   2.037 -0.9474 -0.1455  0.1912
   19CHTO  H123 7844   3.964   7.406   1.947  0.4401  2.8006  2.2506
   19CHTO   N12 7845   4.049   7.233   2.032 -0.8009  0.4161  0.4453
   19CHTO  H110 7846   4.152   7.260   2.050 -0.5806 -1.0527  1.5403
   19CHTO  H111 7847   4.045   7.187   1.935  0.0709  1.6919 -0.2119
   19CHTO   C69 7848   3.804   7.300   2.043  0.2264  0.2058  0.2909
   19CHTO  H126 7849   3.780   7.240   2.133 -1.5881 -0.4663 -0.6368
   19CHTO   O41 7850   3.719   7.426   2.062  0.3602  0.1727 -0.5255
   19CHTO   C64 7851   3.740   7.512   2.174  0.2083 -0.8003 -0.4683
   19CHTO  H121 7852   3.733   7.454   2.268  1.7281  3.1151  2.1970
   19CHTO   C71 7853   3.629   7.610   2.174  0.2800  0.1815 -0.0486
   19CHTO   O47 7854   3.628   7.696   2.292 -0.0876  0.5207  0.0139
   19CHTO  H104 7855   3.568   7.665   2.357  0.6099 -2.7223 -0.7780
   19CHTO   O34 7856   3.755   7.225   1.921  0.6695  0.0423 -0.4651
   19CHTO   C49 7857   3.692   7.250   1.780  0.3981 -0.8351 -0.6638
   19CHTO   H91 7858   3.588   7.217   1.790 -0.0320  0.6846  0.1311
   19CHTO   C47 7859   3.758   7.153   1.683  0.2626  0.6662  0.0833
   19CHTO   H89 7860   3.713   7.162   1.582 -1.8553 -3.7196  0.5134
   19CHTO   O33 7861   3.739   7.016   1.724 -0.5266 -0.7283 -0.8868
   19CHTO   H70 7862   3.820   6.987   1.761  0.0298  1.6091 -0.1585
   19CHTO   C45 7863   3.915   7.196   1.670  0.7370 -0.3447  0.3450
   19CHTO   H87 7864   3.956   7.208   1.772  0.2254 -0.0491  0.5164
   19CHTO    N8 7865   4.006   7.099   1.589  0.1732 -0.4856 -0.5938
   19CHTO   H75 7866   3.971   7.106   1.487  1.0854 -0.5041 -0.9063
   19CHTO   H76 7867   4.103   7.145   1.592  0.1460 -0.4012 -1.0891
   19CHTO   C43 7868   3.919   7.352   1.610  0.1597  0.1518 -0.0841
   19CHTO   H85 7869   4.026   7.369   1.614  0.9231 -3.3725 -3.0734
   19CHTO   O29 7870   3.839   7.436   1.698  0.1933 -0.0745  0.3824
   19CHTO   C50 7871   3.708   7.396   1.741 -0.4897 -0.1119  0.2189
   19CHTO   H92 7872   3.686   7.469   1.820  1.0802  1.6671 -0.9520
   19CHTO   C54 7873   3.603   7.439   1.631 -0.4119 -0.2490 -0.4813
   19CHTO   O36 7874   3.468   7.433   1.690  0.2363 -0.6173 -0.8652
   19CHTO   H72 7875   3.416   7.508   1.667  2.2026  1.0882  0.1474
   19CHTO   O27 7876   3.896   7.364   1.467 -0.1869  0.6720  0.2067
   19CHTO   C37 7877   3.900   7.426   1.343  0.0441 -0.3421 -0.5386
   19CHTO   H79 7878   3.830   7.381   1.271 -0.7117  0.0186 -0.0301
   19CHTO   C38 7879   3.885   7.582   1.363 -0.3845 -0.4407 -0.0763
   19CHTO   H80 7880   3.943   7.612   1.451  0.2990  0.5049 -0.8374
   19CHTO   O31 7881   3.747   7.617   1.406  0.0829 -0.1466  0.5212
   19CHTO   H68 7882   3.693   7.542   1.417  0.8574 -0.8028 -0.0967
   19CHTO   C39 7883   3.939   7.666   1.238 -0.4366 -0.3184  0.1640
   19CHTO   H81 7884   3.878   7.646   1.149 -0.7997 -0.8630  0.5323
   19CHTO    N7 7885   3.942   7.816   1.266 -0.4034 -0.3148 -0.4350
   19CHTO   H73 7886   3.987   7.835   1.363 -1.9935  1.5287 -0.0215
   19CHTO   H74 7887   3.842   7.856   1.256 -0.0636  1.0979  1.4208
   19CHTO   C40 7888   4.083   7.615   1.201 -0.3387 -1.0429  0.2771
   19CHTO   H82 7889   4.133   7.629   1.297 -2.4427 -1.8106  1.5473
   19CHTO   O26 7890   4.067   7.476   1.169  0.1536 -0.1726 -0.2570
   19CHTO   C41 7891   4.045   7.394   1.283  0.4143 -0.1117 -0.4905
   19CHTO   H83 7892   4.116   7.413   1.364 -0.8244  0.4047  0.5025
   19CHTO   C52 7893   4.055   7.246   1.241  0.6900  0.3263  0.4507
   19CHTO   O35 7894   4.196   7.211   1.214  0.4095 -0.3539 -0.2593
   19CHTO   H71 7895   4.206   7.122   1.187 -1.4778 -0.4690 -0.6673
   19CHTO   O28 7896   4.140   7.686   1.084  0.4028 -0.3290 -0.0085
   19CHTO   C42 7897   4.281   7.732   1.054 -0.4939 -0.2265  1.1168
   19CHTO   H84 7898   4.333   7.752   1.148  1.3948  0.0043  0.0505
   19CHTO   C44 7899   4.289   7.866   0.971 -0.0960 -0.3971 -0.6020
   19CHTO   H86 7900   4.247   7.845   0.873 -0.6061 -0.9631 -0.2675
   19CHTO   O32 7901   4.208   7.959   1.044  0.0142  0.2520  0.4882
   19CHTO   H69 7902   4.207   7.936   1.135  0.8503 -2.9574 -0.2462
   19CHTO   C48 7903   4.435   7.923   0.947 -1.0028  1.1429  0.2226
   19CHTO   H90 7904   4.493   7.946   1.037  2.3795  0.7959 -1.7787
   19CHTO    N9 7905   4.434   8.053   0.872  0.9153  0.4440 -1.3171
   19CHTO   H77 7906   4.393   8.130   0.935 -0.3263 -1.4785  0.3180
   19CHTO   H78 7907   4.374   8.043   0.783 -0.1534  1.3697 -0.7134
   19CHTO   C51 7908   4.508   7.810   0.868  0.0696  0.1176  0.1603
   19CHTO   H93 7909   4.464   7.783   0.772  1.8530  1.8565 -1.1773
   19CHTO   O30 7910   4.516   7.695   0.957  0.0816  0.4648  0.3473
   19CHTO   C46 7911   4.373   7.629   0.977 -0.0706 -0.0603 -0.4564
   19CHTO   H88 7912   4.328   7.603   0.881  1.7623 -1.3459 -0.9927
   19CHTO   C53 7913   4.369   7.504   1.060  0.2721 -0.4745 -0.0836
   19CHTO   O72 7914   4.453   7.405   0.993  0.1215  0.2959 -0.5714
   19CHTO  H199 7915   4.525   7.380   1.046 -1.6134 -2.5344  0.6053
   19CHTO   O22 7916   4.647   7.849   0.843 -0.0759  0.0337 -0.2100
   19CHTO   C31 7917   4.730   7.768   0.762 -0.0761 -0.1024  0.2031
   19CHTO   H59 7918   4.691   7.664   0.769 -0.2281 -0.1611 -1.3229
   19CHTO   C29 7919   4.725   7.807   0.610  0.4378 -0.2457  0.0033
   19CHTO   H57 7920   4.755   7.911   0.590 -0.1364 -0.2404 -0.8490
   19CHTO   O21 7921   4.586   7.814   0.566 -0.2266 -0.3892  0.4013
   19CHTO   H37 7922   4.537   7.888   0.598  0.7093  0.4111  0.0053
   19CHTO   C27 7923   4.818   7.711   0.524  0.0457  0.9281 -0.0845
   19CHTO   H55 7924   4.778   7.608   0.529  0.4356  0.6558 -2.3495
   19CHTO    N5 7925   4.828   7.752   0.383  0.3678 -0.0684 -0.2403
   19CHTO   H43 7926   4.744   7.712   0.329  0.6311 -0.5829 -0.2705
   19CHTO   H44 7927   4.840   7.859   0.387  1.2195 -0.1063 -1.3670
   19CHTO   C25 7928   4.962   7.700   0.593  0.0894 -0.2020 -0.4377
   19CHTO   H53 7929   5.021   7.788   0.566  1.8792 -0.8472  1.2751
   19CHTO   O17 7930   4.945   7.674   0.739  0.5098 -0.2908  0.3290
   19CHTO   C32 7931   4.871   7.770   0.815 -0.2908  0.4960  0.4609
   19CHTO   H60 7932   4.916   7.865   0.785  0.4784 -0.7751 -2.6068
   19CHTO   C36 7933   4.900   7.754   0.965  0.2037  0.6450  0.0401
   19CHTO   O25 7934   5.038   7.774   0.999  0.5249 -0.4680 -0.0088
   19CHTO   H40 7935   5.080   7.712   1.055  0.2015 -0.2017  0.5421
   19CHTO   O15 7936   5.044   7.588   0.542 -0.3762  0.1508  0.5897
   19CHTO   C19 7937   5.131   7.492   0.485  0.1008 -0.0245 -0.4918
   19CHTO   H47 7938   5.054   7.459   0.414 -1.3497 -0.7353  1.3547
   19CHTO   C20 7939   5.256   7.541   0.410 -0.7795 -0.5840 -0.7997
   19CHTO   H48 7940   5.332   7.576   0.481 -1.8242  0.0682  0.0170
   19CHTO   O19 7941   5.226   7.636   0.304  0.2280  0.0768 -0.0838
   19CHTO   H35 7942   5.189   7.603   0.224 -1.0181  0.9822  0.1083
   19CHTO   C21 7943   5.328   7.414   0.345  0.0891  0.4607  0.1540
   19CHTO   H49 7944   5.282   7.397   0.248  1.2421 -3.1567  0.1768
   19CHTO    N4 7945   5.466   7.440   0.304  0.7551  0.1404  0.2947
   19CHTO   H41 7946   5.523   7.349   0.310  2.3295  1.0917 -0.0803
   19CHTO   H42 7947   5.461   7.477   0.203 -0.7894  0.2747  0.4063
   19CHTO   C22 7948   5.314   7.281   0.416  0.8071  0.3472 -0.1244
   19CHTO   H50 7949   5.398   7.273   0.485 -0.0112  3.2357  1.2805
   19CHTO   O14 7950   5.195   7.260   0.490  0.4124 -0.7348 -0.1091
   19CHTO   C23 7951   5.163   7.365   0.580  1.0290 -0.2741  0.1433
   19CHTO   H51 7952   5.240   7.382   0.656 -1.5406 -0.7848  2.9266
   19CHTO   C34 7953   5.033   7.320   0.647  1.6436  0.0977  0.5211
   19CHTO   O23 7954   5.003   7.401   0.759  0.0513  0.1356  0.1721
   19CHTO   H38 7955   4.958   7.354   0.826 -0.5859  0.0619 -0.3042
   19CHTO   O16 7956   5.302   7.170   0.325  0.2567 -0.1900 -0.4303
   19CHTO   C24 7957   5.408   7.073   0.315  0.4630 -0.3006 -0.6364
   19CHTO   H52 7958   5.500   7.098   0.368  0.4125 -0.1268 -0.6334
   19CHTO   C26 7959   5.440   7.063   0.164 -0.3029 -0.1975 -0.1908
   19CHTO   H54 7960   5.346   7.077   0.105 -0.1878  1.1614 -0.0442
   19CHTO   O20 7961   5.529   7.175   0.138 -0.0729  0.0363 -0.2201
   19CHTO   H36 7962   5.604   7.162   0.193 -1.8928 -1.0704  2.1200
   19CHTO   C30 7963   5.509   6.925   0.121 -0.1169 -0.7653 -0.1904
   19CHTO   H58 7964   5.611   6.930   0.162 -0.2548  1.4920 -0.0420
   19CHTO    N6 7965   5.510   6.905  -0.030  0.1782 -0.0793 -0.3462
   19CHTO   H45 7966   5.585   6.965  -0.080  0.4361 -1.5890 -1.7999
   19CHTO   H46 7967   5.412   6.930  -0.070 -0.7738 -1.7003  0.9374
   19CHTO   C33 7968   5.428   6.814   0.188  0.1508  0.1565  0.5768
   19CHTO   H61 7969   5.320   6.822   0.167  0.4629 -1.6340 -1.9608
   19CHTO   O18 7970   5.451   6.831   0.322  0.4942  0.0313  0.1304
   19CHTO   C28 7971   5.361   6.933   0.371  1.0258 -0.3907 -0.2135
   19CHTO   H56 7972   5.260   6.906   0.339  1.1656 -0.1413 -0.8689
   19CHTO   C35 7973   5.367   6.923   0.529 -0.4623 -0.1872  0.0552
   19CHTO   O24 7974   5.250   6.975   0.603 -0.0806  0.5127  0.5297
   19CHTO   H39 7975   5.270   6.976   0.695 -0.6371 -2.0837  0.7128
   19CHTO    O9 7976   5.458   6.677   0.154  0.1998 -0.7465  0.4980
   19CHTO   C13 7977   5.320   6.584   0.127 -0.5376  0.1115 -0.1675
   19CHTO   H26 7978   5.271   6.631   0.039 -1.5457  0.9671  0.8436
   19CHTO   C11 7979   5.222   6.571   0.248  0.3365  0.6176 -0.0427
   19CHTO   H24 7980   5.167   6.665   0.261 -1.8769 -0.4762 -1.2116
   19CHTO    O8 7981   5.289   6.534   0.371 -0.1518  0.0141 -0.3052
   19CHTO    H3 7982   5.232   6.549   0.444  0.5677  1.6583 -0.0467
   19CHTO    C9 7983   5.108   6.478   0.197 -0.1369 -0.1016  0.5093
   19CHTO   H22 7984   5.068   6.537   0.113 -0.4263 -1.1037 -0.0586
   19CHTO    N2 7985   4.992   6.448   0.285 -0.3880  0.0943 -0.4233
   19CHTO   H10 7986   5.003   6.477   0.389 -0.5921  0.4718 -0.5103
   19CHTO   H11 7987   4.941   6.353   0.276 -0.8879  0.1778  1.3145
   19CHTO    C7 7988   5.159   6.341   0.136  0.0309 -0.8605 -0.7298
   19CHTO   H20 7989   5.068   6.304   0.084 -1.0723 -0.7621  1.0746
   19CHTO    O4 7990   5.259   6.362   0.038  0.4783  0.0997 -0.5714
   19CHTO   C14 7991   5.372   6.452   0.061  1.1516  0.1776 -0.0503
   19CHTO   H27 7992   5.421   6.478  -0.034  0.3532  1.0603 -0.2300
   19CHTO   C18 7993   5.474   6.378   0.143 -0.0197 -0.0123 -0.1257
   19CHTO   O13 7994   5.518   6.261   0.071 -0.5954 -0.3596  0.2936
   19CHTO    H7 7995   5.560   6.200   0.129  0.5272 -0.9678 -1.1366
   19CHTO    O2 7996   5.210   6.242   0.258 -0.1600  0.3560 -0.1184
   19CHTO    C1 7997   5.214   6.100   0.262  0.0411 -0.1216  0.0272
   19CHTO   H14 7998   5.284   6.058   0.187 -2.3125 -1.3164 -1.5771
   19CHTO    C2 7999   5.074   6.021   0.242 -0.2602 -0.4249  0.1771
   19CHTO   H15 8000   5.010   6.062   0.322  0.1282  0.8045 -0.1357
   19CHTO    O6 8001   5.028   6.046   0.107 -0.0203 -0.6999 -0.2205
   19CHTO    H1 8002   5.012   6.138   0.097  2.3880 -0.2954 -0.5407
   19CHTO    C3 8003   5.075   5.864   0.277 -0.0322  0.2030 -0.2993
   19CHTO   H16 8004   5.136   5.828   0.193 -1.5571  0.2553 -1.4474
   19CHTO    N1 8005   4.937   5.794   0.275  0.0416  0.2392  0.0976
   19CHTO    H8 8006   4.937   5.704   0.215 -0.4248 -1.4282  2.5198
   19CHTO    H9 8007   4.853   5.852   0.240 -1.0099 -1.9489 -1.0732
   19CHTO    C4 8008   5.158   5.841   0.404  0.5592  0.1917  0.0915
   19CHTO   H17 8009   5.104   5.882   0.490  2.0054 -1.3538  1.8028
   19CHTO    O1 8010   5.282   5.918   0.401  0.7392  0.0534  0.6725
   19CHTO    C5 8011   5.275   6.060   0.401 -0.4048  0.0733 -0.4532
   19CHTO   H18 8012   5.202   6.100   0.472 -0.8818 -0.9692 -0.3502
   19CHTO   C16 8013   5.417   6.127   0.431 -0.0434  0.0430  0.9717
   19CHTO   O11 8014   5.458   6.106   0.565  0.1235 -1.2625 -0.0196
   19CHTO    H5 8015   5.552   6.113   0.570 -0.0591  1.6827  0.2118
   19CHTO    O3 8016   5.188   5.697   0.424 -0.3689  0.1313 -0.1882
   19CHTO    C6 8017   5.200   5.661   0.564  0.9435 -0.1283  0.5784
   19CHTO   H19 8018   5.225   5.749   0.624 -0.2356  0.9920 -0.5292
   19CHTO    C8 8019   5.057   5.587   0.597  0.1956  0.0956 -0.5186
   19CHTO   H21 8020   5.043   5.508   0.524 -1.1431  1.1928 -1.4740
   19CHTO    O7 8021   4.954   5.691   0.595 -0.8034  0.0136  0.3077
   19CHTO    H2 8022   4.870   5.648   0.596  0.3877 -2.4435  0.8433
   19CHTO   C12 8023   5.062   5.532   0.743  0.0512 -0.3891  0.0137
   19CHTO   H25 8024   5.061   5.621   0.809  0.1948 -1.0364  0.9001
   19CHTO    N3 8025   4.939   5.447   0.784  0.3351 -0.1964 -0.4738
   19CHTO   H12 8026   4.966   5.382   0.865 -2.3694 -0.3141  0.3800
   19CHTO   H13 8027   4.914   5.384   0.700 -0.7229 -1.2138  0.5888
   19CHTO   C15 8028   5.196   5.453   0.778 -0.0191  0.0366 -0.8832
   19CHTO   H28 8029   5.190   5.347   0.751  1.6234 -0.4725  0.6479
   19CHTO   O10 8030   5.216   5.465   0.943 -0.0904  0.1175  0.1413
   19CHTO    H4 8031   5.283   5.403   0.963 -0.0341 -0.3428 -1.4231
   19CHTO    O5 8032   5.318   5.509   0.723  0.4951 -0.5377 -0.8112
   19CHTO   C10 8033   5.310   5.552   0.591  0.0511 -0.3382  0.0799
   19CHTO   H23 8034   5.299   5.460   0.533  0.2135 -0.6373  0.5215
   19CHTO   C17 8035   5.452   5.597   0.567  0.3385 -0.9007  0.3503
   19CHTO   O12 8036   5.473   5.667   0.443  0.6655  0.0959 -0.4286
   19CHTO    H6 8037   5.479   5.604   0.373 -1.2948  0.0751 -0.5910
   20CHTO  H203 8038   5.039   1.106   2.354  0.4753 -0.6125  1.5173
   20CHTO   O82 8039   4.998   1.187   2.378 -0.0442 -0.2235 -0.6665
   20CHTO  C123 8040   4.983   1.272   2.265  0.0840 -0.4305  0.1369
   20CHTO  H227 8041   4.892   1.332   2.281 -0.8747 -1.8327  0.0813
   20CHTO   O77 8042   5.107   1.359   2.259  0.4456 -0.8658 -0.6411
   20CHTO  C118 8043   5.109   1.459   2.153 -0.2841  0.4462 -0.6483
   20CHTO  H222 8044   5.022   1.526   2.156 -0.7041 -0.1046 -0.3182
   20CHTO  C125 8045   5.241   1.546   2.183 -0.2952 -0.4663  0.0753
   20CHTO   O84 8046   5.262   1.664   2.104 -0.4461  0.6830 -0.2633
   20CHTO  H205 8047   5.335   1.648   2.048  0.6441  0.2152  1.2519
   20CHTO  C114 8048   5.111   1.382   2.023  0.5914  0.2844  0.2037
   20CHTO  H218 8049   5.192   1.308   2.026  0.9721  0.7604  3.8015
   20CHTO  C116 8050   4.982   1.293   2.006  0.3807  0.1348 -0.2909
   20CHTO  H220 8051   4.892   1.359   2.004  0.6761  0.5134 -2.2338
   20CHTO   O79 8052   4.977   1.230   1.878  0.2919  0.2801  0.0812
   20CHTO  H201 8053   4.920   1.156   1.876 -1.4054  1.5289  1.0861
   20CHTO  C120 8054   4.969   1.196   2.132 -0.6091  0.4375  0.4710
   20CHTO  H224 8055   5.054   1.125   2.127 -0.1463  0.8894  1.9493
   20CHTO   N21 8056   4.850   1.110   2.125  0.1468 -0.1202  0.0774
   20CHTO  H211 8057   4.757   1.159   2.100  1.0283  0.7560 -1.4837
   20CHTO  H212 8058   4.873   1.016   2.078  0.8321 -1.4551  2.9565
   20CHTO   O75 8059   5.122   1.474   1.920 -0.1061 -0.0695  0.6859
   20CHTO  C112 8060   5.224   1.451   1.810  0.5521  0.2945 -0.7970
   20CHTO  H216 8061   5.220   1.348   1.771 -1.0323 -0.8686  2.2508
   20CHTO   O73 8062   5.350   1.483   1.872 -0.0691 -0.4968 -0.2253
   20CHTO  C113 8063   5.458   1.437   1.790  0.1549  0.0019 -0.3159
   20CHTO  H217 8064   5.435   1.330   1.769  2.0390 -0.4226 -0.3116
   20CHTO  C124 8065   5.593   1.446   1.860 -0.5744  0.0511 -0.1597
   20CHTO   O83 8066   5.603   1.376   1.978 -0.3375 -0.6668 -0.2541
   20CHTO  H204 8067   5.586   1.435   2.049  1.2826  1.7047 -1.7739
   20CHTO  C109 8068   5.457   1.515   1.655  0.4839  0.4644 -0.3115
   20CHTO  H213 8069   5.483   1.617   1.684 -1.1962  0.6331  0.6596
   20CHTO  C110 8070   5.317   1.514   1.583 -0.3401 -0.5248 -0.2419
   20CHTO  H214 8071   5.306   1.417   1.535 -0.7057 -0.2611 -0.6882
   20CHTO   O78 8072   5.339   1.606   1.479  0.4877  0.7511  0.0056
   20CHTO  H200 8073   5.277   1.598   1.410  0.7326  2.0615 -0.3791
   20CHTO  C111 8074   5.204   1.548   1.687 -0.4898 -0.2491  0.4354
   20CHTO  H215 8075   5.221   1.650   1.723 -0.5611  0.2829 -0.9949
   20CHTO   N19 8076   5.066   1.544   1.627 -0.6677 -0.0802 -1.2563
   20CHTO  H207 8077   5.014   1.635   1.656  0.1699  0.5428 -1.6962
   20CHTO  H208 8078   5.066   1.525   1.521  0.8204 -1.6214 -0.9980
   20CHTO   O74 8079   5.558   1.458   1.562  0.3433 -0.1391 -0.6139
   20CHTO  C115 8080   5.696   1.549   1.551 -0.4126  0.5854  0.2177
   20CHTO  H219 8081   5.720   1.594   1.647  2.0821 -0.3766  0.0773
   20CHTO   O76 8082   5.816   1.458   1.521  0.5045 -0.2373 -0.1072
   20CHTO  C122 8083   5.787   1.367   1.410 -0.3695  0.1986  0.7579
   20CHTO  H226 8084   5.712   1.299   1.449  0.7138 -1.0778  0.6484
   20CHTO  C126 8085   5.913   1.284   1.374 -0.4421 -0.5981 -0.2972
   20CHTO   O85 8086   5.955   1.211   1.492  0.0900 -0.1238  0.1992
   20CHTO  H206 8087   5.992   1.269   1.555  2.0626  0.1159 -1.1437
   20CHTO  C121 8088   5.734   1.436   1.284 -0.9996  0.6161  0.4184
   20CHTO  H225 8089   5.799   1.406   1.199  2.1804  3.0691  1.8802
   20CHTO   O81 8090   5.605   1.388   1.254  0.7203 -0.4137  0.0733
   20CHTO  H202 8091   5.563   1.340   1.323  0.6900 -1.9082 -0.9418
   20CHTO  C119 8092   5.742   1.588   1.292 -0.0128  0.2754  0.7699
   20CHTO  H223 8093   5.848   1.613   1.281 -0.0018 -0.2928 -0.4428
   20CHTO  C117 8094   5.678   1.649   1.430  0.0390  0.5028  0.2816
   20CHTO  H221 8095   5.570   1.660   1.422 -0.3688 -3.2071 -0.4585
   20CHTO   N20 8096   5.732   1.784   1.463  0.2331  0.0777 -0.1611
   20CHTO  H209 8097   5.731   1.844   1.373 -1.0087  0.7958  0.3091
   20CHTO  H210 8098   5.677   1.837   1.539 -1.3007  0.5356 -1.5669
   20CHTO   O80 8099   5.681   1.650   1.140 -0.4879 -0.4649  0.3794
   20CHTO  C103 8100   5.776   1.719   1.039 -0.0189 -0.5187  0.2508
   20CHTO  H190 8101   5.862   1.759   1.092 -0.9952  1.3364  0.4406
   20CHTO  C101 8102   5.817   1.635   0.917  1.2082  0.2029  0.8947
   20CHTO  H188 8103   5.733   1.609   0.853  0.8633  0.1276  1.3726
   20CHTO   O68 8104   5.914   1.496   0.949  0.3768 -0.0201  0.0541
   20CHTO  H168 8105   5.987   1.531   0.996  1.3354  0.1573 -1.5388
   20CHTO   C99 8106   5.902   1.738   0.833  0.0941 -0.2928  0.0828
   20CHTO  H186 8107   5.989   1.771   0.892  0.3485  1.7616 -1.4032
   20CHTO   N17 8108   5.953   1.684   0.701 -0.2002 -0.2165 -0.0423
   20CHTO  H174 8109   5.983   1.580   0.705 -0.5452 -0.2641  1.5946
   20CHTO  H175 8110   5.881   1.690   0.621  0.0723  0.8539 -0.2100
   20CHTO   C97 8111   5.822   1.872   0.807  0.2046 -0.0546  0.5833
   20CHTO  H184 8112   5.732   1.846   0.748  0.8744  0.2231 -0.5677
   20CHTO   O64 8113   5.789   1.932   0.935  0.0654 -0.1304  1.0368
   20CHTO  C104 8114   5.696   1.843   0.998 -0.0548 -0.7271 -0.0767
   20CHTO  H191 8115   5.608   1.818   0.938 -0.8299  2.8762 -0.5302
   20CHTO  C108 8116   5.634   1.919   1.120  0.2488  0.2400 -0.0854
   20CHTO   O71 8117   5.544   2.025   1.081 -0.0388  0.9344  0.0133
   20CHTO  H171 8118   5.532   2.085   1.152  2.5350 -0.8039  1.9763
   20CHTO   O62 8119   5.905   1.968   0.741  0.3431 -0.5124  0.1742
   20CHTO   C91 8120   5.849   2.087   0.685  0.0889 -0.1979  0.2922
   20CHTO  H178 8121   5.756   2.105   0.739  1.1035  1.0083  1.6835
   20CHTO   C92 8122   5.806   2.079   0.536 -0.4260 -0.4804  0.3998
   20CHTO  H179 8123   5.891   2.037   0.479 -0.2039  1.9610 -1.1688
   20CHTO   O66 8124   5.703   1.981   0.536 -0.1473 -0.2725  0.0364
   20CHTO  H166 8125   5.668   1.972   0.450  1.7242  2.5930 -1.1071
   20CHTO   C93 8126   5.762   2.210   0.462  0.3454 -0.5903  0.3036
   20CHTO  H180 8127   5.658   2.229   0.491 -0.2531 -1.1110 -1.4517
   20CHTO   N16 8128   5.755   2.182   0.316  0.5972  0.8297 -0.2463
   20CHTO  H172 8129   5.850   2.185   0.266  0.0698  0.7491 -1.2662
   20CHTO  H173 8130   5.682   2.243   0.263  0.5961  1.2378  0.2140
   20CHTO   C94 8131   5.855   2.328   0.505 -0.5349  0.8958 -0.4066
   20CHTO  H181 8132   5.954   2.325   0.461 -0.4534 -1.3915 -0.1325
   20CHTO   O61 8133   5.866   2.330   0.648 -0.1370  0.2191  0.0678
   20CHTO   C95 8134   5.928   2.215   0.710  0.3171 -0.1367 -0.1792
   20CHTO  H182 8135   6.029   2.203   0.672 -0.5566 -1.0336 -2.2676
   20CHTO  C106 8136   5.940   2.249   0.866  0.1548  0.1919 -0.7835
   20CHTO   O69 8137   6.032   2.356   0.887 -0.5249  0.6931 -0.6083
   20CHTO  H169 8138   6.115   2.318   0.864 -1.1106 -1.6526  0.9919
   20CHTO   O63 8139   5.793   2.461   0.465 -0.3048  0.6041 -0.2342
   20CHTO   C96 8140   5.812   2.530   0.330  0.1828 -0.1432 -0.2391
   20CHTO  H183 8141   5.771   2.466   0.252  0.7052 -0.3023 -0.3833
   20CHTO   C98 8142   5.965   2.578   0.294  0.4551  0.3815 -0.0379
   20CHTO  H185 8143   6.011   2.626   0.382 -2.4080  0.3124  1.5613
   20CHTO   O67 8144   6.041   2.453   0.266 -0.7220  0.4363 -0.2920
   20CHTO  H167 8145   6.062   2.417   0.350  2.8793  1.7132 -0.5640
   20CHTO  C102 8146   5.955   2.664   0.159 -1.3536  0.4925 -0.5719
   20CHTO  H189 8147   5.905   2.596   0.088 -2.5217  0.7370 -0.0046
   20CHTO   N18 8148   6.084   2.710   0.095  0.0400  0.2880  0.0041
   20CHTO  H176 8149   6.169   2.694   0.160  0.7301  1.1844 -0.6717
   20CHTO  H177 8150   6.110   2.664   0.001 -1.4218  0.3336 -0.4294
   20CHTO  C105 8151   5.849   2.782   0.181  0.3133  0.5670 -0.0394
   20CHTO  H192 8152   5.883   2.851   0.258  0.7785  1.1698 -0.7865
   20CHTO   O65 8153   5.713   2.735   0.218 -0.3149 -0.7546  0.0412
   20CHTO  C100 8154   5.716   2.654   0.338 -0.0481  0.2907 -0.9037
   20CHTO  H187 8155   5.747   2.712   0.426 -1.6496 -0.9149  0.4959
   20CHTO  C107 8156   5.568   2.613   0.368 -0.0836  0.5214  0.2476
   20CHTO   O70 8157   5.487   2.731   0.370 -0.0033  0.3316  0.1226
   20CHTO  H170 8158   5.509   2.791   0.438 -0.4368  2.4068 -1.4917
   20CHTO   O57 8159   5.850   2.871   0.039  0.4032  0.3672  0.3858
   20CHTO   C85 8160   5.836   3.011   0.040 -0.4344  0.1676 -0.0560
   20CHTO  H157 8161   5.912   3.054   0.109  0.5078  2.2413 -2.3136
   20CHTO   C83 8162   5.697   3.043   0.101 -0.4661 -0.4404 -0.4666
   20CHTO  H155 8163   5.686   3.002   0.201 -1.9189 -1.0746 -0.8646
   20CHTO   O56 8164   5.592   2.988   0.019 -0.8190  0.2983  0.1785
   20CHTO  H135 8165   5.583   2.895   0.026 -1.5856  0.1907 -2.0209
   20CHTO   C81 8166   5.680   3.194   0.101  0.4903  0.4776 -0.2673
   20CHTO  H153 8167   5.761   3.237   0.159  1.2141 -1.6890  0.4014
   20CHTO   N14 8168   5.566   3.237   0.183  0.0764 -0.5177 -0.5005
   20CHTO  H141 8169   5.534   3.338   0.168 -1.1909 -0.8712 -0.2417
   20CHTO  H142 8170   5.589   3.226   0.287 -1.0227  1.5967 -0.0152
   20CHTO   C79 8171   5.682   3.251  -0.039  0.4345  0.3288 -0.0172
   20CHTO  H151 8172   5.675   3.360  -0.033  1.8143  0.4259  0.0270
   20CHTO   O52 8173   5.816   3.220  -0.094 -0.1508 -0.1207 -0.5070
   20CHTO   C86 8174   5.845   3.076  -0.106 -0.5217 -0.5495  0.1130
   20CHTO  H158 8175   5.765   3.038  -0.173 -1.1402  2.0098 -0.6210
   20CHTO   C90 8176   5.978   3.045  -0.173 -0.3599  0.1601  0.3859
   20CHTO   O60 8177   6.099   3.077  -0.100 -0.0837  0.4654  0.5378
   20CHTO  H138 8178   6.171   3.092  -0.157  0.7107  1.4267  1.7707
   20CHTO   O50 8179   5.566   3.208  -0.127  0.8228 -0.3465 -0.8485
   20CHTO   C73 8180   5.507   3.134  -0.237  1.1688  1.1290  0.4626
   20CHTO  H145 8181   5.516   3.028  -0.208  0.1788  0.7002 -0.7442
   20CHTO   C74 8182   5.585   3.164  -0.371 -0.0437  0.0048  0.8511
   20CHTO  H146 8183   5.688   3.130  -0.351  0.3755  0.8843  0.2152
   20CHTO   O54 8184   5.529   3.076  -0.470  0.7840  0.2818  0.5534
   20CHTO  H133 8185   5.576   3.073  -0.551 -1.9160  1.3565 -1.1456
   20CHTO   C75 8186   5.579   3.314  -0.416  0.4035  0.6582  0.3952
   20CHTO  H147 8187   5.620   3.374  -0.333 -2.4196 -1.1453  3.2165
   20CHTO   N13 8188   5.654   3.349  -0.540 -0.1916 -0.0945  0.1869
   20CHTO  H139 8189   5.756   3.317  -0.522  0.0309  0.9310  0.8364
   20CHTO  H140 8190   5.606   3.299  -0.622  1.9391 -0.4331 -0.8892
   20CHTO   C76 8191   5.424   3.363  -0.424 -0.2750 -0.4323  0.3164
   20CHTO  H148 8192   5.375   3.323  -0.513  3.0103 -1.6896 -0.9931
   20CHTO   O49 8193   5.350   3.315  -0.309 -0.0161 -0.3418  0.6780
   20CHTO   C77 8194   5.361   3.178  -0.267 -0.2599  0.0331 -0.4556
   20CHTO  H149 8195   5.319   3.128  -0.354  1.8118  0.2840 -1.6347
   20CHTO   C88 8196   5.263   3.154  -0.152 -0.5365 -0.1101  0.4990
   20CHTO   O58 8197   5.267   3.030  -0.084 -0.3029 -0.0680 -0.2328
   20CHTO  H136 8198   5.312   3.038  -0.002 -1.3264 -1.2580  0.4671
   20CHTO   O51 8199   5.416   3.521  -0.431  0.4720 -0.8613  0.2262
   20CHTO   C78 8200   5.349   3.618  -0.303 -0.1346 -0.4169  0.1058
   20CHTO  H150 8201   5.357   3.575  -0.201  2.7913 -0.9253 -0.2889
   20CHTO   C80 8202   5.200   3.635  -0.330  0.7621  0.1719 -0.1027
   20CHTO  H152 8203   5.183   3.677  -0.431  2.4610  0.1294 -0.4090
   20CHTO   O55 8204   5.133   3.507  -0.323  0.3007 -0.2022  0.1887
   20CHTO  H134 8205   5.040   3.515  -0.322  0.2006 -1.2696  1.4604
   20CHTO   C84 8206   5.125   3.735  -0.224  0.5945 -0.6479  0.7191
   20CHTO  H156 8207   5.125   3.690  -0.124 -0.1960 -0.7562  0.6794
   20CHTO   N15 8208   4.984   3.768  -0.259 -0.6655 -0.1975  0.1065
   20CHTO  H143 8209   4.981   3.833  -0.344  2.9416  0.2704  0.2268
   20CHTO  H144 8210   4.924   3.813  -0.182 -0.8589  0.6366 -0.5240
   20CHTO   C87 8211   5.205   3.869  -0.209  0.6093 -0.0142  0.5765
   20CHTO  H159 8212   5.187   3.942  -0.287 -0.9299  0.6949  1.5593
   20CHTO   O53 8213   5.348   3.838  -0.197  0.3742  0.9350 -0.3228
   20CHTO   C82 8214   5.411   3.758  -0.304 -0.0344 -0.5588 -0.1594
   20CHTO  H154 8215   5.406   3.807  -0.401  1.1707  1.9762  1.0083
   20CHTO   C89 8216   5.560   3.739  -0.273  0.2178 -0.2080  0.1599
   20CHTO   O59 8217   5.623   3.707  -0.394  0.5759  0.8011 -0.7535
   20CHTO  H137 8218   5.694   3.646  -0.384  0.8930  1.1813 -0.6905
   20CHTO   O45 8219   5.169   3.945  -0.061 -0.1087 -0.3727  0.2929
   20CHTO   C67 8220   5.210   3.878   0.062  0.2473  0.4173  0.1255
   20CHTO  H124 8221   5.230   3.771   0.054 -2.9916 -0.2049 -0.1750
   20CHTO   C65 8222   5.335   3.950   0.108 -0.2901  0.6584  0.0396
   20CHTO  H122 8223   5.346   4.044   0.053  0.4701 -0.2964 -1.5005
   20CHTO   O44 8224   5.445   3.856   0.076  0.4963 -0.5217 -0.1861
   20CHTO  H102 8225   5.427   3.770   0.043  0.9934 -0.6775 -0.0568
   20CHTO   C63 8226   5.328   3.997   0.264 -0.4425  0.0927  0.0540
   20CHTO  H120 8227   5.253   4.076   0.276 -0.2633  0.3853 -0.7082
   20CHTO   N11 8228   5.448   4.063   0.325  0.0562  0.2243  0.1023
   20CHTO  H108 8229   5.534   3.999   0.322 -0.0138  0.1316  0.0791
   20CHTO  H109 8230   5.472   4.157   0.280  0.3744 -0.2688 -0.7626
   20CHTO   C61 8231   5.270   3.874   0.347 -0.2932  0.1388  0.6463
   20CHTO  H118 8232   5.269   3.904   0.453  0.7334  3.8694 -0.3140
   20CHTO   O40 8233   5.125   3.854   0.304  0.2355  0.1303 -0.5617
   20CHTO   C68 8234   5.086   3.885   0.164  0.6946  0.9895  0.4172
   20CHTO  H125 8235   5.044   3.988   0.166  1.0629  1.1772 -1.0832
   20CHTO   C72 8236   4.970   3.795   0.119 -0.4087 -0.2030 -0.5587
   20CHTO   O48 8237   4.971   3.658   0.160  0.4180  0.3293 -0.8147
   20CHTO  H105 8238   5.037   3.603   0.120  0.2741 -0.9209  0.6520
   20CHTO   O38 8239   5.336   3.744   0.321  0.1662 -0.7414  0.0688
   20CHTO   C55 8240   5.312   3.642   0.420 -0.6011  0.0169  0.4120
   20CHTO  H112 8241   5.210   3.640   0.460  0.1471 -0.9915  2.3479
   20CHTO   C56 8242   5.420   3.659   0.537 -0.0599  0.6673 -0.2811
   20CHTO  H113 8243   5.523   3.638   0.502 -0.6821 -0.1509 -1.6928
   20CHTO   O42 8244   5.417   3.787   0.603  0.0783 -0.4714 -0.2033
   20CHTO  H100 8245   5.329   3.819   0.603  0.6316  1.1979  1.4127
   20CHTO   C57 8246   5.397   3.543   0.648  0.4167  0.3648 -0.5812
   20CHTO  H114 8247   5.301   3.566   0.695  0.0081  3.3578 -2.7259
   20CHTO   N10 8248   5.496   3.557   0.761  0.2230  0.3208  0.1426
   20CHTO  H106 8249   5.548   3.652   0.759  1.0246 -0.1246 -0.0211
   20CHTO  H107 8250   5.566   3.476   0.767 -0.8237 -0.4365  3.8660
   20CHTO   C58 8251   5.399   3.406   0.581  0.1775  0.2125 -0.5871
   20CHTO  H115 8252   5.503   3.374   0.558  0.3079  1.4164 -1.7085
   20CHTO   O37 8253   5.312   3.387   0.464 -0.1119 -0.2403  0.1005
   20CHTO   C59 8254   5.331   3.493   0.362  0.4466 -0.0729 -0.1802
   20CHTO  H116 8255   5.434   3.483   0.326  1.3436  1.8336  1.7409
   20CHTO   C70 8256   5.228   3.469   0.255 -0.7730  0.0402  0.0734
   20CHTO   O46 8257   5.265   3.511   0.120 -1.0810 -0.6722  0.2961
   20CHTO  H103 8258   5.288   3.439   0.064 -1.5411 -0.2069 -0.5033
   20CHTO   O39 8259   5.336   3.304   0.683  0.2802 -0.7438  0.5739
   20CHTO   C60 8260   5.416   3.187   0.710  0.0798  0.1993  0.5966
   20CHTO  H117 8261   5.507   3.185   0.649  0.4426 -1.1638  1.1742
   20CHTO   C62 8262   5.459   3.201   0.855 -0.0611 -0.2289 -0.0015
   20CHTO  H119 8263   5.531   3.286   0.862 -1.0784  0.3528  4.7078
   20CHTO   O43 8264   5.345   3.232   0.946 -0.6030  0.0150 -0.7065
   20CHTO  H101 8265   5.274   3.175   0.919 -3.2369  1.1463  3.4157
   20CHTO   C66 8266   5.543   3.077   0.907  0.6047 -0.2660 -0.9535
   20CHTO  H123 8267   5.629   3.062   0.842  0.8995 -3.6989  0.1226
   20CHTO   N12 8268   5.599   3.091   1.041  0.2839  0.0906  0.0128
   20CHTO  H110 8269   5.597   2.996   1.091  0.4264 -0.1356 -0.4058
   20CHTO  H111 8270   5.550   3.157   1.112  0.3074  1.0044 -0.8059
   20CHTO   C69 8271   5.457   2.948   0.887 -0.3713 -0.5237 -0.2773
   20CHTO  H126 8272   5.369   2.947   0.954 -0.2245  0.0176 -0.0711
   20CHTO   O41 8273   5.419   2.940   0.735  0.0699  0.3200 -0.0821
   20CHTO   C64 8274   5.336   3.056   0.686  0.5080  0.1641 -0.2146
   20CHTO  H121 8275   5.243   3.069   0.745 -0.5942  0.5372 -2.0005
   20CHTO   C71 8276   5.311   3.018   0.536  0.1889 -0.0535 -0.0507
   20CHTO   O47 8277   5.211   3.104   0.482 -0.2821  0.1834 -1.1078
   20CHTO  H104 8278   5.255   3.177   0.442 -0.5739  1.8598  1.4502
   20CHTO   O34 8279   5.541   2.815   0.908  0.4662  0.2255 -0.1525
   20CHTO   C49 8280   5.531   2.655   0.863  0.1774  0.1412  0.1731
   20CHTO   H91 8281   5.484   2.656   0.764  1.1425  2.9241 -0.3109
   20CHTO   C47 8282   5.452   2.570   0.966 -0.4755 -0.5622  0.4201
   20CHTO   H89 8283   5.351   2.559   0.921 -1.2253  0.9306  1.6946
   20CHTO   O33 8284   5.445   2.640   1.098  0.8754 -0.1482  0.5859
   20CHTO   H70 8285   5.445   2.733   1.085 -1.4906 -0.0219  1.2303
   20CHTO   C45 8286   5.518   2.426   0.989  0.1225 -0.6710  0.2037
   20CHTO   H87 8287   5.608   2.442   1.051  0.9515 -1.0757 -0.8761
   20CHTO    N8 8288   5.429   2.336   1.064  0.2251  0.2171  0.2112
   20CHTO   H75 8289   5.329   2.330   1.024 -0.5222  0.3267  2.0331
   20CHTO   H76 8290   5.471   2.236   1.066  1.6639  0.7565 -1.5356
   20CHTO   C43 8291   5.563   2.371   0.845  0.3242 -0.0456  0.2527
   20CHTO   H85 8292   5.605   2.272   0.867 -2.2874 -0.7325  2.4191
   20CHTO   O29 8293   5.660   2.461   0.786 -0.2712  0.8863 -0.0817
   20CHTO   C50 8294   5.671   2.591   0.835  0.4519  0.4342 -0.6059
   20CHTO   H92 8295   5.724   2.584   0.931  0.1959 -0.2469 -0.5130
   20CHTO   C54 8296   5.767   2.673   0.754  0.8139  0.0835 -0.8004
   20CHTO   O36 8297   5.813   2.786   0.825 -0.4874  0.3841  0.0092
   20CHTO   H72 8298   5.869   2.761   0.896 -0.9103  2.5421  1.1523
   20CHTO   O27 8299   5.454   2.350   0.756  0.5370 -0.1180 -0.2614
   20CHTO   C37 8300   5.366   2.286   0.660  0.9486  0.2978 -0.5608
   20CHTO   H79 8301   5.262   2.294   0.696  1.4066  1.1197  0.6183
   20CHTO   C38 8302   5.370   2.361   0.520  0.4009  1.0770  0.0652
   20CHTO   H80 8303   5.476   2.365   0.489 -0.0241 -0.5269 -1.7239
   20CHTO   O31 8304   5.322   2.497   0.534  0.5305 -0.1094  0.0898
   20CHTO   H68 8305   5.331   2.536   0.449  0.7312  3.7125  1.7979
   20CHTO   C39 8306   5.293   2.278   0.415  0.3586 -0.2602  0.2747
   20CHTO   H81 8307   5.193   2.274   0.457 -0.2701  0.0907 -1.1635
   20CHTO    N7 8308   5.279   2.344   0.271  0.0630 -0.8143 -1.1123
   20CHTO   H73 8309   5.180   2.380   0.248  0.0855  0.0276  0.0640
   20CHTO   H74 8310   5.349   2.425   0.260 -0.4352 -0.2534 -0.2904
   20CHTO   C40 8311   5.357   2.132   0.401 -0.4534  0.8832  0.3285
   20CHTO   H82 8312   5.461   2.149   0.375 -1.5105  2.8373 -2.9730
   20CHTO   O26 8313   5.337   2.079   0.529 -0.5903 -0.1411 -0.3012
   20CHTO   C41 8314   5.411   2.139   0.640 -0.1456 -0.3782 -0.2423
   20CHTO   H83 8315   5.518   2.129   0.620 -0.2900 -0.3186 -1.0642
   20CHTO   C52 8316   5.389   2.051   0.767  0.0464 -0.8189 -0.5297
   20CHTO   O35 8317   5.448   1.922   0.756 -0.2177  0.1174 -0.7253
   20CHTO   H71 8318   5.485   1.882   0.833  3.3179 -0.3102 -2.5215
   20CHTO   O28 8319   5.298   2.034   0.304 -1.0103 -0.4981  0.1506
   20CHTO   C42 8320   5.359   1.908   0.276  0.4546 -0.3742 -0.0058
   20CHTO   H84 8321   5.279   1.867   0.215  1.9341 -1.1452 -1.4725
   20CHTO   C44 8322   5.387   1.805   0.386  0.0626 -0.3868  0.0135
   20CHTO   H86 8323   5.450   1.852   0.461  1.5034  0.7589 -1.9032
   20CHTO   O32 8324   5.259   1.766   0.447 -0.4782  0.0611  0.1683
   20CHTO   H69 8325   5.200   1.723   0.387 -0.3213  0.3889 -0.2245
   20CHTO   C48 8326   5.454   1.675   0.332  0.1505 -0.1016  0.2785
   20CHTO   H90 8327   5.379   1.622   0.274 -0.3889  2.2570 -1.2644
   20CHTO    N9 8328   5.494   1.585   0.447  0.1174  0.5752  0.7054
   20CHTO   H77 8329   5.448   1.487   0.440  1.4992 -0.2174  2.4151
   20CHTO   H78 8330   5.601   1.584   0.457  0.5459 -3.0951 -2.7462
   20CHTO   C51 8331   5.577   1.711   0.248  0.2455 -0.0029  0.4905
   20CHTO   H93 8332   5.642   1.767   0.315 -0.5986  2.1718 -0.4734
   20CHTO   O30 8333   5.537   1.793   0.133 -0.2813 -0.2187 -0.1259
   20CHTO   C46 8334   5.483   1.927   0.180  0.1951  0.0674 -0.1109
   20CHTO   H88 8335   5.568   1.978   0.226  0.9208 -2.0153  0.9212
   20CHTO   C53 8336   5.436   2.008   0.053  0.6728 -0.1738 -0.8700
   20CHTO   O72 8337   5.550   2.055  -0.022  0.2846  0.4780 -0.2071
   20CHTO  H199 8338   5.524   2.097  -0.102  0.1908 -0.2467 -0.5613
   20CHTO   O22 8339   5.648   1.604   0.191 -0.1260 -0.3953  0.3408
   20CHTO   C31 8340   5.790   1.605   0.161 -0.0608 -0.2161 -0.1308
   20CHTO   H59 8341   5.803   1.524   0.086 -0.8397 -1.4782  1.0730
   20CHTO   C29 8342   5.844   1.730   0.095  0.9059  0.0733  0.2658
   20CHTO   H57 8343   5.828   1.807   0.172 -0.0515  1.0599 -0.8942
   20CHTO   O21 8344   5.762   1.766  -0.019  0.2307  0.0168  0.1088
   20CHTO   H37 8345   5.809   1.753  -0.100 -1.8223  1.2532 -1.3193
   20CHTO   C27 8346   5.995   1.727   0.067 -0.0965 -0.2139  0.4591
   20CHTO   H55 8347   6.014   1.653  -0.012 -1.8798  2.0584 -2.1739
   20CHTO    N5 8348   6.056   1.856   0.016  1.0718  0.7914 -0.6067
   20CHTO   H43 8349   6.022   1.932   0.085  0.9746  0.4142 -0.2397
   20CHTO   H44 8350   6.027   1.873  -0.087  1.0024 -0.2197 -0.7619
   20CHTO   C25 8351   6.070   1.669   0.195 -0.1761 -0.0098 -0.3283
   20CHTO   H53 8352   6.083   1.744   0.275 -0.5713  0.5718 -0.8008
   20CHTO   O17 8353   6.007   1.543   0.249  0.3533 -0.0993  0.6398
   20CHTO   C32 8354   5.869   1.555   0.285 -0.2778 -0.1883 -0.3578
   20CHTO   H60 8355   5.855   1.628   0.365 -0.2744  1.8388 -2.1456
   20CHTO   C36 8356   5.821   1.409   0.324  0.0982 -0.4437 -0.3152
   20CHTO   O25 8357   5.842   1.312   0.216 -0.2098  0.1375  0.1058
   20CHTO   H40 8358   5.788   1.238   0.236  0.0867 -0.2715 -0.6096
   20CHTO   O15 8359   6.224   1.635   0.162 -0.2077 -0.2456  0.6160
   20CHTO   C19 8360   6.337   1.573   0.102  0.2238 -1.2181 -0.0370
   20CHTO   H47 8361   6.310   1.582  -0.004 -1.7311  3.2859  0.7305
   20CHTO   C20 8362   6.470   1.652   0.124 -0.1573  0.4360 -0.4157
   20CHTO   H48 8363   6.483   1.683   0.229  2.2628  0.4410 -0.6850
   20CHTO   O19 8364   6.471   1.765   0.044  0.2935  0.0621  0.1211
   20CHTO   H35 8365   6.395   1.814   0.068  0.1963  1.8592 -3.5354
   20CHTO   C21 8366   6.603   1.573   0.086  0.2608  0.1785 -0.3010
   20CHTO   H49 8367   6.617   1.591  -0.020 -1.2686 -0.8151 -0.6914
   20CHTO    N4 8368   6.729   1.622   0.143  0.1440 -0.2080  0.0241
   20CHTO   H41 8369   6.811   1.577   0.090 -0.0359 -0.0551 -0.3836
   20CHTO   H42 8370   6.729   1.730   0.131 -3.7362 -0.4361 -3.0924
   20CHTO   C22 8371   6.588   1.425   0.109 -0.0307 -0.4831  0.3801
   20CHTO   H50 8372   6.598   1.403   0.216  0.4826 -1.1878  0.1900
   20CHTO   O14 8373   6.466   1.380   0.063 -0.2119  0.2503  0.2372
   20CHTO   C23 8374   6.352   1.426   0.141 -0.3856  0.0230 -0.3018
   20CHTO   H51 8375   6.368   1.408   0.249 -0.6988 -1.0091 -0.4147
   20CHTO   C34 8376   6.231   1.343   0.097 -0.4122  0.1218  0.1265
   20CHTO   O23 8377   6.230   1.202   0.143 -0.0907  0.1201 -0.2139
   20CHTO   H38 8378   6.154   1.149   0.129 -0.5336  0.3360  1.3182
   20CHTO   O16 8379   6.673   1.349   0.025  0.3036  0.5371 -0.3882
   20CHTO   C24 8380   6.688   1.211   0.057 -1.4055 -0.4939  0.3643
   20CHTO   H52 8381   6.599   1.167   0.102 -1.6684  1.7156  2.0709
   20CHTO   C26 8382   6.805   1.185   0.151 -0.2623 -0.0953  0.1179
   20CHTO   H54 8383   6.898   1.227   0.107 -0.4064 -0.9785 -1.0432
   20CHTO   O20 8384   6.783   1.262   0.276 -0.1499 -0.6427 -0.1562
   20CHTO   H36 8385   6.706   1.228   0.316 -1.0011  1.0344 -0.3224
   20CHTO   C30 8386   6.818   1.033   0.183 -0.3057 -0.0288  0.7500
   20CHTO   H58 8387   6.728   1.010   0.242 -0.8506  1.2497  0.4368
   20CHTO    N6 8388   6.933   1.005   0.270 -0.1138 -1.0986  0.0459
   20CHTO   H45 8389   6.902   0.998   0.373  0.3221  0.1606  0.2690
   20CHTO   H46 8390   6.991   0.917   0.248  0.5507 -0.0261 -2.5978
   20CHTO   C33 8391   6.822   0.950   0.052  0.5921  0.1072 -0.7139
   20CHTO   H61 8392   6.923   0.949   0.007  0.7423  1.3791 -0.4220
   20CHTO   O18 8393   6.730   0.996  -0.052  0.2463 -0.4441  0.0951
   20CHTO   C28 8394   6.716   1.140  -0.075 -0.5119 -0.3313 -0.1583
   20CHTO   H56 8395   6.801   1.190  -0.121 -1.0979  0.3052 -0.5586
   20CHTO   C35 8396   6.602   1.157  -0.175  0.2848  0.1059  0.1330
   20CHTO   O24 8397   6.611   1.277  -0.243  0.6853  0.9339  0.1264
   20CHTO   H39 8398   6.696   1.291  -0.280  0.4602 -0.4516 -0.9579
   20CHTO    O9 8399   6.794   0.808   0.085 -0.1931 -0.1427 -0.0721
   20CHTO   C13 8400   6.695   0.733  -0.018 -0.4573 -0.7670 -0.7154
   20CHTO   H26 8401   6.723   0.756  -0.123 -0.3375 -1.8807 -0.9300
   20CHTO   C11 8402   6.542   0.771   0.016  0.2599  0.2077 -0.2712
   20CHTO   H24 8403   6.516   0.875  -0.007 -0.5349  0.4075  1.4416
   20CHTO    O8 8404   6.516   0.761   0.161 -0.4282  0.1036  0.0994
   20CHTO    H3 8405   6.434   0.802   0.180 -0.0140  0.7869  0.4121
   20CHTO    C9 8406   6.454   0.684  -0.077  0.1305 -0.4489  0.0995
   20CHTO   H22 8407   6.489   0.705  -0.180  0.7182 -0.7164  0.2426
   20CHTO    N2 8408   6.312   0.722  -0.071 -0.8002  0.0625 -0.4226
   20CHTO   H10 8409   6.266   0.693  -0.164  3.4248  1.4994 -3.0800
   20CHTO   H11 8410   6.267   0.678   0.018 -1.4096  0.5960 -0.4614
   20CHTO    C7 8411   6.473   0.536  -0.054 -0.0781  0.0418  0.1096
   20CHTO   H20 8412   6.416   0.482  -0.132  2.1746 -1.4284 -0.5796
   20CHTO    O4 8413   6.610   0.499  -0.072 -0.8284  0.3194 -0.1020
   20CHTO   C14 8414   6.716   0.580  -0.010  0.3396  0.2867 -0.5927
   20CHTO   H27 8415   6.805   0.552  -0.069 -0.5124 -2.2964 -0.6969
   20CHTO   C18 8416   6.734   0.529   0.139  0.0830 -0.0906 -0.2409
   20CHTO   O13 8417   6.779   0.395   0.162 -0.0063 -0.0226  0.2629
   20CHTO    H7 8418   6.867   0.394   0.128 -0.0204  0.2056  0.2173
   20CHTO    O2 8419   6.416   0.486   0.099  0.0107 -0.1223  0.1476
   20CHTO    C1 8420   6.381   0.340   0.105 -0.3518 -0.6002  0.4566
   20CHTO   H14 8421   6.400   0.296   0.205  2.2300  0.6055  0.5227
   20CHTO    C2 8422   6.436   0.240  -0.004  0.2882  0.1553  0.8094
   20CHTO   H15 8423   6.410   0.289  -0.098  1.8611  1.3403  0.9718
   20CHTO    O6 8424   6.585   0.234   0.018  0.4348 -0.4754  0.4661
   20CHTO    H1 8425   6.627   0.152  -0.003  0.3148 -0.3234 -0.3812
   20CHTO    C3 8426   6.372   0.095   0.002  0.5296  0.2010 -0.1802
   20CHTO   H16 8427   6.395   0.049   0.099  1.3544  0.0491 -0.4505
   20CHTO    N1 8428   6.427   0.003  -0.107  0.0167 -0.4100  0.1947
   20CHTO    H8 8429   6.533   0.009  -0.089 -0.1052  0.4300  0.6450
   20CHTO    H9 8430   6.384  -0.095  -0.089 -0.7564  0.3605  2.8134
   20CHTO    C4 8431   6.218   0.115  -0.002  0.0765  0.0561 -0.6647
   20CHTO   H17 8432   6.195   0.168  -0.095 -1.8892  1.7345  0.7153
   20CHTO    O1 8433   6.171   0.197   0.104  0.3264  0.2240 -0.3613
   20CHTO    C5 8434   6.229   0.330   0.107  0.4636  0.1336  0.0000
   20CHTO   H18 8435   6.199   0.377   0.013 -3.5088  0.7574  1.4623
   20CHTO   C16 8436   6.164   0.412   0.221 -0.4515 -0.1560  0.3358
   20CHTO   O11 8437   6.034   0.452   0.184 -0.0088  0.0995 -0.1694
   20CHTO    H5 8438   6.028   0.512   0.113 -1.5983 -2.3187 -2.1381
   20CHTO    O3 8439   6.137  -0.005   0.007  0.0172 -0.3221 -0.0754
   20CHTO    C6 8440   6.018  -0.001  -0.078 -0.1301  0.1645  0.1007
   20CHTO   H19 8441   6.017   0.084  -0.145  0.4466 -0.4075 -0.6446
   20CHTO    C8 8442   6.019  -0.126  -0.183 -0.1318 -0.0785 -0.6242
   20CHTO   H21 8443   6.044  -0.215  -0.125  2.7828  2.2837  1.9571
   20CHTO    O7 8444   6.125  -0.086  -0.274  0.1297 -0.2944 -0.5117
   20CHTO    H2 8445   6.203  -0.135  -0.257  0.1951  0.3993  1.2895
   20CHTO   C12 8446   5.889  -0.139  -0.262 -0.4715 -0.1016  0.0106
   20CHTO   H25 8447   5.876  -0.060  -0.339  0.6221 -0.6397 -0.7512
   20CHTO    N3 8448   5.887  -0.266  -0.338  0.2061 -0.2374 -0.1249
   20CHTO   H12 8449   5.863  -0.246  -0.441  0.8100 -0.1628 -0.2519
   20CHTO   H13 8450   5.831  -0.345  -0.290  1.9254 -1.2218  0.3142
   20CHTO   C15 8451   5.764  -0.134  -0.156  0.2068 -0.2924 -0.2141
   20CHTO   H28 8452   5.758  -0.222  -0.091  1.3993 -0.0171  0.2868
   20CHTO   O10 8453   5.638  -0.105  -0.216  0.4323 -0.4314  0.0609
   20CHTO    H4 8454   5.577  -0.173  -0.195  1.0794 -1.4001 -1.1634
   20CHTO    O5 8455   5.768  -0.020  -0.070 -0.3541  0.0501  0.9204
   20CHTO   C10 8456   5.888   0.007   0.009 -0.0978  0.1906 -0.3455
   20CHTO   H23 8457   5.887  -0.058   0.096 -1.3155 -2.3724 -2.1899
   20CHTO   C17 8458   5.867   0.150   0.064  0.4205  0.3308 -0.3484
   20CHTO   O12 8459   5.870   0.250  -0.042 -0.8303 -0.0345  0.2212
   20CHTO    H6 8460   5.783   0.254  -0.076 -0.8054 -2.0179 -0.1202
   21GLOH   H03 8461   1.759   6.738   1.082 -2.4699  1.7856  1.2440
   21GLOH    O1 8462   1.794   6.694   1.162  0.0260  0.2131 -0.6574
   21GLOH    C1 8463   1.764   6.556   1.158  0.2125  0.9583  0.5139
   21GLOH   H02 8464   1.661   6.541   1.190 -0.7462  1.9413 -1.9415
   21GLOH   H08 8465   1.823   6.500   1.230 -0.8577  0.5428  1.0706
   21GLOH    C2 8466   1.787   6.493   1.021 -0.2463  0.0463  0.0010
   21GLOH   H04 8467   1.891   6.513   0.992  0.4274  0.1828  2.4110
   21GLOH    O2 8468   1.769   6.354   1.027 -0.0020 -0.3154 -0.5725
   21GLOH   H05 8469   1.835   6.313   1.086 -0.3848 -1.3083 -0.8238
   21GLOH    C3 8470   1.700   6.561   0.916 -0.0584  0.0170 -0.0671
   21GLOH   H06 8471   1.602   6.512   0.920  1.1923 -2.5534  0.0350
   21GLOH   H07 8472   1.734   6.519   0.821 -1.3190 -1.3748  0.0762
   21GLOH    O3 8473   1.706   6.711   0.916  0.0068  0.0023  0.0648
   21GLOH   H01 8474   1.656   6.744   0.839 -0.3944  1.9760  1.1409
   22GLOH   H03 8475   4.216   2.175   1.632 -0.4320 -1.1260 -1.3482
   22GLOH    O1 8476   4.282   2.228   1.583  0.3236 -1.0360 -0.2360
   22GLOH    C1 8477   4.217   2.341   1.522  0.2986  0.1092 -0.1780
   22GLOH   H02 8478   4.127   2.303   1.473 -0.1972 -0.0154  0.8300
   22GLOH   H08 8479   4.281   2.390   1.449  1.4575  0.0724  0.8076
   22GLOH    C2 8480   4.191   2.442   1.638 -0.9308 -0.7887 -0.6425
   22GLOH   H04 8481   4.142   2.404   1.729 -0.8369 -1.9716 -1.0726
   22GLOH    O2 8482   4.309   2.512   1.683  0.5293 -0.0217  0.0280
   22GLOH   H05 8483   4.361   2.465   1.750 -1.5830  0.4562  2.0540
   22GLOH    C3 8484   4.100   2.545   1.587  0.9771  0.1501 -0.5817
   22GLOH   H06 8485   4.145   2.589   1.498 -0.2169 -3.4350 -3.0356
   22GLOH   H07 8486   4.090   2.619   1.667  0.1232  0.3861 -0.9106
   22GLOH    O3 8487   3.970   2.494   1.551 -0.2967 -0.3066  0.1738
   22GLOH   H01 8488   3.964   2.464   1.458  0.1595  2.5530 -0.8096
   23GLOH   H03 8489   2.168   3.755   2.049 -1.2744 -0.2102  0.3563
   23GLOH    O1 8490   2.177   3.852   2.051  0.3890 -0.3489 -0.1654
   23GLOH    C1 8491   2.047   3.914   2.076  0.3527  0.0312  0.8541
   23GLOH   H02 8492   2.028   3.945   2.178 -2.4423  0.3571  0.2710
   23GLOH   H08 8493   1.966   3.846   2.050  2.5199 -1.2885 -2.8945
   23GLOH    C2 8494   2.035   4.048   1.988  0.5326  0.4845 -0.4186
   23GLOH   H04 8495   2.124   4.110   2.005  0.4546 -0.0556  2.2166
   23GLOH    O2 8496   2.009   4.021   1.850 -0.4046 -0.6321 -0.1003
   23GLOH   H05 8497   2.077   3.962   1.814 -1.6785 -2.3261  0.2223
   23GLOH    C3 8498   1.932   4.142   2.051  0.9485 -0.2338  0.4289
   23GLOH   H06 8499   1.829   4.109   2.036  1.1093 -0.3938 -0.3361
   23GLOH   H07 8500   1.922   4.235   1.995 -1.4441  0.4287  1.8798
   23GLOH    O3 8501   1.962   4.176   2.191  0.0660  0.0842  0.2198
   23GLOH   H01 8502   1.907   4.130   2.256  2.4414  1.5403  3.4110
   24GLOH   H03 8503   2.310   3.694   2.560 -0.8630  0.8619  0.2960
   24GLOH    O1 8504   2.263   3.709   2.476 -0.5768  0.0043 -0.0194
   24GLOH    C1 8505   2.330   3.811   2.402  0.0098 -0.2687 -0.2339
   24GLOH   H02 8506   2.365   3.767   2.308  0.5179  0.2618 -0.2989
   24GLOH   H08 8507   2.420   3.844   2.454  0.5071  0.9596 -1.8239
   24GLOH    C2 8508   2.247   3.936   2.383  0.1894 -0.1420 -0.3861
   24GLOH   H04 8509   2.157   3.904   2.328  0.2959 -1.1400  0.0142
   24GLOH    O2 8510   2.227   4.002   2.507  0.3339  0.4115  0.2945
   24GLOH   H05 8511   2.305   4.005   2.564  0.9162 -3.8779 -0.1514
   24GLOH    C3 8512   2.321   4.022   2.279  0.6397  0.2614  0.9394
   24GLOH   H06 8513   2.420   4.048   2.317 -0.3334  0.6894  3.2968
   24GLOH   H07 8514   2.266   4.115   2.261  2.2310  1.1212  0.4043
   24GLOH    O3 8515   2.356   3.962   2.146  0.0494  0.5649  0.0771
   24GLOH   H01 8516   2.274   3.932   2.102 -1.2206  2.2620  1.2515
   25GLOH   H03 8517   3.102   4.494   1.362  1.6938  2.3289 -1.2472
   25GLOH    O1 8518   3.044   4.564   1.398 -0.5353  0.0475 -0.1940
   25GLOH    C1 8519   2.928   4.589   1.307 -0.4619  0.5197 -0.1301
   25GLOH   H02 8520   2.950   4.557   1.205 -2.2492  0.8086 -0.6260
   25GLOH   H08 8521   2.899   4.694   1.302 -0.2559  0.5772 -0.1188
   25GLOH    C2 8522   2.803   4.519   1.349 -0.1623  0.2331 -0.9518
   25GLOH   H04 8523   2.788   4.525   1.457 -1.7805  0.4150 -1.1769
   25GLOH    O2 8524   2.693   4.586   1.281 -0.6922  0.1307  0.1634
   25GLOH   H05 8525   2.613   4.573   1.334  0.5228 -0.6255  1.8811
   25GLOH    C3 8526   2.794   4.362   1.327 -0.2872  0.3482  0.2669
   25GLOH   H06 8527   2.791   4.338   1.221  0.0525 -0.2530  0.3944
   25GLOH   H07 8528   2.699   4.331   1.370 -0.4475  1.2828  0.6014
   25GLOH    O3 8529   2.903   4.287   1.391  0.2133 -0.6459  0.2782
   25GLOH   H01 8530   2.897   4.194   1.364  0.5784 -0.2734 -1.1685
   26GLOH   H03 8531   2.983   2.333   0.736  0.4963 -0.2644  1.4185
   26GLOH    O1 8532   2.976   2.429   0.754 -0.0853  0.0801 -0.4814
   26GLOH    C1 8533   3.113   2.466   0.734 -0.1250  0.4214 -0.4050
   26GLOH   H02 8534   3.128   2.489   0.628  1.2737 -0.4792 -0.4112
   26GLOH   H08 8535   3.181   2.386   0.763 -1.3069 -0.1481  0.8635
   26GLOH    C2 8536   3.161   2.591   0.813  0.1844  0.1416  0.0043
   26GLOH   H04 8537   3.094   2.674   0.787  0.9873  1.3890  1.7293
   26GLOH    O2 8538   3.165   2.560   0.957  0.4998 -0.2795 -0.0496
   26GLOH   H05 8539   3.147   2.647   0.996  0.5931 -1.3261  2.4195
   26GLOH    C3 8540   3.300   2.636   0.764  1.1534 -0.7941  0.3859
   26GLOH   H06 8541   3.375   2.587   0.827 -0.0722 -2.1052  0.8680
   26GLOH   H07 8542   3.325   2.737   0.796  1.3072  0.0256 -2.2767
   26GLOH    O3 8543   3.317   2.623   0.626 -0.8836  0.3762  0.7470
   26GLOH   H01 8544   3.243   2.668   0.581 -0.9028 -0.2406  0.1443
   27GLOH   H03 8545   2.299   5.447   0.195 -0.3251 -0.3533 -0.6015
   27GLOH    O1 8546   2.350   5.524   0.164  0.3498 -0.6225 -0.1782
   27GLOH    C1 8547   2.366   5.630   0.273  0.6398  0.0044 -0.0404
   27GLOH   H02 8548   2.471   5.660   0.287  0.4889  1.1788 -1.3003
   27GLOH   H08 8549   2.316   5.596   0.363  0.8339 -0.6765 -0.1916
   27GLOH    C2 8550   2.278   5.756   0.244  0.1757  0.6713 -0.1443
   27GLOH   H04 8551   2.175   5.717   0.234  0.1267  0.7584  0.0164
   27GLOH    O2 8552   2.292   5.848   0.353 -0.2666 -0.2825  0.1443
   27GLOH   H05 8553   2.385   5.869   0.373  0.0659  1.5757 -3.0010
   27GLOH    C3 8554   2.318   5.818   0.105  0.8403 -0.1233 -0.3134
   27GLOH   H06 8555   2.240   5.886   0.071  0.8564  0.9438  1.6791
   27GLOH   H07 8556   2.318   5.734   0.036  2.3703 -0.8151  0.5105
   27GLOH    O3 8557   2.455   5.869   0.094  0.4825  0.3701 -0.0719
   27GLOH   H01 8558   2.501   5.832   0.017  1.7696  1.5208  0.1191
   28GLOH   H03 8559   3.844   9.527   0.660  0.0999  1.4940 -1.0903
   28GLOH    O1 8560   3.784   9.577   0.719 -0.4627 -0.0549 -0.3238
   28GLOH    C1 8561   3.693   9.489   0.792  0.2683 -0.1662 -0.4337
   28GLOH   H02 8562   3.675   9.390   0.748  2.5228 -0.3046 -1.1454
   28GLOH   H08 8563   3.592   9.529   0.796 -0.3805 -1.9833  2.5377
   28GLOH    C2 8564   3.732   9.457   0.932  0.0996 -0.6555 -0.3982
   28GLOH   H04 8565   3.777   9.546   0.979  1.0385 -0.7972 -0.9958
   28GLOH    O2 8566   3.620   9.418   1.013 -0.6602  0.1121  0.5003
   28GLOH   H05 8567   3.563   9.364   0.955  0.3138 -0.8144  0.3878
   28GLOH    C3 8568   3.844   9.350   0.926  0.7949 -0.1184 -0.1995
   28GLOH   H06 8569   3.924   9.379   0.858  0.3479 -0.5063 -0.8885
   28GLOH   H07 8570   3.799   9.262   0.881 -0.4480 -0.4233  1.5733
   28GLOH    O3 8571   3.893   9.304   1.053  0.3171 -0.3130  0.3835
   28GLOH   H01 8572   3.981   9.341   1.074 -0.7396  2.9415 -0.5650
   29GLOH   H03 8573   2.981   0.224   2.370  1.4919  0.1010  2.3944
   29GLOH    O1 8574   2.900   0.208   2.423 -0.0664  1.0404  0.3604
   29GLOH    C1 8575   2.861   0.330   2.487 -0.8553 -0.1633 -0.7066
   29GLOH   H02 8576   2.862   0.409   2.412  0.4185  1.4391  0.9264
   29GLOH   H08 8577   2.939   0.359   2.558 -1.2918  0.3363 -0.4259
   29GLOH    C2 8578   2.737   0.344   2.573 -0.7589 -0.1443 -0.1630
   29GLOH   H04 8579   2.647   0.317   2.515 -1.3454  2.7571 -0.6704
   29GLOH    O2 8580   2.740   0.256   2.686 -0.2476 -0.1061  0.2276
   29GLOH   H05 8581   2.746   0.163   2.656 -0.7683  0.3290 -1.2955
   29GLOH    C3 8582   2.723   0.477   2.636 -0.0987  0.1743  0.8675
   29GLOH   H06 8583   2.813   0.498   2.693 -0.3001  0.2941  1.1482
   29GLOH   H07 8584   2.640   0.481   2.707 -1.2133 -0.7780 -0.3639
   29GLOH    O3 8585   2.716   0.584   2.533 -0.3022  0.1959 -0.5904
   29GLOH   H01 8586   2.720   0.669   2.579 -0.6585 -0.1377  0.0664
   30GLOH   H03 8587   3.364   6.351   2.253  1.9051 -0.4020 -0.6265
   30GLOH    O1 8588   3.382   6.355   2.349 -0.4220 -0.6907 -0.1291
   30GLOH    C1 8589   3.316   6.481   2.388 -1.1626 -0.0083 -0.4101
   30GLOH   H02 8590   3.377   6.572   2.387 -0.7943 -0.2127  1.3745
   30GLOH   H08 8591   3.275   6.469   2.488 -1.7284  2.5753 -0.3017
   30GLOH    C2 8592   3.185   6.505   2.310 -0.7575  0.1146  0.1024
   30GLOH   H04 8593   3.126   6.412   2.317 -1.9382  0.8157 -0.3168
   30GLOH    O2 8594   3.110   6.617   2.364 -0.3670  0.1178 -0.6333
   30GLOH   H05 8595   3.032   6.636   2.308 -2.2101  2.2846  2.4676
   30GLOH    C3 8596   3.215   6.520   2.160 -0.0687 -0.1790  0.9275
   30GLOH   H06 8597   3.289   6.600   2.158 -1.5678  1.2858  2.2822
   30GLOH   H07 8598   3.132   6.555   2.099  0.0745 -0.3059  0.6615
   30GLOH    O3 8599   3.276   6.400   2.108  0.2658  0.0668 -0.0292
   30GLOH   H01 8600   3.283   6.419   2.012  1.0917 -0.8768 -0.1680
   31GLOH   H03 8601   4.728   1.496   0.381  0.9927 -0.5845  0.0288
   31GLOH    O1 8602   4.721   1.510   0.285  0.2526  0.6016  0.2434
   31GLOH    C1 8603   4.853   1.488   0.217  0.2049  0.0293 -0.3100
   31GLOH   H02 8604   4.826   1.439   0.124 -0.5013  0.8583 -0.5372
   31GLOH   H08 8605   4.921   1.415   0.262 -0.7284 -0.5389  0.1766
   31GLOH    C2 8606   4.927   1.617   0.194 -0.3540 -0.3431  0.4194
   31GLOH   H04 8607   5.020   1.589   0.143 -0.4243  3.1976 -1.8454
   31GLOH    O2 8608   4.851   1.705   0.113 -0.0445 -0.1231 -0.4420
   31GLOH   H05 8609   4.790   1.653   0.058 -1.4648  1.3952 -0.3520
   31GLOH    C3 8610   4.962   1.686   0.320 -0.0696  0.0371  0.3990
   31GLOH   H06 8611   4.867   1.708   0.370 -0.7971 -1.6037 -0.2503
   31GLOH   H07 8612   5.008   1.785   0.311  1.8397 -0.5858  2.8132
   31GLOH    O3 8613   5.047   1.601   0.401 -0.1724  0.0737  0.3308
   31GLOH   H01 8614   5.053   1.636   0.492  0.4085  0.0259  0.3171
   32GLOH   H03 8615   4.095   1.418   1.283  2.6608 -1.4798  0.7881
   32GLOH    O1 8616   4.138   1.429   1.196  0.2082 -0.7073 -0.3886
   32GLOH    C1 8617   4.115   1.570   1.180 -0.6189  0.8065 -0.8699
   32GLOH   H02 8618   4.156   1.615   1.271 -1.4491 -0.2177  0.0144
   32GLOH   H08 8619   4.007   1.582   1.180 -0.9029 -1.5620  0.0292
   32GLOH    C2 8620   4.168   1.628   1.051 -0.1217  0.2380 -0.5446
   32GLOH   H04 8621   4.105   1.583   0.973 -1.8092 -0.3832  1.1465
   32GLOH    O2 8622   4.159   1.773   1.055  0.1799  0.8126  0.0018
   32GLOH   H05 8623   4.146   1.812   0.967  1.5641  1.0934 -0.0898
   32GLOH    C3 8624   4.319   1.591   1.045  0.0314  0.1616 -0.5156
   32GLOH   H06 8625   4.355   1.626   0.948  1.6352 -1.1583 -0.4187
   32GLOH   H07 8626   4.327   1.483   1.038  3.3220  0.2930  0.6586
   32GLOH    O3 8627   4.402   1.637   1.149  0.7273 -0.2190  0.2571
   32GLOH   H01 8628   4.493   1.633   1.114 -0.5398 -0.4708 -3.2635
   33GLOH   H03 8629   2.064   5.211   2.745 -0.8107  1.1986  1.0412
   33GLOH    O1 8630   2.008   5.150   2.796 -0.0423  0.2212  0.7448
   33GLOH    C1 8631   2.068   5.037   2.859 -0.0869  0.2945 -0.4256
   33GLOH   H02 8632   2.136   5.078   2.933 -2.5623  4.1518 -0.1672
   33GLOH   H08 8633   2.128   4.988   2.781 -0.8183 -0.6763 -0.3960
   33GLOH    C2 8634   1.968   4.945   2.926  0.8191 -0.9044  0.1764
   33GLOH   H04 8635   1.896   4.919   2.847  1.3412 -0.0314 -0.6089
   33GLOH    O2 8636   2.037   4.836   2.976  0.5929  0.3288  0.7437
   33GLOH   H05 8637   2.036   4.768   2.907  2.9928  1.5940 -0.6369
   33GLOH    C3 8638   1.905   5.028   3.041 -0.1887  0.3308  0.3210
   33GLOH   H06 8639   1.991   5.053   3.104 -1.1750  1.0416  1.3978
   33GLOH   H07 8640   1.845   4.958   3.099  1.4246 -2.0647 -0.7980
   33GLOH    O3 8641   1.833   5.144   2.987  0.1009 -0.5827 -0.4761
   33GLOH   H01 8642   1.870   5.168   2.900  0.2849 -0.0014 -0.2383
   34GLOH   H03 8643   4.002   1.683   0.359 -0.1498  1.1087  1.2938
   34GLOH    O1 8644   4.037   1.755   0.303 -0.6079  0.0871 -0.3527
   34GLOH    C1 8645   4.162   1.700   0.249 -0.4165  0.2804  0.0280
   34GLOH   H02 8646   4.143   1.649   0.155 -1.8538  0.0473  0.4410
   34GLOH   H08 8647   4.207   1.626   0.315  1.2429  1.7416  0.5884
   34GLOH    C2 8648   4.268   1.808   0.225  0.2266  0.0336  0.2597
   34GLOH   H04 8649   4.292   1.864   0.316  0.4805 -0.2496  0.3665
   34GLOH    O2 8650   4.387   1.738   0.192  0.1878 -0.1547 -0.3951
   34GLOH   H05 8651   4.380   1.711   0.099 -0.3860  1.0122 -0.6973
   34GLOH    C3 8652   4.216   1.913   0.120 -0.0326 -0.5370  0.8063
   34GLOH   H06 8653   4.295   1.988   0.118  0.5735 -1.1439  1.5059
   34GLOH   H07 8654   4.132   1.961   0.170  0.5149 -0.1065  1.3207
   34GLOH    O3 8655   4.199   1.865  -0.016  0.0360  0.4865 -0.6398
   34GLOH   H01 8656   4.207   1.939  -0.079 -0.3899  1.9113  0.9667
   35GLOH   H03 8657   4.169   5.286   0.834  1.2246 -2.7935 -1.0461
   35GLOH    O1 8658   4.124   5.240   0.908 -0.6759  0.1121 -0.2883
   35GLOH    C1 8659   4.151   5.101   0.904 -0.1984  0.7413  0.3004
   35GLOH   H02 8660   4.257   5.080   0.919 -0.5150 -2.7554 -1.8960
   35GLOH   H08 8661   4.127   5.062   0.805 -1.4320  1.3160  0.3606
   35GLOH    C2 8662   4.085   5.022   1.023 -0.2445 -0.0430  0.6055
   35GLOH   H04 8663   3.975   5.014   1.018 -0.1942 -1.1167  0.9928
   35GLOH    O2 8664   4.124   4.881   1.031  0.3823  0.3366  0.8052
   35GLOH   H05 8665   4.136   4.866   1.126 -3.3005  1.8101  1.6146
   35GLOH    C3 8666   4.099   5.097   1.153 -0.3927 -0.2533 -0.0225
   35GLOH   H06 8667   4.207   5.097   1.165 -0.5750  0.9003  1.7894
   35GLOH   H07 8668   4.065   5.036   1.237 -1.1768  0.5897  0.2788
   35GLOH    O3 8669   4.045   5.223   1.156 -0.1578 -0.0679 -0.6731
   35GLOH   H01 8670   4.065   5.266   1.071 -2.8097 -1.1265 -1.8773
   36GLOH   H03 8671   2.327   6.559   0.560 -1.2978 -0.1487 -0.2706
   36GLOH    O1 8672   2.281   6.622   0.619 -0.0578  0.3657  0.1801
   36GLOH    C1 8673   2.144   6.580   0.642 -0.0583  0.4571  0.3166
   36GLOH   H02 8674   2.148   6.477   0.676 -0.0668  0.0248 -0.9710
   36GLOH   H08 8675   2.083   6.578   0.551  1.4278 -2.9695 -0.6983
   36GLOH    C2 8676   2.075   6.675   0.748  0.8128 -0.0636  0.7799
   36GLOH   H04 8677   2.076   6.773   0.698  1.1415 -0.3644  0.1987
   36GLOH    O2 8678   1.938   6.629   0.756 -0.3958 -0.6408 -0.3860
   36GLOH   H05 8679   1.892   6.680   0.825  1.0351 -1.0459  0.8891
   36GLOH    C3 8680   2.143   6.686   0.883 -0.5035 -0.8497 -0.5890
   36GLOH   H06 8681   2.249   6.708   0.872 -0.7924  1.5233  0.8702
   36GLOH   H07 8682   2.125   6.594   0.940  1.9968 -0.0758  1.5299
   36GLOH    O3 8683   2.080   6.800   0.956 -0.0492 -0.3131 -0.1482
   36GLOH   H01 8684   2.043   6.858   0.887 -0.3682  0.3170  0.5437
   37GLOH   H03 8685   5.405   4.396   0.954  0.2936  2.4305  0.2008
   37GLOH    O1 8686   5.374   4.436   0.871 -0.1299  0.7937 -0.4548
   37GLOH    C1 8687   5.347   4.339   0.772  0.5682  0.2304  0.3343
   37GLOH   H02 8688   5.281   4.266   0.819 -0.6317 -0.1805 -1.9151
   37GLOH   H08 8689   5.441   4.297   0.736 -0.0908  0.4415 -1.7073
   37GLOH    C2 8690   5.261   4.397   0.660 -0.1850 -0.2223 -0.1312
   37GLOH   H04 8691   5.323   4.479   0.621  0.5206  0.1453  1.7234
   37GLOH    O2 8692   5.245   4.293   0.557  0.0008 -0.1626 -0.2361
   37GLOH   H05 8693   5.169   4.318   0.501 -0.9162 -0.2353  0.9466
   37GLOH    C3 8694   5.127   4.454   0.708  0.2789 -1.0339 -0.8790
   37GLOH   H06 8695   5.154   4.541   0.768 -0.9072 -0.6748 -0.8503
   37GLOH   H07 8696   5.092   4.378   0.778  2.6003 -0.1713  1.2705
   37GLOH    O3 8697   5.030   4.486   0.600  0.4520 -0.6714  0.0964
   37GLOH   H01 8698   4.947   4.497   0.649  0.4146 -1.1874  0.1578
   38GLOH   H03 8699   2.233   6.068   1.335  0.9705  0.1677  2.5406
   38GLOH    O1 8700   2.143   6.064   1.374 -0.1055 -0.5826  0.1277
   38GLOH    C1 8701   2.162   6.080   1.517 -1.1119 -1.1752 -0.0916
   38GLOH   H02 8702   2.166   6.187   1.536  0.1607 -1.5553  1.9228
   38GLOH   H08 8703   2.258   6.032   1.533  1.0331  2.2831 -2.0393
   38GLOH    C2 8704   2.051   6.007   1.600 -0.3956 -0.0163  0.1396
   38GLOH   H04 8705   2.095   5.912   1.634 -0.1980 -0.0704 -0.2644
   38GLOH    O2 8706   2.022   6.080   1.722  0.0428  0.0370 -0.3564
   38GLOH   H05 8707   2.065   6.039   1.799 -0.1516  0.0125 -0.2594
   38GLOH    C3 8708   1.919   5.965   1.526 -0.1972  0.4091  0.6158
   38GLOH   H06 8709   1.871   6.060   1.505 -0.6267  0.1607  0.4805
   38GLOH   H07 8710   1.855   5.904   1.589  0.5470 -1.9292 -0.8316
   38GLOH    O3 8711   1.950   5.908   1.405 -0.5188 -0.0751  0.8517
   38GLOH   H01 8712   2.033   5.950   1.374  0.0231 -0.7428  1.3908
   39GLOH   H03 8713   2.494   4.634   0.877  0.5861 -0.5167 -3.5073
   39GLOH    O1 8714   2.431   4.708   0.863 -0.3092 -0.2555  1.0280
   39GLOH    C1 8715   2.392   4.786   0.980  0.3075 -0.0977  0.1469
   39GLOH   H02 8716   2.446   4.881   0.990  2.0349 -1.2322  2.0627
   39GLOH   H08 8717   2.406   4.730   1.073 -1.4714 -4.4128 -2.0385
   39GLOH    C2 8718   2.243   4.822   0.969 -0.0246  0.3804 -0.1662
   39GLOH   H04 8719   2.186   4.729   0.952 -0.0172 -0.0395  1.9193
   39GLOH    O2 8720   2.205   4.873   1.101  0.0303  0.1593  0.2110
   39GLOH   H05 8721   2.161   4.960   1.094 -0.0762 -0.1383 -3.7740
   39GLOH    C3 8722   2.204   4.931   0.869  0.1117  0.3980  0.1058
   39GLOH   H06 8723   2.228   5.030   0.909  2.7515  0.3821 -1.3591
   39GLOH   H07 8724   2.095   4.931   0.857  0.1398 -2.5664 -0.3343
   39GLOH    O3 8725   2.276   4.908   0.748  0.1992  0.3472  0.5095
   39GLOH   H01 8726   2.330   4.832   0.775 -0.4152 -0.7276 -1.1914
   40GLOH   H03 8727   4.284   0.379   0.536  0.3115 -0.0693 -1.6295
   40GLOH    O1 8728   4.260   0.474   0.533 -0.5438 -0.2045 -0.1178
   40GLOH    C1 8729   4.333   0.547   0.631 -0.4195 -0.1133  0.0237
   40GLOH   H02 8730   4.438   0.516   0.634 -0.9664 -2.0164  0.2819
   40GLOH   H08 8731   4.288   0.525   0.728  1.3566 -1.7745  0.4988
   40GLOH    C2 8732   4.326   0.706   0.617  0.1667 -0.2724  0.1416
   40GLOH   H04 8733   4.222   0.727   0.589 -0.0051  0.4597  1.3106
   40GLOH    O2 8734   4.348   0.778   0.738  0.2436  0.0614 -0.0508
   40GLOH   H05 8735   4.257   0.794   0.769 -0.4904 -2.0206 -0.9979
   40GLOH    C3 8736   4.425   0.753   0.508 -0.0283 -0.7748 -0.1090
   40GLOH   H06 8737   4.520   0.705   0.533  1.6281  1.4726 -1.8820
   40GLOH   H07 8738   4.427   0.859   0.532 -0.4646 -1.1892  1.8713
   40GLOH    O3 8739   4.386   0.735   0.364 -0.4486 -0.3794 -0.8759
   40GLOH   H01 8740   4.317   0.666   0.359 -2.4082  1.1426  2.9981
   41GLOH   H03 8741   3.295   9.671   0.673  2.6009  1.7186  3.6086
   41GLOH    O1 8742   3.237   9.618   0.731 -0.1572  0.4710 -0.1069
   41GLOH    C1 8743   3.309   9.500   0.772 -0.9524 -0.0297 -0.3863
   41GLOH   H02 8744   3.405   9.535   0.808 -1.2679  0.7257 -0.2625
   41GLOH   H08 8745   3.331   9.432   0.690  4.5148  0.1623  0.7287
   41GLOH    C2 8746   3.226   9.413   0.874 -0.4950  0.1418 -0.3484
   41GLOH   H04 8747   3.176   9.484   0.942 -0.4221 -1.6080  1.5716
   41GLOH    O2 8748   3.121   9.330   0.818 -0.3885 -0.9300 -0.0336
   41GLOH   H05 8749   3.145   9.308   0.726 -1.7970 -0.9014 -0.4159
   41GLOH    C3 8750   3.319   9.333   0.969  0.3479 -0.4050 -0.1043
   41GLOH   H06 8751   3.272   9.246   1.015  1.1877 -0.1987  1.1418
   41GLOH   H07 8752   3.332   9.404   1.050  1.3776 -2.1876  1.3299
   41GLOH    O3 8753   3.437   9.271   0.906  0.2211 -0.5191  0.2557
   41GLOH   H01 8754   3.447   9.180   0.941 -2.4223 -1.4199 -1.2490
   42GLOH   H03 8755   4.088   0.504   1.674  0.1371 -0.5260  0.0923
   42GLOH    O1 8756   4.017   0.437   1.675 -0.6062  0.2546  0.4026
   42GLOH    C1 8757   4.068   0.338   1.585 -0.5683  0.1700  0.0030
   42GLOH   H02 8758   4.114   0.253   1.634  0.1572  0.0430 -0.8785
   42GLOH   H08 8759   4.149   0.376   1.524 -0.7937 -0.0058 -0.4101
   42GLOH    C2 8760   3.962   0.289   1.490  0.5491  0.0435  0.1941
   42GLOH   H04 8761   4.009   0.228   1.411 -0.6295  1.9331 -2.0566
   42GLOH    O2 8762   3.875   0.194   1.552 -0.1537  0.3193  0.0295
   42GLOH   H05 8763   3.895   0.175   1.645 -1.7268 -2.1116 -0.0799
   42GLOH    C3 8764   3.896   0.410   1.419 -0.4000  0.1936  0.4410
   42GLOH   H06 8765   3.852   0.483   1.486  0.8993 -1.4121  3.1096
   42GLOH   H07 8766   3.815   0.380   1.352  0.6121 -0.6920 -0.4099
   42GLOH    O3 8767   4.006   0.475   1.345  0.6320  0.0967 -0.6422
   42GLOH   H01 8768   4.060   0.533   1.402 -1.1464 -0.4732  1.6800
   43GLOH   H03 8769   4.313   0.804   0.176  1.0579  1.8160 -1.4712
   43GLOH    O1 8770   4.250   0.763   0.113  0.0012  0.5956  0.3337
   43GLOH    C1 8771   4.131   0.844   0.115  0.2556 -0.2074 -0.8219
   43GLOH   H02 8772   4.070   0.820   0.028 -1.1268 -2.9475  0.8382
   43GLOH   H08 8773   4.160   0.949   0.116 -0.8801  0.0910  0.4577
   43GLOH    C2 8774   4.032   0.823   0.234 -0.4917 -0.0218  0.7242
   43GLOH   H04 8775   3.995   0.720   0.238 -2.1213  0.4961 -0.1603
   43GLOH    O2 8776   4.105   0.846   0.357  0.5176 -0.3381  0.3671
   43GLOH   H05 8777   4.144   0.935   0.344  1.0315 -0.5529  0.4333
   43GLOH    C3 8778   3.906   0.913   0.222 -1.0251 -0.1880 -0.1532
   43GLOH   H06 8779   3.940   1.016   0.239  0.8023 -0.8906  0.6057
   43GLOH   H07 8780   3.839   0.881   0.301 -0.0591 -1.2982  0.2262
   43GLOH    O3 8781   3.854   0.902   0.088 -0.6957 -0.2945 -0.1168
   43GLOH   H01 8782   3.817   0.989   0.065 -3.3902 -0.8170  2.0965
   44GLOH   H03 8783   3.836   5.487   2.319 -0.3919 -4.7019 -1.2256
   44GLOH    O1 8784   3.867   5.472   2.410  0.0046 -0.1634 -0.5240
   44GLOH    C1 8785   3.886   5.331   2.425 -0.1933 -0.5880  0.5377
   44GLOH   H02 8786   3.951   5.282   2.352 -1.6214 -1.3980 -0.2025
   44GLOH   H08 8787   3.789   5.284   2.412 -0.1723 -0.7819  1.0534
   44GLOH    C2 8788   3.920   5.303   2.574 -0.3592  0.2791 -0.1508
   44GLOH   H04 8789   3.921   5.193   2.575  3.0894  0.2458  0.7959
   44GLOH    O2 8790   4.046   5.358   2.617  0.6711  0.4794  0.0063
   44GLOH   H05 8791   4.047   5.352   2.714  2.1646  1.0910  0.0410
   44GLOH    C3 8792   3.804   5.358   2.663 -0.0475  0.1960 -0.4801
   44GLOH   H06 8793   3.717   5.300   2.632 -0.2730  0.8228 -1.0322
   44GLOH   H07 8794   3.791   5.464   2.642  0.9944  1.0744  2.9841
   44GLOH    O3 8795   3.828   5.323   2.804 -0.1026 -0.5853  0.4663
   44GLOH   H01 8796   3.741   5.314   2.848  0.2875  1.0304  1.6114
   45GLOH   H03 8797   4.880   4.045   0.663 -0.0724 -0.1416 -0.2730
   45GLOH    O1 8798   4.931   4.015   0.586 -0.6961 -0.6516 -0.4950
   45GLOH    C1 8799   5.013   4.122   0.542  0.6725 -0.2277  0.2866
   45GLOH   H02 8800   5.102   4.082   0.492  0.3375 -1.8230  0.9542
   45GLOH   H08 8801   5.041   4.189   0.623 -1.2430  0.9454  0.0104
   45GLOH    C2 8802   4.938   4.211   0.447  0.1787  0.0019  0.4810
   45GLOH   H04 8803   4.867   4.264   0.512  0.7696  2.0958 -0.5429
   45GLOH    O2 8804   5.026   4.311   0.385  0.6620  0.5518 -0.0335
   45GLOH   H05 8805   5.014   4.394   0.435 -0.4460  0.4068 -0.0574
   45GLOH    C3 8806   4.835   4.139   0.347 -0.1383 -0.3256 -0.1239
   45GLOH   H06 8807   4.877   4.061   0.284  1.2453  0.4870 -0.2383
   45GLOH   H07 8808   4.787   4.199   0.270  1.1199 -0.7344 -1.2591
   45GLOH    O3 8809   4.732   4.080   0.424  0.4137 -0.4217  0.5239
   45GLOH   H01 8810   4.773   4.009   0.475 -0.0750 -2.3040 -1.6360
   46GLOH   H03 8811   2.792   9.142   1.865 -1.2948 -0.7140  0.9527
   46GLOH    O1 8812   2.732   9.187   1.803  0.4775 -0.0947 -0.3755
   46GLOH    C1 8813   2.768   9.125   1.680 -0.0652  0.0891 -0.2803
   46GLOH   H02 8814   2.793   9.019   1.682 -0.3247 -0.0385 -2.2875
   46GLOH   H08 8815   2.857   9.170   1.635 -0.1494 -1.4257 -2.0060
   46GLOH    C2 8816   2.655   9.149   1.574 -0.8009  0.7844 -0.0213
   46GLOH   H04 8817   2.627   9.255   1.577  3.8723  2.1235  1.4762
   46GLOH    O2 8818   2.696   9.114   1.439  0.4953 -0.4054 -0.1720
   46GLOH   H05 8819   2.618   9.113   1.382 -1.0783 -1.2469  1.9618
   46GLOH    C3 8820   2.529   9.072   1.608 -0.8633 -0.6574 -0.2074
   46GLOH   H06 8821   2.494   9.096   1.708 -0.5472  0.0044 -0.2568
   46GLOH   H07 8822   2.550   8.966   1.596  0.6301 -0.4711  0.6449
   46GLOH    O3 8823   2.425   9.112   1.525 -0.6703  0.1247 -0.0989
   46GLOH   H01 8824   2.375   9.031   1.503  1.4341 -1.0178 -0.8671
   47GLOH   H03 8825   3.593   7.588   1.083  0.8306  0.5035  0.0393
   47GLOH    O1 8826   3.630   7.515   1.030 -0.4975 -0.1724  0.0483
   47GLOH    C1 8827   3.736   7.570   0.945 -0.0610  0.1257 -0.6998
   47GLOH   H02 8828   3.832   7.524   0.967  0.4794  1.4248 -0.3034
   47GLOH   H08 8829   3.740   7.677   0.967 -1.1470  0.1645 -0.6502
   47GLOH    C2 8830   3.707   7.542   0.795 -0.1044  0.3579 -0.8732
   47GLOH   H04 8831   3.612   7.591   0.770 -0.5878 -0.5823 -0.9051
   47GLOH    O2 8832   3.810   7.600   0.710 -0.2336 -0.0113 -0.5540
   47GLOH   H05 8833   3.787   7.610   0.616  0.0792  0.6481 -0.5620
   47GLOH    C3 8834   3.690   7.391   0.778  0.7643 -0.0821 -0.7146
   47GLOH   H06 8835   3.786   7.346   0.804  1.0456  2.0943  2.2197
   47GLOH   H07 8836   3.663   7.371   0.674 -3.6319 -2.5463  0.7803
   47GLOH    O3 8837   3.597   7.335   0.863  0.0626 -0.6144  0.0620
   47GLOH   H01 8838   3.597   7.403   0.933 -0.0501 -0.0394 -0.4885
   48GLOH   H03 8839   4.439   1.234   2.356  2.0662  0.0800 -1.2528
   48GLOH    O1 8840   4.408   1.299   2.290  0.8419  0.1482 -0.6093
   48GLOH    C1 8841   4.374   1.230   2.172  0.7938  0.0587  0.4352
   48GLOH   H02 8842   4.289   1.280   2.126  0.7512  0.4583  0.9444
   48GLOH   H08 8843   4.357   1.125   2.196 -0.4566  0.0405 -0.4914
   48GLOH    C2 8844   4.487   1.231   2.063  0.2776  0.2699  0.4838
   48GLOH   H04 8845   4.572   1.188   2.118 -2.1758  0.1126  4.2811
   48GLOH    O2 8846   4.460   1.151   1.945 -0.0243  0.6313 -0.2785
   48GLOH   H05 8847   4.528   1.158   1.876  1.0659 -1.4531  0.5462
   48GLOH    C3 8848   4.522   1.374   2.023  0.3029  0.0345 -0.5607
   48GLOH   H06 8849   4.450   1.404   1.947 -0.3161  0.8539  0.3506
   48GLOH   H07 8850   4.616   1.364   1.969  1.0877  1.0014  0.6060
   48GLOH    O3 8851   4.541   1.473   2.133 -0.2166  0.3756  0.2726
   48GLOH   H01 8852   4.518   1.427   2.216 -1.3111  1.6608  0.7002
   49GLOH   H03 8853   4.777   3.051   0.944  0.1051  0.4960 -0.9742
   49GLOH    O1 8854   4.754   3.137   0.984 -0.2420 -0.2940  0.5679
   49GLOH    C1 8855   4.841   3.187   1.085 -0.3581  0.0889 -0.1284
   49GLOH   H02 8856   4.825   3.124   1.172  0.2697  1.3462  0.9108
   49GLOH   H08 8857   4.820   3.290   1.113 -2.7677 -0.0239 -1.3261
   49GLOH    C2 8858   4.987   3.180   1.052 -0.4737  0.8582  0.3245
   49GLOH   H04 8859   4.997   3.075   1.022  1.9129  1.1590  0.0199
   49GLOH    O2 8860   5.036   3.253   0.940 -0.4248  0.4619  0.0837
   49GLOH   H05 8861   5.016   3.206   0.858 -3.4268  0.6395  0.6591
   49GLOH    C3 8862   5.079   3.207   1.171  0.0840  0.5331 -0.5301
   49GLOH   H06 8863   5.179   3.179   1.139 -0.0001  0.2552 -0.5592
   49GLOH   H07 8864   5.051   3.135   1.248  1.8583 -0.1746 -0.5224
   49GLOH    O3 8865   5.066   3.338   1.223  0.1278  0.4017  0.3390
   49GLOH   H01 8866   5.144   3.392   1.204 -0.2037  0.9067  0.4097
   50GLOH   H03 8867   3.813   5.092   0.489 -0.1614 -0.5171 -0.5914
   50GLOH    O1 8868   3.877   5.162   0.465 -0.3570 -0.0124  0.3284
   50GLOH    C1 8869   3.875   5.251   0.575  0.4865  0.2541  0.7222
   50GLOH   H02 8870   3.947   5.211   0.647 -0.7770  0.0226  1.8833
   50GLOH   H08 8871   3.785   5.246   0.636 -1.1309  1.4153 -1.4917
   50GLOH    C2 8872   3.918   5.389   0.543  0.5637  0.1791  0.0189
   50GLOH   H04 8873   3.926   5.448   0.635 -0.8904 -1.8666  1.4991
   50GLOH    O2 8874   4.049   5.396   0.478 -0.1181  0.4229  0.2716
   50GLOH   H05 8875   4.048   5.330   0.406  1.6511 -1.1957  1.7039
   50GLOH    C3 8876   3.811   5.454   0.457 -0.3273 -1.3360 -0.9557
   50GLOH   H06 8877   3.806   5.402   0.362 -1.6130 -2.2889 -0.3862
   50GLOH   H07 8878   3.841   5.558   0.442 -0.8976 -0.8366  1.2220
   50GLOH    O3 8879   3.676   5.450   0.520  0.0386  0.3380 -0.1404
   50GLOH   H01 8880   3.625   5.523   0.481 -1.1176 -0.1102  0.5251
   51GLOH   H03 8881   4.725   4.387   2.685 -0.5017 -0.5708 -0.1588
   51GLOH    O1 8882   4.810   4.373   2.640 -0.3110 -0.1227  0.0483
   51GLOH    C1 8883   4.925   4.406   2.718  0.6576  0.0198  0.1472
   51GLOH   H02 8884   4.917   4.481   2.797  0.1710  1.3820 -1.1519
   51GLOH   H08 8885   5.009   4.442   2.657  1.7686 -1.7613  0.5840
   51GLOH    C2 8886   4.988   4.284   2.792  0.1576  0.3679 -0.5114
   51GLOH   H04 8887   4.919   4.234   2.861  2.7073 -0.4631  1.5058
   51GLOH    O2 8888   5.030   4.192   2.695  0.4402  0.4258 -0.2457
   51GLOH   H05 8889   4.951   4.143   2.664  1.4625 -0.8619 -0.8501
   51GLOH    C3 8890   5.110   4.336   2.877  0.0810  0.3004 -0.4978
   51GLOH   H06 8891   5.169   4.385   2.800 -0.0631 -0.1345 -0.8862
   51GLOH   H07 8892   5.177   4.266   2.927 -0.1398  0.6463  0.2938
   51GLOH    O3 8893   5.066   4.424   2.979 -0.2119  0.0338  0.7692
   51GLOH   H01 8894   5.053   4.366   3.056 -0.1911 -0.2952  0.5294
   52GLOH   H03 8895   3.996   5.298   1.316  0.6683 -0.3728  1.5012
   52GLOH    O1 8896   3.936   5.329   1.385 -0.4089 -0.2825  0.5364
   52GLOH    C1 8897   3.811   5.364   1.319 -0.1159 -0.2752  0.9549
   52GLOH   H02 8898   3.772   5.281   1.260 -2.2908  2.7762 -2.0837
   52GLOH   H08 8899   3.834   5.442   1.246 -0.0165 -0.9230  0.2804
   52GLOH    C2 8900   3.711   5.415   1.427 -0.3602 -0.5257 -0.4653
   52GLOH   H04 8901   3.742   5.514   1.463 -0.6532 -0.2089 -1.0853
   52GLOH    O2 8902   3.575   5.418   1.377  0.7096 -0.5857 -0.3785
   52GLOH   H05 8903   3.576   5.407   1.281 -0.0439 -0.7488 -0.3752
   52GLOH    C3 8904   3.715   5.328   1.553 -0.4707 -0.1738  0.3984
   52GLOH   H06 8905   3.708   5.229   1.508 -0.5829 -0.6752  1.4888
   52GLOH   H07 8906   3.626   5.354   1.610 -1.4359  1.5666 -1.8115
   52GLOH    O3 8907   3.846   5.341   1.617  0.3740 -0.1553  0.4410
   52GLOH   H01 8908   3.917   5.341   1.551  0.1414 -1.0381  0.1884
   53GLOH   H03 8909   2.922   5.108   0.359  1.1131 -1.6177  0.5376
   53GLOH    O1 8910   2.904   5.079   0.267  0.0123 -0.0184  0.2414
   53GLOH    C1 8911   2.826   5.169   0.184 -0.8044  0.6803 -0.0770
   53GLOH   H02 8912   2.752   5.216   0.249 -0.9509  0.3544 -0.0063
   53GLOH   H08 8913   2.781   5.110   0.104  0.9549 -0.8284  0.0044
   53GLOH    C2 8914   2.901   5.290   0.113 -0.2980 -0.1914 -0.9582
   53GLOH   H04 8915   2.984   5.239   0.060 -1.2589 -4.4819  1.4096
   53GLOH    O2 8916   2.813   5.359   0.021 -0.2501 -1.0233 -0.6811
   53GLOH   H05 8917   2.722   5.349   0.053 -1.1197  1.8244 -2.0366
   53GLOH    C3 8918   2.952   5.384   0.228  0.2516  0.6557 -0.0581
   53GLOH   H06 8919   2.872   5.419   0.294  0.1811  0.7094 -0.1723
   53GLOH   H07 8920   2.997   5.471   0.179 -2.4525  2.1296 -0.0265
   53GLOH    O3 8921   3.041   5.310   0.308  0.4183 -0.5103  0.2831
   53GLOH   H01 8922   3.109   5.378   0.323 -1.4946  1.5632 -0.3332
   54GLOH   H03 8923   3.500   3.229   1.775  0.9205 -0.3627  0.5271
   54GLOH    O1 8924   3.443   3.150   1.785  0.2902 -0.0628 -0.5197
   54GLOH    C1 8925   3.436   3.078   1.660 -0.1031  0.0484 -0.1855
   54GLOH   H02 8926   3.335   3.093   1.622 -0.8373  0.9246  2.0188
   54GLOH   H08 8927   3.442   2.971   1.678 -0.1682 -0.2819 -2.0415
   54GLOH    C2 8928   3.551   3.118   1.561  0.4484 -0.5120  0.1557
   54GLOH   H04 8929   3.646   3.096   1.611 -0.0592 -0.5768  1.1127
   54GLOH    O2 8930   3.537   3.046   1.435  0.0391  0.5609 -0.7742
   54GLOH   H05 8931   3.621   3.074   1.394  0.5910 -1.1398 -0.8299
   54GLOH    C3 8932   3.543   3.268   1.526 -0.0209 -0.2025 -0.6236
   54GLOH   H06 8933   3.455   3.285   1.464  0.2268  0.1493 -0.8853
   54GLOH   H07 8934   3.628   3.306   1.469 -2.0037  1.1732 -2.7348
   54GLOH    O3 8935   3.540   3.357   1.639 -0.0544  0.3022  0.1581
   54GLOH   H01 8936   3.580   3.445   1.626  1.0306 -0.2955 -0.6406
   55GLOH   H03 8937   3.929   8.443   1.077 -0.2176  2.0974 -1.2482
   55GLOH    O1 8938   3.999   8.408   1.019  0.2126  0.3800  0.2699
   55GLOH    C1 8939   4.110   8.342   1.078  0.2982 -0.2794 -0.3139
   55GLOH   H02 8940   4.157   8.283   1.000  0.3749 -0.2463 -0.2923
   55GLOH   H08 8941   4.082   8.270   1.155  0.2214 -0.8756 -0.8938
   55GLOH    C2 8942   4.204   8.445   1.141 -0.5251  0.0707 -0.4576
   55GLOH   H04 8943   4.217   8.527   1.068  0.8962 -1.7333 -2.2924
   55GLOH    O2 8944   4.153   8.488   1.266  0.2956  0.8895  0.1411
   55GLOH   H05 8945   4.095   8.565   1.256  0.1635  0.5589 -1.8011
   55GLOH    C3 8946   4.339   8.380   1.174 -0.5031 -0.5910  0.1866
   55GLOH   H06 8947   4.330   8.300   1.247  0.2580 -0.5666  0.3047
   55GLOH   H07 8948   4.397   8.462   1.217 -0.6479 -0.1279 -0.4810
   55GLOH    O3 8949   4.412   8.336   1.058 -0.1791  0.2019 -0.1946
   55GLOH   H01 8950   4.482   8.280   1.096  1.2227  2.1593  0.2231
   56GLOH   H03 8951   2.767   2.820   1.879  0.4091  0.0509  0.2049
   56GLOH    O1 8952   2.790   2.732   1.913  0.9512 -0.0501 -0.4174
   56GLOH    C1 8953   2.672   2.650   1.916 -0.4034  0.2871 -0.5872
   56GLOH   H02 8954   2.600   2.680   1.840 -1.2960 -0.3623 -0.0146
   56GLOH   H08 8955   2.628   2.658   2.015 -1.5868  1.3149 -1.1852
   56GLOH    C2 8956   2.715   2.503   1.907  0.2584  0.1611 -0.0028
   56GLOH   H04 8957   2.819   2.496   1.942  0.8684  1.3590 -1.5038
   56GLOH    O2 8958   2.621   2.406   1.964 -0.1545 -0.5368  0.2089
   56GLOH   H05 8959   2.558   2.394   1.891 -0.7933 -1.1405  0.8512
   56GLOH    C3 8960   2.750   2.469   1.759  0.0248 -0.0802 -0.4354
   56GLOH   H06 8961   2.670   2.494   1.689  1.0192 -0.0862 -1.5766
   56GLOH   H07 8962   2.768   2.362   1.748 -2.6181 -0.5537 -0.5430
   56GLOH    O3 8963   2.872   2.534   1.726 -0.6769 -0.0330  0.0603
   56GLOH   H01 8964   2.875   2.630   1.743 -1.6145  0.1707 -0.8459
   57GLOH   H03 8965   2.819   6.695   2.825 -0.9409  1.2961  1.3160
   57GLOH    O1 8966   2.741   6.669   2.773  0.3319  0.1344 -0.0602
   57GLOH    C1 8967   2.628   6.711   2.852  0.0116  0.1280  0.5971
   57GLOH   H02 8968   2.654   6.713   2.958 -0.4973  1.1373  0.7076
   57GLOH   H08 8969   2.541   6.648   2.834  0.1295  0.2948 -0.6473
   57GLOH    C2 8970   2.570   6.850   2.821  0.0947  0.1574  0.6572
   57GLOH   H04 8971   2.482   6.866   2.885 -0.4880  1.6169 -0.4980
   57GLOH    O2 8972   2.674   6.948   2.865 -0.0973 -0.1276  0.5515
   57GLOH   H05 8973   2.759   6.922   2.825  0.6414  1.7270  0.8837
   57GLOH    C3 8974   2.545   6.870   2.670  0.0167  0.4984 -0.7461
   57GLOH   H06 8975   2.507   6.972   2.659 -1.4557  0.3429  2.3861
   57GLOH   H07 8976   2.467   6.796   2.649  0.4168 -0.8636  2.3006
   57GLOH    O3 8977   2.660   6.851   2.585 -0.4121 -0.3780 -0.0368
   57GLOH   H01 8978   2.706   6.770   2.613 -0.1218  0.1958  1.2005
   58GLOH   H03 8979   3.896   9.796   1.930 -0.1418 -0.5882  0.3372
   58GLOH    O1 8980   3.979   9.846   1.921 -0.0241 -0.8821 -0.2596
   58GLOH    C1 8981   4.047   9.852   2.051  0.5033 -0.1943  0.0851
   58GLOH   H02 8982   4.147   9.889   2.027  0.5187  0.1019  0.5964
   58GLOH   H08 8983   4.077   9.755   2.092  1.2584  0.2332  0.5754
   58GLOH    C2 8984   3.989   9.945   2.165  0.9064  0.1184  0.3459
   58GLOH   H04 8985   3.955  10.046   2.136  0.8488  0.2008  0.6913
   58GLOH    O2 8986   3.868   9.906   2.217  0.0864  0.4458  0.0319
   58GLOH   H05 8987   3.843   9.955   2.297  2.1200  0.9565  0.3833
   58GLOH    C3 8988   4.097   9.964   2.275 -0.1239  0.6574  0.2677
   58GLOH   H06 8989   4.134   9.863   2.296 -0.6960  0.4453  0.2778
   58GLOH   H07 8990   4.071   9.994   2.376  1.2169 -1.8021  1.3821
   58GLOH    O3 8991   4.204  10.038   2.218  0.3898  0.4018  0.3093
   58GLOH   H01 8992   4.255  10.069   2.295 -2.3338  0.9952  1.9649
   59GLOH   H03 8993   3.042   4.227   0.698  1.9392 -3.1806 -1.2656
   59GLOH    O1 8994   3.114   4.268   0.749 -0.4358  0.2366 -0.4001
   59GLOH    C1 8995   3.140   4.398   0.702  0.1770  0.2838 -0.1209
   59GLOH   H02 8996   3.233   4.429   0.749 -0.0991  1.2743 -0.2317
   59GLOH   H08 8997   3.063   4.473   0.717 -0.1056  0.1757 -0.9757
   59GLOH    C2 8998   3.158   4.397   0.552 -0.6781 -0.7897  0.6658
   59GLOH   H04 8999   3.068   4.340   0.524 -0.5471 -0.1377 -1.1976
   59GLOH    O2 9000   3.151   4.527   0.500 -0.3042 -0.4348  0.3427
   59GLOH   H05 9001   3.150   4.516   0.403  3.1431 -0.9323  0.3067
   59GLOH    C3 9002   3.288   4.326   0.500  0.1118  0.0196  0.3995
   59GLOH   H06 9003   3.280   4.297   0.395  1.1302  1.7032 -0.1740
   59GLOH   H07 9004   3.308   4.245   0.570  0.6670 -0.0054  0.2185
   59GLOH    O3 9005   3.401   4.413   0.511  0.2614  0.5520  0.9375
   59GLOH   H01 9006   3.397   4.460   0.596 -2.6938  2.0721  0.0193
   60GLOH   H03 9007   4.664   4.010   0.132 -2.0794 -0.6150 -1.0029
   60GLOH    O1 9008   4.689   4.076   0.065 -0.3512 -0.0250  0.1518
   60GLOH    C1 9009   4.573   4.116  -0.006 -0.2626 -0.3283 -0.0831
   60GLOH   H02 9010   4.582   4.218  -0.042 -0.1454 -0.3298 -0.0575
   60GLOH   H08 9011   4.480   4.112   0.051 -0.7752 -0.0496 -0.8982
   60GLOH    C2 9012   4.569   4.037  -0.138 -1.1051  0.5280  0.9892
   60GLOH   H04 9013   4.575   3.932  -0.105  1.3007  0.3461  0.0048
   60GLOH    O2 9014   4.451   4.066  -0.215 -0.0844  0.9039  0.2186
   60GLOH   H05 9015   4.440   3.999  -0.284  0.8574  1.0182 -0.0418
   60GLOH    C3 9016   4.690   4.065  -0.224  0.0854 -0.2223  0.4395
   60GLOH   H06 9017   4.676   4.159  -0.279  0.4221 -0.3125  0.1963
   60GLOH   H07 9018   4.696   3.996  -0.308  2.3786  0.7867 -0.2826
   60GLOH    O3 9019   4.820   4.065  -0.157 -0.1298  0.2731  0.7378
   60GLOH   H01 9020   4.805   4.049  -0.062 -0.7459 -1.6225  0.3546
   61GLOH   H03 9021   3.539   3.746   2.208  0.4049 -0.5236  2.1991
   61GLOH    O1 9022   3.581   3.664   2.177  0.1410  0.0505  0.2413
   61GLOH    C1 9023   3.694   3.689   2.099  0.0027  0.1390  0.1638
   61GLOH   H02 9024   3.775   3.696   2.171  1.1251  0.4558 -1.1009
   61GLOH   H08 9025   3.686   3.783   2.044  1.3227 -0.4757 -1.0921
   61GLOH    C2 9026   3.739   3.574   2.009  1.0032 -0.8039 -0.8592
   61GLOH   H04 9027   3.744   3.485   2.073  0.8539 -0.2128 -0.0166
   61GLOH    O2 9028   3.653   3.549   1.894 -0.1317  0.3436  0.6069
   61GLOH   H05 9029   3.578   3.488   1.904 -0.3998 -0.3425 -4.5433
   61GLOH    C3 9030   3.882   3.617   1.964  0.0087  0.6939  0.1394
   61GLOH   H06 9031   3.879   3.718   1.923  0.9678  0.4901 -0.4392
   61GLOH   H07 9032   3.893   3.551   1.878  3.2003 -1.7174  2.2900
   61GLOH    O3 9033   3.994   3.605   2.061  0.2856 -0.3296  0.0712
   61GLOH   H01 9034   3.991   3.519   2.106  0.2366  0.5213  1.7109
   62GLOH   H03 9035   4.087   2.338   2.475  0.9956 -0.2972 -3.0832
   62GLOH    O1 9036   4.046   2.426   2.463  0.2250 -0.1655  0.1074
   62GLOH    C1 9037   4.097   2.495   2.350  0.5607  0.4201  0.5109
   62GLOH   H02 9038   4.116   2.432   2.263  0.3002  0.6791  0.2692
   62GLOH   H08 9039   4.188   2.549   2.377 -0.6591  2.1719  1.1825
   62GLOH    C2 9040   3.987   2.594   2.313 -0.0671  0.7455  0.2407
   62GLOH   H04 9041   3.940   2.637   2.402  2.6268 -0.5793  2.3898
   62GLOH    O2 9042   4.042   2.704   2.237  0.8711  0.0656  0.4895
   62GLOH   H05 9043   4.110   2.686   2.171  0.6143 -2.7470  0.9486
   62GLOH    C3 9044   3.882   2.519   2.236 -0.0918  0.4444  0.4535
   62GLOH   H06 9045   3.835   2.431   2.279 -3.1477  2.0765  0.6612
   62GLOH   H07 9046   3.934   2.477   2.150 -0.9100 -1.0862  0.6837
   62GLOH    O3 9047   3.770   2.601   2.196 -0.5189  0.4597 -0.0711
   62GLOH   H01 9048   3.785   2.636   2.106  0.9538  1.3457  0.4948
   63GLOH   H03 9049   2.146   2.830   1.372 -1.7872  0.4725  0.3774
   63GLOH    O1 9050   2.148   2.733   1.368 -0.0304  0.4983  0.2270
   63GLOH    C1 9051   2.287   2.693   1.352 -0.0478 -0.0787 -0.4572
   63GLOH   H02 9052   2.285   2.584   1.351  0.0294 -0.0816 -2.2543
   63GLOH   H08 9053   2.334   2.724   1.445  0.2175 -5.1969  1.2060
   63GLOH    C2 9054   2.368   2.747   1.227 -0.2337  0.2267  0.9399
   63GLOH   H04 9055   2.375   2.857   1.233 -0.4908  0.3785 -1.1888
   63GLOH    O2 9056   2.502   2.695   1.221 -0.2292 -0.1469  0.6522
   63GLOH   H05 9057   2.544   2.749   1.152  2.0907 -0.5157  1.7157
   63GLOH    C3 9058   2.295   2.712   1.105  0.0645  0.3185 -0.6280
   63GLOH   H06 9059   2.194   2.750   1.122 -0.6197 -1.6392 -0.1018
   63GLOH   H07 9060   2.293   2.603   1.106  3.2179  0.2263  0.4586
   63GLOH    O3 9061   2.353   2.762   0.985  0.0065 -0.2279  0.1837
   63GLOH   H01 9062   2.332   2.695   0.918  0.4548  0.8768 -1.0667
   64GLOH   H03 9063   2.516   3.970   2.689 -0.0282  2.2346 -0.2597
   64GLOH    O1 9064   2.420   3.955   2.682  0.2472  0.5313 -0.5330
   64GLOH    C1 9065   2.369   3.923   2.813  0.6725 -0.0266  0.8950
   64GLOH   H02 9066   2.268   3.887   2.798  0.1766  0.0320  3.7511
   64GLOH   H08 9067   2.366   4.013   2.875 -0.8830  0.3305  0.3176
   64GLOH    C2 9068   2.455   3.817   2.874  0.0647 -0.5873  0.4846
   64GLOH   H04 9069   2.552   3.861   2.903 -0.5966  2.1601 -1.2769
   64GLOH    O2 9070   2.387   3.764   2.987 -0.1275 -0.1831 -0.2998
   64GLOH   H05 9071   2.293   3.760   2.966  0.0931  1.7709 -1.7696
   64GLOH    C3 9072   2.479   3.698   2.774 -0.4154 -0.2417  0.2697
   64GLOH   H06 9073   2.534   3.624   2.833  0.9129  0.7233  0.2612
   64GLOH   H07 9074   2.543   3.725   2.690  1.0527 -1.5561  0.9186
   64GLOH    O3 9075   2.357   3.643   2.715 -0.5051 -0.7302  0.4427
   64GLOH   H01 9076   2.365   3.547   2.706  0.2436 -0.4497 -2.1799
   65GLOH   H03 9077   3.499   8.530   0.404  0.2852  1.6891  0.4845
   65GLOH    O1 9078   3.535   8.586   0.333  0.3010  0.9587 -0.0912
   65GLOH    C1 9079   3.660   8.641   0.390 -0.2067  0.2702 -0.0868
   65GLOH   H02 9080   3.734   8.566   0.417 -1.0301  0.0232  1.5782
   65GLOH   H08 9081   3.629   8.691   0.482 -0.8451  1.6357 -1.0234
   65GLOH    C2 9082   3.714   8.743   0.293 -0.2431  0.4168 -0.0464
   65GLOH   H04 9083   3.633   8.817   0.284  1.0882  1.9253  0.2067
   65GLOH    O2 9084   3.831   8.805   0.348  0.0970 -0.0847 -0.4932
   65GLOH   H05 9085   3.825   8.895   0.314 -0.3035  0.1018  0.0517
   65GLOH    C3 9086   3.746   8.687   0.154  0.4673 -0.5232 -0.1832
   65GLOH   H06 9087   3.792   8.762   0.091 -2.1252 -1.0968 -2.8316
   65GLOH   H07 9088   3.648   8.675   0.108  0.3896 -1.7860  0.2853
   65GLOH    O3 9089   3.813   8.554   0.145  0.1371  0.7235 -0.1751
   65GLOH   H01 9090   3.760   8.490   0.095  2.3278 -1.1377 -0.1975
   66GLOH   H03 9091   3.795   8.952   2.547 -0.8317 -0.0355 -1.0610
   66GLOH    O1 9092   3.794   9.046   2.571 -0.1530 -0.2537 -0.1439
   66GLOH    C1 9093   3.696   9.064   2.669 -0.9466 -0.7420  0.0266
   66GLOH   H02 9094   3.623   9.136   2.631 -1.3034 -0.9391  0.3311
   66GLOH   H08 9095   3.737   9.113   2.758 -0.5458 -1.5204  0.2680
   66GLOH    C2 9096   3.618   8.941   2.715 -0.5201 -0.4541  0.4228
   66GLOH   H04 9097   3.525   8.935   2.657 -0.8004  1.4370  0.6289
   66GLOH    O2 9098   3.705   8.830   2.708 -0.7908 -0.3106 -0.3417
   66GLOH   H05 9099   3.657   8.753   2.672 -1.1384 -2.6631  4.5999
   66GLOH    C3 9100   3.569   8.974   2.851  0.0309  0.4550  0.0937
   66GLOH   H06 9101   3.644   9.011   2.921  0.5886 -1.7448  0.7146
   66GLOH   H07 9102   3.536   8.881   2.899 -0.9773  0.9983  0.4781
   66GLOH    O3 9103   3.449   9.054   2.846  0.1985  0.0841  0.0071
   66GLOH   H01 9104   3.410   9.065   2.935 -1.4214 -1.6353 -0.4502
   67GLOH   H03 9105   3.095   5.357   2.362 -1.9243  1.3886 -0.5096
   67GLOH    O1 9106   3.099   5.350   2.265 -0.1978  0.0394 -0.3685
   67GLOH    C1 9107   3.016   5.466   2.216  0.0657  0.1338 -0.1030
   67GLOH   H02 9108   3.082   5.549   2.191  1.8976 -1.3031 -0.1535
   67GLOH   H08 9109   2.947   5.509   2.289  0.9405 -0.7107  1.2605
   67GLOH    C2 9110   2.928   5.440   2.092  0.0965  0.4839  0.0623
   67GLOH   H04 9111   2.856   5.367   2.133  0.3752 -2.7802 -4.9231
   67GLOH    O2 9112   2.877   5.571   2.063 -0.1522  0.1750 -0.6104
   67GLOH   H05 9113   2.831   5.571   1.977  1.8038 -0.3166 -1.6791
   67GLOH    C3 9114   3.003   5.378   1.971  0.0259  0.3727  0.9343
   67GLOH   H06 9115   3.068   5.294   1.997 -1.2518 -1.0478 -0.3143
   67GLOH   H07 9116   3.072   5.450   1.928  1.1228 -0.3846  1.4231
   67GLOH    O3 9117   2.908   5.331   1.880 -0.3251 -0.9484  0.2808
   67GLOH   H01 9118   2.854   5.408   1.857 -0.0116 -0.2774  1.7310
   68GLOH   H03 9119   4.347   3.991   0.355 -3.8526 -0.8678  2.1183
   68GLOH    O1 9120   4.337   4.080   0.392 -0.1046  0.3340  0.5198
   68GLOH    C1 9121   4.414   4.158   0.292  0.2203 -1.0059  1.1043
   68GLOH   H02 9122   4.356   4.176   0.202 -0.4452 -0.9615  1.5385
   68GLOH   H08 9123   4.501   4.101   0.259 -1.1303 -0.8652 -2.8909
   68GLOH    C2 9124   4.476   4.285   0.352  0.2539  0.8877  0.4357
   68GLOH   H04 9125   4.393   4.334   0.405  0.8058  0.9349  1.2656
   68GLOH    O2 9126   4.568   4.263   0.464  0.1819 -0.0695  0.8209
   68GLOH   H05 9127   4.623   4.185   0.445  2.0450  1.0835  1.4085
   68GLOH    C3 9128   4.535   4.375   0.246 -0.3392  0.5226  0.7194
   68GLOH   H06 9129   4.622   4.322   0.208 -0.8729 -0.9044  1.4532
   68GLOH   H07 9130   4.577   4.465   0.291  1.1506  0.7911 -1.1302
   68GLOH    O3 9131   4.448   4.412   0.136 -0.4183 -0.2315  0.1830
   68GLOH   H01 9132   4.497   4.417   0.052 -0.0034 -0.7517  0.3919
   69GLOH   H03 9133   3.057   5.042   1.907 -0.7341  0.6960  0.1046
   69GLOH    O1 9134   3.150   5.017   1.892 -0.9122 -0.0458  0.1917
   69GLOH    C1 9135   3.221   5.048   2.013 -0.3185 -0.2672 -0.5120
   69GLOH   H02 9136   3.174   4.991   2.093  2.3022 -2.0405 -0.1527
   69GLOH   H08 9137   3.227   5.155   2.032  4.0950 -0.4085 -0.4244
   69GLOH    C2 9138   3.361   4.986   2.013  0.6594  0.9103  0.1574
   69GLOH   H04 9139   3.413   5.049   1.938  0.6959  0.9236  0.1941
   69GLOH    O2 9140   3.433   5.012   2.140  0.5015 -0.0362 -0.6735
   69GLOH   H05 9141   3.408   5.091   2.191  1.8508 -0.5172  0.8019
   69GLOH    C3 9142   3.373   4.841   1.965 -0.2091 -0.1619  0.0829
   69GLOH   H06 9143   3.323   4.782   2.041 -1.5365  0.1415 -0.5395
   69GLOH   H07 9144   3.476   4.806   1.956  0.3862  1.3260  0.9235
   69GLOH    O3 9145   3.315   4.825   1.837  0.4371 -0.4145  0.1471
   69GLOH   H01 9146   3.244   4.892   1.839  2.9488  2.3884 -1.0884
   70GLOH   H03 9147   2.628   1.353   1.471  0.8129 -3.4962 -1.4788
   70GLOH    O1 9148   2.713   1.349   1.518  0.6019  0.1130 -0.6081
   70GLOH    C1 9149   2.738   1.484   1.557 -0.4647 -0.2986  0.5077
   70GLOH   H02 9150   2.648   1.541   1.578 -0.4605 -0.1874  0.2256
   70GLOH   H08 9151   2.785   1.536   1.473  1.0332 -2.9372 -0.3596
   70GLOH    C2 9152   2.850   1.498   1.659 -0.8497  0.2886 -0.3385
   70GLOH   H04 9153   2.936   1.462   1.601 -0.4148  0.0049  0.4741
   70GLOH    O2 9154   2.868   1.636   1.679 -1.4084 -0.3605  0.0656
   70GLOH   H05 9155   2.874   1.688   1.597 -2.8231  1.3460  1.0125
   70GLOH    C3 9156   2.825   1.423   1.791  0.0477  0.5249  0.1212
   70GLOH   H06 9157   2.731   1.456   1.835  0.2611 -0.4851  1.3924
   70GLOH   H07 9158   2.906   1.424   1.864  0.1928  3.3321 -0.0561
   70GLOH    O3 9159   2.798   1.279   1.767 -0.2087 -0.6765  0.0856
   70GLOH   H01 9160   2.734   1.290   1.693 -0.0003  0.7157  0.0837
   71GLOH   H03 9161   4.475   3.167   1.107  1.9045 -1.6680  0.7520
   71GLOH    O1 9162   4.454   3.217   1.188  0.5247 -0.7155 -0.1554
   71GLOH    C1 9163   4.565   3.284   1.247 -0.7356  0.3910 -0.4091
   71GLOH   H02 9164   4.636   3.319   1.172 -0.3427  1.6638  0.5520
   71GLOH   H08 9165   4.610   3.207   1.310 -0.0586  0.6042 -0.6268
   71GLOH    C2 9166   4.515   3.405   1.325  0.3486  0.4794 -0.3054
   71GLOH   H04 9167   4.440   3.381   1.402  0.9070  1.7788  0.6759
   71GLOH    O2 9168   4.636   3.458   1.376 -0.4738  0.3266  0.5716
   71GLOH   H05 9169   4.618   3.549   1.405 -0.9104  0.2860  0.4297
   71GLOH    C3 9170   4.454   3.508   1.225 -0.1500  0.8319  0.4523
   71GLOH   H06 9171   4.531   3.558   1.166  0.1381 -0.9534 -0.7423
   71GLOH   H07 9172   4.408   3.590   1.279  0.2815  0.3394  1.5759
   71GLOH    O3 9173   4.362   3.448   1.128  1.3620 -0.1108 -0.1864
   71GLOH   H01 9174   4.369   3.351   1.125 -0.0865 -0.2079 -4.6134
   72GLOH   H03 9175   3.652   8.771   1.750 -1.3404  0.1631 -0.2340
   72GLOH    O1 9176   3.625   8.862   1.776 -0.4799  0.2846  0.2446
   72GLOH    C1 9177   3.739   8.949   1.800  0.1004  0.6001 -0.8236
   72GLOH   H02 9178   3.705   9.051   1.818  0.2045  0.4060  0.4933
   72GLOH   H08 9179   3.808   8.957   1.715 -1.2284  0.3946 -1.9412
   72GLOH    C2 9180   3.830   8.918   1.923 -1.0590  0.5605  0.5871
   72GLOH   H04 9181   3.771   8.869   2.002  1.4624  1.1868  2.8973
   72GLOH    O2 9182   3.903   8.791   1.886  0.9057  0.7239  0.5165
   72GLOH   H05 9183   3.847   8.739   1.826  0.1913  0.9981  0.9413
   72GLOH    C3 9184   3.921   9.031   1.973  0.2625 -0.7916  0.0549
   72GLOH   H06 9185   3.987   9.059   1.891 -1.7204 -1.0856 -1.6865
   72GLOH   H07 9186   3.988   8.997   2.052 -1.8499  1.3851  2.9277
   72GLOH    O3 9187   3.851   9.144   2.025  0.0156  0.2658 -0.7155
   72GLOH   H01 9188   3.874   9.147   2.119  1.4889 -0.2850 -1.0531
   73GLOH   H03 9189   4.044   1.618   1.642  1.3520  3.0285 -0.7260
   73GLOH    O1 9190   4.011   1.610   1.551 -0.1293  0.3683 -0.0201
   73GLOH    C1 9191   3.913   1.704   1.519  0.3554  0.0016 -0.0473
   73GLOH   H02 9192   3.814   1.660   1.529  0.8153 -1.5278 -2.0447
   73GLOH   H08 9193   3.931   1.749   1.421  1.0727  0.5788  0.3438
   73GLOH    C2 9194   3.908   1.826   1.618  0.4980  0.1287 -0.6097
   73GLOH   H04 9195   4.007   1.874   1.608 -0.1469  1.2034 -2.1821
   73GLOH    O2 9196   3.803   1.917   1.591 -0.1333 -0.2628  0.2253
   73GLOH   H05 9197   3.737   1.881   1.530 -0.0345 -1.8676  1.0216
   73GLOH    C3 9198   3.899   1.772   1.763 -0.1923  0.5882  0.4125
   73GLOH   H06 9199   3.816   1.704   1.786 -0.2400  0.2511 -0.7345
   73GLOH   H07 9200   3.883   1.852   1.835  0.1369  1.6194 -0.6447
   73GLOH    O3 9201   4.016   1.695   1.798  0.4686  0.0010  0.0060
   73GLOH   H01 9202   3.993   1.634   1.871  0.0677  0.1263 -0.0148
   74GLOH   H03 9203   4.627   2.997   2.297  1.8694 -0.8017  2.1905
   74GLOH    O1 9204   4.690   3.030   2.231  0.3584 -0.5156  0.8376
   74GLOH    C1 9205   4.689   3.167   2.251 -0.1305 -0.7332  0.1564
   74GLOH   H02 9206   4.761   3.191   2.330 -1.2759 -0.8788  1.2558
   74GLOH   H08 9207   4.593   3.200   2.291  0.0209  0.5860 -0.5515
   74GLOH    C2 9208   4.721   3.256   2.127 -0.2308 -0.0504  0.0151
   74GLOH   H04 9209   4.635   3.253   2.058  1.0324  1.7706 -1.6813
   74GLOH    O2 9210   4.745   3.390   2.171 -0.2368  0.1393  0.3902
   74GLOH   H05 9211   4.755   3.391   2.268 -0.8372  1.8631  0.4526
   74GLOH    C3 9212   4.842   3.197   2.042  0.3463  0.6394  0.4270
   74GLOH   H06 9213   4.809   3.103   1.999  0.0842  0.4629  1.0109
   74GLOH   H07 9214   4.925   3.177   2.110  0.6285  1.5108  0.3462
   74GLOH    O3 9215   4.870   3.300   1.938 -0.4759  0.1928 -0.1342
   74GLOH   H01 9216   4.862   3.386   1.985  0.6253  1.1275 -1.6183
   75GLOH   H03 9217   3.235   4.507   0.126 -2.1157 -0.9967  0.0422
   75GLOH    O1 9218   3.205   4.541   0.212  0.2212  0.2587  0.4129
   75GLOH    C1 9219   3.220   4.679   0.193  0.2892  0.4236 -0.5472
   75GLOH   H02 9220   3.254   4.691   0.089  0.2174 -1.3435 -0.7955
   75GLOH   H08 9221   3.298   4.721   0.257  1.9299 -0.2650 -2.0198
   75GLOH    C2 9222   3.091   4.761   0.206  0.3250  0.0008  0.1875
   75GLOH   H04 9223   3.111   4.866   0.180  0.8699 -0.1691 -0.1004
   75GLOH    O2 9224   2.989   4.708   0.113 -0.0944 -0.1505 -0.1530
   75GLOH   H05 9225   3.012   4.636   0.053 -0.5195 -0.6339  0.2605
   75GLOH    C3 9226   3.028   4.751   0.347 -0.2843  0.4368 -1.2696
   75GLOH   H06 9227   3.108   4.774   0.417 -0.2702 -0.6689 -0.9204
   75GLOH   H07 9228   3.001   4.647   0.364  1.4794  0.0431 -0.8452
   75GLOH    O3 9229   2.924   4.842   0.356 -0.3688 -0.8836 -0.1559
   75GLOH   H01 9230   2.935   4.928   0.311  2.6858 -1.6657 -1.0497
   76GLOH   H03 9231   2.492   9.986   2.093  0.1458 -0.0240  0.5825
   76GLOH    O1 9232   2.442   9.913   2.134  0.3668 -0.0340  0.8298
   76GLOH    C1 9233   2.523   9.868   2.240  0.6853 -0.7380 -0.3137
   76GLOH   H02 9234   2.525   9.935   2.326  2.2390 -0.9618 -0.1545
   76GLOH   H08 9235   2.627   9.870   2.208 -0.0084 -0.9170 -2.6423
   76GLOH    C2 9236   2.492   9.725   2.297  0.1761 -0.1306 -0.5818
   76GLOH   H04 9237   2.524   9.654   2.220 -0.4669 -0.1364 -0.8506
   76GLOH    O2 9238   2.558   9.691   2.424 -0.2480  0.2263  0.6363
   76GLOH   H05 9239   2.624   9.620   2.419 -0.1252  0.1111  3.2612
   76GLOH    C3 9240   2.342   9.711   2.301 -0.4702  0.5598  0.0505
   76GLOH   H06 9241   2.314   9.803   2.353  0.9886  0.6780  0.6360
   76GLOH   H07 9242   2.308   9.635   2.372 -1.5484 -0.2539 -1.3149
   76GLOH    O3 9243   2.280   9.709   2.175 -0.1378  0.2989 -0.0397
   76GLOH   H01 9244   2.294   9.798   2.137  1.5848  1.3355  2.8629
   77GLOH   H03 9245   4.467   1.202   0.726 -0.6323  1.3671 -0.4687
   77GLOH    O1 9246   4.431   1.134   0.667  0.1432  0.3994  0.1474
   77GLOH    C1 9247   4.294   1.158   0.631 -0.7949 -0.0790 -1.0539
   77GLOH   H02 9248   4.274   1.260   0.600 -1.4599 -0.0750 -0.6117
   77GLOH   H08 9249   4.228   1.141   0.715 -0.8508 -1.6747 -1.4041
   77GLOH    C2 9250   4.256   1.075   0.510  0.2486 -0.5996  0.1057
   77GLOH   H04 9251   4.265   0.967   0.529 -1.4463 -0.7896 -0.1074
   77GLOH    O2 9252   4.119   1.099   0.468  0.2495 -1.1720 -0.3685
   77GLOH   H05 9253   4.064   1.043   0.526 -1.2513  0.2392 -0.4105
   77GLOH    C3 9254   4.358   1.096   0.396  0.8978 -0.2226 -0.5930
   77GLOH   H06 9255   4.461   1.089   0.431  0.3693 -0.9877  0.8352
   77GLOH   H07 9256   4.353   1.192   0.346  0.2184 -0.4538 -0.9799
   77GLOH    O3 9257   4.334   0.994   0.296  0.4507 -0.1456  0.1523
   77GLOH   H01 9258   4.379   0.913   0.325  1.0700  0.2160  0.2058
   78GLOH   H03 9259   5.118   3.045   1.609  3.2166  0.5647  0.4821
   78GLOH    O1 9260   5.134   2.958   1.650 -0.3890 -0.3393  0.1478
   78GLOH    C1 9261   5.035   2.945   1.749  0.0792  0.1326 -0.8007
   78GLOH   H02 9262   4.936   2.932   1.705 -0.6816 -0.8440  1.1376
   78GLOH   H08 9263   5.027   3.036   1.809 -1.5117 -0.6202  0.1641
   78GLOH    C2 9264   5.059   2.829   1.847  0.2251  0.0892 -0.3699
   78GLOH   H04 9265   5.151   2.849   1.905  0.1525  0.9859 -0.5531
   78GLOH    O2 9266   4.956   2.816   1.942  0.3298  0.2257 -0.0011
   78GLOH   H05 9267   4.884   2.767   1.899  1.8789  1.4749 -4.2471
   78GLOH    C3 9268   5.064   2.695   1.765  0.2480  0.4107 -0.1967
   78GLOH   H06 9269   4.970   2.676   1.715  0.0059  0.5387  0.2069
   78GLOH   H07 9270   5.082   2.612   1.835  0.5160  1.2471  0.7342
   78GLOH    O3 9271   5.169   2.693   1.668  0.1717 -0.6748  0.5453
   78GLOH   H01 9272   5.186   2.788   1.658  0.5274 -0.6038  1.7645
   79GLOH   H03 9273   3.650   1.741   0.907  0.0675 -0.8245 -1.9603
   79GLOH    O1 9274   3.742   1.755   0.877  0.5508 -0.1598 -0.2256
   79GLOH    C1 9275   3.815   1.632   0.863  0.4969 -0.0369 -0.5220
   79GLOH   H02 9276   3.797   1.571   0.952  1.9354  1.2222  0.6794
   79GLOH   H08 9277   3.919   1.665   0.859  0.6585 -0.2149  1.4548
   79GLOH    C2 9278   3.773   1.559   0.736 -0.1152  0.3304 -0.0680
   79GLOH   H04 9279   3.771   1.629   0.651 -2.6692 -0.5620 -0.8108
   79GLOH    O2 9280   3.869   1.457   0.689 -0.1397 -0.4053 -0.1560
   79GLOH   H05 9281   3.919   1.420   0.763 -0.8817  0.2576  0.6950
   79GLOH    C3 9282   3.626   1.516   0.745 -0.1227  0.2485  0.3708
   79GLOH   H06 9283   3.604   1.433   0.678 -0.0292 -0.0310  0.6825
   79GLOH   H07 9284   3.558   1.597   0.720 -0.5757 -0.7481 -1.7167
   79GLOH    O3 9285   3.585   1.463   0.873  0.2452 -0.3901 -0.2943
   79GLOH   H01 9286   3.488   1.464   0.869  0.2280  2.1462 -0.0780
   80GLOH   H03 9287   4.315   0.462   1.712  0.9866  1.3647  1.4572
   80GLOH    O1 9288   4.255   0.533   1.681  0.2487  0.3260  0.4749
   80GLOH    C1 9289   4.326   0.614   1.584  0.2333  0.2903 -0.0062
   80GLOH   H02 9290   4.406   0.664   1.640  1.7975 -2.1691  0.0634
   80GLOH   H08 9291   4.278   0.696   1.532  2.2616 -0.8495 -3.8595
   80GLOH    C2 9292   4.387   0.522   1.476  0.2794 -0.0766 -0.1180
   80GLOH   H04 9293   4.312   0.461   1.423  2.0531 -1.3353 -1.2418
   80GLOH    O2 9294   4.443   0.615   1.373 -0.8624 -0.0855  0.2041
   80GLOH   H05 9295   4.396   0.699   1.372  2.7610  2.0626  0.3640
   80GLOH    C3 9296   4.496   0.432   1.531 -0.7721 -0.1425 -0.3750
   80GLOH   H06 9297   4.581   0.488   1.571 -0.4036  0.7730 -2.4061
   80GLOH   H07 9298   4.531   0.380   1.442 -3.9867 -0.8906 -1.2689
   80GLOH    O3 9299   4.437   0.350   1.634 -0.2886  0.1569 -0.0606
   80GLOH   H01 9300   4.408   0.267   1.592  2.1713 -2.8249  3.7615
   81GLOH   H03 9301   5.101   3.850   1.247 -0.1253 -0.6142 -0.8069
   81GLOH    O1 9302   5.156   3.784   1.200  0.1984 -0.5148 -0.5685
   81GLOH    C1 9303   5.164   3.828   1.059 -0.6274 -0.3910  0.0523
   81GLOH   H02 9304   5.223   3.757   1.002  0.6105 -1.4789  2.6064
   81GLOH   H08 9305   5.211   3.925   1.050  0.3179 -0.8373  0.1369
   81GLOH    C2 9306   5.018   3.824   1.009 -0.2423 -0.2367  0.6455
   81GLOH   H04 9307   4.960   3.736   1.043 -3.5481  0.9371 -1.6581
   81GLOH    O2 9308   4.941   3.926   1.069 -0.4650 -0.1607  0.1940
   81GLOH   H05 9309   4.847   3.900   1.069 -1.2781  2.6423 -0.3624
   81GLOH    C3 9310   5.016   3.848   0.859  0.5309  0.4366  0.7349
   81GLOH   H06 9311   5.028   3.955   0.841 -1.8658  0.6194 -0.0383
   81GLOH   H07 9312   4.918   3.813   0.825  1.1578  1.9565 -2.8006
   81GLOH    O3 9313   5.112   3.769   0.781  0.3996  0.0061  0.1349
   81GLOH   H01 9314   5.074   3.679   0.779  0.5739 -0.0909  0.8727
   82GLOH   H03 9315   3.104   1.894   0.300  1.1908 -2.6617  0.1792
   82GLOH    O1 9316   3.173   1.930   0.359 -0.0029 -0.9634  0.5794
   82GLOH    C1 9317   3.290   1.965   0.271  0.4120  0.2656  0.0147
   82GLOH   H02 9318   3.262   1.990   0.169 -1.8849 -2.0602  0.0271
   82GLOH   H08 9319   3.355   1.878   0.259 -1.4054 -1.3564  1.7551
   82GLOH    C2 9320   3.363   2.083   0.324  0.0893 -0.3011  0.9963
   82GLOH   H04 9321   3.426   2.120   0.242 -0.6363 -0.7845  0.2179
   82GLOH    O2 9322   3.278   2.198   0.359 -0.2934  0.1524 -0.0575
   82GLOH   H05 9323   3.215   2.231   0.293 -1.7238  0.2750  1.3314
   82GLOH    C3 9324   3.469   2.052   0.434  0.2641  0.3771  0.4172
   82GLOH   H06 9325   3.424   1.980   0.502  1.6992  0.0800  1.0925
   82GLOH   H07 9326   3.500   2.142   0.487  0.8216  1.4828 -1.7417
   82GLOH    O3 9327   3.586   1.983   0.381  0.3229 -0.2264 -0.1815
   82GLOH   H01 9328   3.635   1.936   0.451  2.8592  2.3296 -0.1655
   83GLOH   H03 9329   4.550   8.642   1.363 -0.1819  0.7388 -0.4515
   83GLOH    O1 9330   4.639   8.655   1.324  0.0442  0.2554 -0.1173
   83GLOH    C1 9331   4.592   8.722   1.213 -0.0638 -0.4748  0.2693
   83GLOH   H02 9332   4.549   8.640   1.154 -2.1709 -0.3015  1.5124
   83GLOH   H08 9333   4.670   8.770   1.155  1.7642 -3.0080  0.5248
   83GLOH    C2 9334   4.477   8.818   1.242 -0.3700 -0.5483  0.9693
   83GLOH   H04 9335   4.503   8.888   1.323 -1.1350 -1.1516  1.7469
   83GLOH    O2 9336   4.450   8.888   1.115  0.2003  0.0024 -0.6328
   83GLOH   H05 9337   4.510   8.963   1.106  0.4340  0.3421  2.8458
   83GLOH    C3 9338   4.350   8.745   1.290  0.0603  0.4767 -0.2781
   83GLOH   H06 9339   4.316   8.681   1.208  1.4630 -1.1326  0.3772
   83GLOH   H07 9340   4.269   8.818   1.293 -1.7264 -1.5136  2.1004
   83GLOH    O3 9341   4.372   8.674   1.409 -0.4584  0.4319  0.1510
   83GLOH   H01 9342   4.289   8.651   1.454 -0.2621  0.7221  0.6660
   84GLOH   H03 9343   2.431   4.224   2.683 -2.2940 -0.8255  1.8488
   84GLOH    O1 9344   2.396   4.234   2.592  0.4211  0.0828  0.8409
   84GLOH    C1 9345   2.397   4.371   2.538 -0.5851 -0.5246 -0.3504
   84GLOH   H02 9346   2.386   4.371   2.430 -3.8031 -4.0124 -0.1186
   84GLOH   H08 9347   2.490   4.421   2.567  0.0254 -1.3107 -0.9094
   84GLOH    C2 9348   2.272   4.445   2.593 -0.4389 -0.0982  0.1416
   84GLOH   H04 9349   2.272   4.434   2.702 -0.8007  1.5088  0.3149
   84GLOH    O2 9350   2.278   4.587   2.574 -0.8077  0.0531  0.5279
   84GLOH   H05 9351   2.251   4.609   2.484 -0.1197 -0.8804  0.0787
   84GLOH    C3 9352   2.146   4.372   2.540  0.6313  0.1869  0.0982
   84GLOH   H06 9353   2.161   4.347   2.436  0.8909  0.4131  0.0812
   84GLOH   H07 9354   2.063   4.443   2.543  0.6931  0.2553  0.2198
   84GLOH    O3 9355   2.119   4.253   2.610  0.1402  0.2049 -0.8572
   84GLOH   H01 9356   2.180   4.181   2.585 -0.0198 -0.5381  0.8714
   85GLOH   H03 9357   2.919   0.866   0.152 -0.4481  1.4303 -0.4888
   85GLOH    O1 9358   2.899   0.827   0.064  0.3007 -0.0793 -0.0224
   85GLOH    C1 9359   3.013   0.861  -0.023 -0.2785  0.2764 -0.1812
   85GLOH   H02 9360   2.988   0.822  -0.122 -0.5434 -0.7314  0.2733
   85GLOH   H08 9361   3.096   0.810   0.026  1.0392  1.4098 -1.1989
   85GLOH    C2 9362   3.055   1.011  -0.038  0.0363  0.2675  0.3820
   85GLOH   H04 9363   3.088   1.051   0.060 -0.3537  1.7428 -0.0694
   85GLOH    O2 9364   3.167   1.006  -0.128 -0.5372  0.3152 -0.4613
   85GLOH   H05 9365   3.132   0.980  -0.215  0.1587  1.7540 -1.1809
   85GLOH    C3 9366   2.932   1.088  -0.089  0.3802 -0.0788 -0.1716
   85GLOH   H06 9367   2.835   1.042  -0.072 -0.5112  1.4657 -0.9907
   85GLOH   H07 9368   2.935   1.107  -0.197  0.8208 -0.0127 -0.1476
   85GLOH    O3 9369   2.934   1.211  -0.016 -0.0382 -0.2205 -0.1264
   85GLOH   H01 9370   2.897   1.187   0.071 -2.6237 -1.3566 -1.4697
   86GLOH   H03 9371   2.715   6.245   0.769 -1.9480  1.0712 -0.5531
   86GLOH    O1 9372   2.717   6.314   0.838  0.2930  0.5557 -0.0564
   86GLOH    C1 9373   2.768   6.436   0.782  0.4371  0.4870  0.1925
   86GLOH   H02 9374   2.805   6.505   0.858  0.3058  2.2885 -1.3423
   86GLOH   H08 9375   2.678   6.487   0.750 -1.1543 -0.2997  3.2579
   86GLOH    C2 9376   2.865   6.416   0.666 -0.6486  0.7937  0.3635
   86GLOH   H04 9377   2.816   6.388   0.572 -2.1057 -0.7504  1.5452
   86GLOH    O2 9378   2.939   6.539   0.633  0.1581  0.7690  0.1135
   86GLOH   H05 9379   2.911   6.582   0.550  0.9191 -2.4559 -1.9074
   86GLOH    C3 9380   2.951   6.293   0.696 -0.3101  0.3953  0.0197
   86GLOH   H06 9381   2.990   6.291   0.797 -2.7855  0.2842  0.9987
   86GLOH   H07 9382   3.033   6.298   0.623 -1.8511  2.7945 -1.6158
   86GLOH    O3 9383   2.872   6.180   0.660 -0.7182 -0.1293 -0.2479
   86GLOH   H01 9384   2.937   6.110   0.641 -0.9573 -1.0403  2.0698
   87GLOH   H03 9385   4.769   4.513   0.790 -0.7641 -1.3247 -0.7821
   87GLOH    O1 9386   4.823   4.537   0.713  0.2768  0.1262  0.3624
   87GLOH    C1 9387   4.719   4.579   0.618 -0.4883 -0.1938  0.9060
   87GLOH   H02 9388   4.630   4.518   0.630 -0.5253 -0.9929 -2.7199
   87GLOH   H08 9389   4.761   4.568   0.518  0.0848  1.8461  0.8960
   87GLOH    C2 9390   4.692   4.728   0.630 -0.6583 -0.1031 -0.1686
   87GLOH   H04 9391   4.782   4.791   0.624 -1.0307  0.4942  0.5243
   87GLOH    O2 9392   4.588   4.772   0.534  0.7403  0.5705  0.1462
   87GLOH   H05 9393   4.626   4.776   0.445 -1.0414 -0.6394 -0.7000
   87GLOH    C3 9394   4.648   4.750   0.777  0.6557  0.4497  0.2959
   87GLOH   H06 9395   4.736   4.722   0.835  0.9519 -1.0082 -0.8325
   87GLOH   H07 9396   4.567   4.686   0.813  0.7299  1.0132  1.4882
   87GLOH    O3 9397   4.608   4.884   0.795  0.3031 -0.0073 -0.0868
   87GLOH   H01 9398   4.571   4.890   0.885 -0.3448 -0.2042 -0.3381
   88GLOH   H03 9399   4.294   2.225   0.407 -1.5411 -2.3493 -1.2220
   88GLOH    O1 9400   4.367   2.160   0.412 -0.0075 -0.6093 -0.3730
   88GLOH    C1 9401   4.374   2.100   0.541  0.3384  0.0767  0.5306
   88GLOH   H02 9402   4.443   2.015   0.543  1.4440  0.9199 -0.5123
   88GLOH   H08 9403   4.278   2.059   0.570  0.3359 -1.3033 -1.3355
   88GLOH    C2 9404   4.427   2.184   0.657 -0.5873  0.6436 -0.2691
   88GLOH   H04 9405   4.366   2.275   0.666 -0.1122  0.8946  0.4324
   88GLOH    O2 9406   4.408   2.121   0.785  0.0217 -0.1683  0.4754
   88GLOH   H05 9407   4.313   2.121   0.808 -0.3505  2.2861 -0.9205
   88GLOH    C3 9408   4.573   2.223   0.639  0.0987  0.7397 -0.4935
   88GLOH   H06 9409   4.626   2.129   0.623 -0.4217  0.3296  0.1378
   88GLOH   H07 9410   4.610   2.278   0.725  1.4139  3.1291 -2.5164
   88GLOH    O3 9411   4.587   2.298   0.518 -0.4852  0.0640 -0.0405
   88GLOH   H01 9412   4.548   2.244   0.446  2.0835 -1.6187 -0.2405
   89GLOH   H03 9413   3.068   6.957   1.302  0.9438  1.1371 -0.2971
   89GLOH    O1 9414   3.106   6.877   1.343 -0.0527  0.7316 -0.1633
   89GLOH    C1 9415   3.129   6.794   1.233 -0.3248  0.3964  0.6443
   89GLOH   H02 9416   3.237   6.795   1.219 -0.4345  2.2351 -0.2226
   89GLOH   H08 9417   3.082   6.830   1.141 -4.9810 -2.8771  1.5253
   89GLOH    C2 9418   3.070   6.650   1.255 -0.5553 -0.3887  0.6607
   89GLOH   H04 9419   2.973   6.673   1.301 -0.2957  0.4179  0.8231
   89GLOH    O2 9420   3.051   6.580   1.126  0.1445  0.6355 -0.8700
   89GLOH   H05 9421   3.117   6.509   1.135 -0.9986 -0.1818  1.5227
   89GLOH    C3 9422   3.137   6.558   1.364 -0.4032  0.8406  0.6916
   89GLOH   H06 9423   3.122   6.606   1.461 -4.0512 -0.7865  1.0531
   89GLOH   H07 9424   3.245   6.557   1.349 -0.6881  1.2661 -1.4884
   89GLOH    O3 9425   3.081   6.427   1.383  0.1362  0.2388 -0.0823
   89GLOH   H01 9426   3.090   6.372   1.304  0.0708  0.1780 -0.0474
   90GLOH   H03 9427   3.329   4.613   1.042 -0.3545  0.8968 -3.0182
   90GLOH    O1 9428   3.426   4.621   1.045 -0.2297 -0.8388 -0.6674
   90GLOH    C1 9429   3.486   4.551   1.156  0.2402 -0.0898 -0.7046
   90GLOH   H02 9430   3.594   4.567   1.157  0.2182  0.1359  1.4608
   90GLOH   H08 9431   3.478   4.443   1.141  0.3824 -0.1283 -0.4990
   90GLOH    C2 9432   3.429   4.584   1.298  0.0060 -0.0031 -0.1003
   90GLOH   H04 9433   3.326   4.546   1.291  0.5235 -1.1900 -1.5245
   90GLOH    O2 9434   3.503   4.522   1.404 -0.2239  0.2587 -0.4130
   90GLOH   H05 9435   3.502   4.581   1.481  0.4518  1.6136 -1.4415
   90GLOH    C3 9436   3.430   4.742   1.309 -0.2439  0.3212  0.3581
   90GLOH   H06 9437   3.350   4.778   1.245  1.6228  0.0239 -2.2293
   90GLOH   H07 9438   3.524   4.779   1.269  0.2424 -0.2855  0.9281
   90GLOH    O3 9439   3.404   4.793   1.439 -0.7655  0.1766 -0.2130
   90GLOH   H01 9440   3.394   4.889   1.431  0.3709  0.4393  1.2276
   91GLOH   H03 9441   4.484   8.831   0.390 -0.8457  0.6829  0.3682
   91GLOH    O1 9442   4.431   8.848   0.310 -0.2104  0.5161 -0.0961
   91GLOH    C1 9443   4.324   8.934   0.354  0.0574 -0.6697  0.2487
   91GLOH   H02 9444   4.224   8.897   0.330 -0.3824  0.8548 -0.3193
   91GLOH   H08 9445   4.325   9.017   0.284 -1.6961 -0.7580  0.1071
   91GLOH    C2 9446   4.340   8.974   0.507  0.5199  0.1489  0.7085
   91GLOH   H04 9447   4.407   9.060   0.512 -0.0002  0.8007 -2.3687
   91GLOH    O2 9448   4.208   9.003   0.555  0.0880 -0.7341 -0.2705
   91GLOH   H05 9449   4.151   8.925   0.543  0.0564 -0.8867  0.7707
   91GLOH    C3 9450   4.406   8.863   0.592 -0.4171 -0.1282 -0.0351
   91GLOH   H06 9451   4.332   8.784   0.585 -0.8040  0.2029  0.2539
   91GLOH   H07 9452   4.416   8.887   0.698  0.0048 -0.6343  0.0402
   91GLOH    O3 9453   4.522   8.798   0.535 -0.1096 -0.5232 -0.3742
   91GLOH   H01 9454   4.553   8.729   0.596  0.3718  0.4129  0.4450
   92GLOH   H03 9455   2.101   7.370   2.226 -1.5318  0.6611  0.3890
   92GLOH    O1 9456   2.148   7.397   2.307  0.0169  0.0046 -0.2738
   92GLOH    C1 9457   2.111   7.525   2.348 -0.1913 -0.3276  0.5235
   92GLOH   H02 9458   2.014   7.560   2.313  1.1729  1.1141 -1.9357
   92GLOH   H08 9459   2.179   7.589   2.292 -1.8447 -0.7450 -2.0070
   92GLOH    C2 9460   2.141   7.560   2.500 -0.2346  0.3278 -0.2515
   92GLOH   H04 9461   2.242   7.523   2.522 -0.5304  0.6043  1.6800
   92GLOH    O2 9462   2.131   7.701   2.517  0.8042  0.2093  0.1242
   92GLOH   H05 9463   2.200   7.728   2.580  0.1193  0.4907  0.7607
   92GLOH    C3 9464   2.057   7.489   2.603 -0.6608  0.8533 -0.9277
   92GLOH   H06 9465   1.968   7.544   2.632 -1.3113 -0.9352  0.5413
   92GLOH   H07 9466   2.117   7.480   2.693  0.1343 -0.8873 -1.6124
   92GLOH    O3 9467   2.035   7.351   2.570 -0.1060 -1.0391  0.3422
   92GLOH   H01 9468   2.053   7.350   2.474  0.5079 -0.3309  0.4410
   93GLOH   H03 9469   3.298   5.078   0.202  0.9537  1.0466  0.0542
   93GLOH    O1 9470   3.331   5.001   0.253 -0.0776  0.1976 -0.5430
   93GLOH    C1 9471   3.394   5.062   0.367 -0.5876 -0.4487  0.4884
   93GLOH   H02 9472   3.390   5.171   0.369 -0.5771 -0.4253 -0.6921
   93GLOH   H08 9473   3.501   5.042   0.366 -0.3797  0.5736  1.3610
   93GLOH    C2 9474   3.350   5.002   0.502 -0.6709  0.1063  0.1591
   93GLOH   H04 9475   3.358   4.892   0.497  0.7540  0.2238 -0.4041
   93GLOH    O2 9476   3.432   5.044   0.615 -0.2919 -0.2869  0.0876
   93GLOH   H05 9477   3.370   5.074   0.684 -1.3093 -2.3908  0.1128
   93GLOH    C3 9478   3.200   5.039   0.520 -0.3562 -0.2584 -0.3323
   93GLOH   H06 9479   3.147   4.997   0.435  1.8085 -2.2201 -0.7462
   93GLOH   H07 9480   3.187   5.148   0.520  0.0325 -0.2136 -0.2925
   93GLOH    O3 9481   3.134   4.973   0.631  0.2396 -0.2368 -0.2228
   93GLOH   H01 9482   3.158   4.878   0.628  0.7544 -0.1444  0.9085
   94GLOH   H03 9483   2.355   5.139   2.561 -0.1298 -0.2113 -1.0928
   94GLOH    O1 9484   2.300   5.063   2.535 -0.6594 -0.1972 -0.0455
   94GLOH    C1 9485   2.374   4.942   2.537  1.1404 -0.0723 -0.1549
   94GLOH   H02 9486   2.469   4.947   2.483  0.6784 -1.1539 -1.0830
   94GLOH   H08 9487   2.313   4.870   2.484  0.4377  1.2721 -1.1915
   94GLOH    C2 9488   2.392   4.894   2.682 -0.5983  0.5120  0.9174
   94GLOH   H04 9489   2.297   4.866   2.730 -1.2886  0.0181 -0.6945
   94GLOH    O2 9490   2.468   4.770   2.665  0.6522 -0.0088 -0.0631
   94GLOH   H05 9491   2.401   4.705   2.638 -0.1880  0.5901  0.5759
   94GLOH    C3 9492   2.475   4.986   2.772 -0.0446 -0.2899 -0.6465
   94GLOH   H06 9493   2.575   4.995   2.730 -0.6702 -1.4586 -2.4500
   94GLOH   H07 9494   2.492   4.940   2.869 -3.6185  1.3323  0.8437
   94GLOH    O3 9495   2.417   5.114   2.778 -0.6383  0.1909  0.4241
   94GLOH   H01 9496   2.459   5.178   2.718  0.4389 -0.4902  0.4268
   95GLOH   H03 9497   2.555   9.030   0.675  0.4496 -1.5123 -0.5282
   95GLOH    O1 9498   2.517   9.024   0.764 -0.0993  0.1052 -0.6271
   95GLOH    C1 9499   2.412   8.939   0.739 -0.1705 -0.2922  0.2248
   95GLOH   H02 9500   2.356   8.979   0.655  0.0977 -1.0529 -0.3258
   95GLOH   H08 9501   2.339   8.940   0.820 -0.5294 -0.1535 -0.1027
   95GLOH    C2 9502   2.452   8.794   0.709 -0.2157  0.1580 -0.4315
   95GLOH   H04 9503   2.361   8.744   0.674 -2.0189  3.9294 -1.4152
   95GLOH    O2 9504   2.559   8.778   0.617 -0.0783  0.5897  0.0039
   95GLOH   H05 9505   2.628   8.847   0.618 -0.1328  0.6321  0.6200
   95GLOH    C3 9506   2.489   8.722   0.835 -0.2203  0.5440 -0.4836
   95GLOH   H06 9507   2.550   8.795   0.888 -1.2766  1.5450 -0.6270
   95GLOH   H07 9508   2.558   8.639   0.818  1.1766  1.1772  1.8359
   95GLOH    O3 9509   2.375   8.676   0.911 -0.4340 -0.1309 -0.8863
   95GLOH   H01 9510   2.400   8.594   0.955 -0.2089  1.1653  1.4652
   96GLOH   H03 9511   3.466   9.774   0.607  1.0156 -1.3607 -1.1360
   96GLOH    O1 9512   3.383   9.770   0.555  0.2596 -0.4458 -0.0255
   96GLOH    C1 9513   3.380   9.893   0.471  0.0673  0.1974 -0.0367
   96GLOH   H02 9514   3.449   9.972   0.500 -4.2802  3.3653  2.1037
   96GLOH   H08 9515   3.284   9.939   0.490 -0.0102  0.9627 -2.1174
   96GLOH    C2 9516   3.402   9.883   0.320  0.2643 -0.1604  1.2716
   96GLOH   H04 9517   3.502   9.843   0.297 -0.2357  0.1713 -1.7257
   96GLOH    O2 9518   3.296   9.811   0.251 -0.4988 -0.0960 -0.1289
   96GLOH   H05 9519   3.272   9.731   0.301 -3.7101  1.2364  0.5815
   96GLOH    C3 9520   3.401  10.025   0.251  0.1061  0.8463 -0.7251
   96GLOH   H06 9521   3.298  10.056   0.232  0.0690  0.9264 -0.3967
   96GLOH   H07 9522   3.444  10.003   0.154 -0.4230 -1.2346 -0.5087
   96GLOH    O3 9523   3.482  10.126   0.318  0.5224  0.1033  0.1527
   96GLOH   H01 9524   3.421  10.172   0.379  0.1206 -1.0730  0.6522
   97GLOH   H03 9525   4.170   1.798   1.778  0.7857  0.4030 -0.9065
   97GLOH    O1 9526   4.233   1.862   1.815  0.8672 -0.3329  0.2544
   97GLOH    C1 9527   4.367   1.813   1.818 -0.6523  0.7231  0.5205
   97GLOH   H02 9528   4.382   1.726   1.883  1.3353  0.0773 -0.7720
   97GLOH   H08 9529   4.421   1.891   1.872 -0.4749  0.3337  0.9139
   97GLOH    C2 9530   4.421   1.798   1.672 -0.0900  0.2349  0.4971
   97GLOH   H04 9531   4.529   1.778   1.675 -0.6045 -2.8315  0.0971
   97GLOH    O2 9532   4.368   1.673   1.616  0.1854 -0.0969 -0.9070
   97GLOH   H05 9533   4.406   1.661   1.528  1.0078 -0.3839 -0.5190
   97GLOH    C3 9534   4.379   1.915   1.579 -0.7665  0.5125 -0.1445
   97GLOH   H06 9535   4.387   2.004   1.641 -0.9147 -0.6718  1.6463
   97GLOH   H07 9536   4.276   1.924   1.546 -1.1403  1.0527  1.1111
   97GLOH    O3 9537   4.473   1.925   1.469  0.1693 -0.4377  0.0970
   97GLOH   H01 9538   4.494   1.837   1.433 -0.7311 -0.7530  0.3509
   98GLOH   H03 9539   2.227   4.515   0.397  0.2069 -0.0688 -0.0567
   98GLOH    O1 9540   2.196   4.431   0.436 -0.7427  0.1545 -0.3209
   98GLOH    C1 9541   2.308   4.367   0.507 -0.8516  0.1464  0.0197
   98GLOH   H02 9542   2.396   4.425   0.477 -1.1999  0.9596  0.5383
   98GLOH   H08 9543   2.329   4.263   0.484  1.0036 -0.2381  3.1437
   98GLOH    C2 9544   2.296   4.377   0.662  1.4853 -0.5266 -0.9514
   98GLOH   H04 9545   2.217   4.308   0.693  0.6193  0.8260 -0.1183
   98GLOH    O2 9546   2.424   4.337   0.711  0.8481  0.1874  0.7249
   98GLOH   H05 9547   2.434   4.242   0.691 -3.3371 -0.4605  1.3503
   98GLOH    C3 9548   2.259   4.516   0.714 -0.9461  0.6723  1.2758
   98GLOH   H06 9549   2.341   4.577   0.677 -0.2117 -1.0860 -0.0496
   98GLOH   H07 9550   2.258   4.512   0.822 -1.9410  3.9388  1.4486
   98GLOH    O3 9551   2.132   4.560   0.662  0.4227  0.0865 -0.9620
   98GLOH   H01 9552   2.108   4.540   0.570  2.3302 -4.5375 -0.5632
   99GLOH   H03 9553   3.185   2.138   1.857  1.9410  2.8698 -2.2390
   99GLOH    O1 9554   3.102   2.188   1.872  0.3603  0.0065 -1.0882
   99GLOH    C1 9555   2.981   2.116   1.841  0.4598 -0.4403 -0.0127
   99GLOH   H02 9556   2.902   2.186   1.866  1.2685  0.5064 -0.0901
   99GLOH   H08 9557   2.967   2.035   1.912 -0.3117  0.7340  1.1950
   99GLOH    C2 9558   2.969   2.076   1.695  0.0534 -0.7844  0.0193
   99GLOH   H04 9559   2.960   2.174   1.647  1.1049 -0.2173  0.9545
   99GLOH    O2 9560   3.083   1.992   1.641 -0.1261 -0.5052 -0.4454
   99GLOH   H05 9561   3.167   2.039   1.658 -1.5766  1.8187  0.5719
   99GLOH    C3 9562   2.830   2.004   1.677  0.3689 -0.0670 -0.1179
   99GLOH   H06 9563   2.819   1.931   1.757 -0.4920  0.6947  0.4745
   99GLOH   H07 9564   2.826   1.950   1.582  1.3277  1.6138 -1.1345
   99GLOH    O3 9565   2.726   2.105   1.681  0.4851  0.5755  0.3106
   99GLOH   H01 9566   2.729   2.163   1.602 -1.6007  1.0612  0.5336
  100GLOH   H03 9567   3.215   3.994   1.798  0.5422 -1.1552  0.7333
  100GLOH    O1 9568   3.238   3.901   1.780  0.5757 -1.0236  0.0957
  100GLOH    C1 9569   3.206   3.878   1.640  0.3864 -0.0050 -0.5150
  100GLOH   H02 9570   3.255   3.787   1.606 -0.3225 -0.7828  0.4934
  100GLOH   H08 9571   3.248   3.952   1.572 -1.0910 -0.9353 -2.4933
  100GLOH    C2 9572   3.052   3.866   1.614 -0.2541 -0.5677  0.1546
  100GLOH   H04 9573   3.015   3.965   1.645 -1.2695 -0.7689 -0.3661
  100GLOH    O2 9574   3.027   3.844   1.477 -0.0326 -0.1004 -0.2081
  100GLOH   H05 9575   2.991   3.928   1.444  1.0407  0.7278  0.7373
  100GLOH    C3 9576   2.978   3.762   1.703 -0.0861  0.1948  0.0772
  100GLOH   H06 9577   2.871   3.783   1.706 -0.4883 -1.8829  1.9148
  100GLOH   H07 9578   3.011   3.780   1.805  1.1053  0.9327 -0.4276
  100GLOH    O3 9579   2.996   3.621   1.680 -0.0685 -0.4651 -0.5422
  100GLOH   H01 9580   3.093   3.610   1.673 -0.1033 -0.5699 -0.8629
  101GLOH   H03 9581   4.217   5.187   2.418 -1.7090  1.0654 -3.5483
  101GLOH    O1 9582   4.195   5.092   2.417  0.0800  0.5377 -0.4210
  101GLOH    C1 9583   4.245   5.018   2.531 -0.1897  0.4162  0.3310
  101GLOH   H02 9584   4.346   4.984   2.509 -0.4424  0.7545 -1.4306
  101GLOH   H08 9585   4.197   4.922   2.552  0.9073 -0.2425 -0.1268
  101GLOH    C2 9586   4.249   5.096   2.660  0.3067 -0.3947  0.2409
  101GLOH   H04 9587   4.245   5.203   2.634 -0.5911  0.0559  2.1595
  101GLOH    O2 9588   4.128   5.072   2.735 -0.5230 -0.1454 -0.1963
  101GLOH   H05 9589   4.114   5.158   2.779 -0.6177 -0.1038 -0.3086
  101GLOH    C3 9590   4.380   5.076   2.732 -0.3511  0.1853 -0.3444
  101GLOH   H06 9591   4.399   5.157   2.802  3.1447 -0.7508 -0.0773
  101GLOH   H07 9592   4.458   5.095   2.658 -0.9472 -0.6924 -1.2012
  101GLOH    O3 9593   4.412   4.937   2.770  0.2361 -0.1754 -0.0536
  101GLOH   H01 9594   4.331   4.885   2.788  1.4013 -2.0616 -0.1127
  102GLOH   H03 9595   3.612   2.202   1.713  0.3086  0.0380 -0.6301
  102GLOH    O1 9596   3.639   2.257   1.788  0.2156 -0.3564 -0.3017
  102GLOH    C1 9597   3.523   2.318   1.855 -0.3373  0.0748  0.1328
  102GLOH   H02 9598   3.441   2.246   1.848 -0.7544  0.5947 -0.3438
  102GLOH   H08 9599   3.493   2.402   1.792 -0.9438 -0.1569  0.1163
  102GLOH    C2 9600   3.539   2.359   2.003 -0.6744  0.6209 -0.8833
  102GLOH   H04 9601   3.606   2.446   1.999  0.1696  0.0295 -0.0148
  102GLOH    O2 9602   3.407   2.391   2.054 -0.1660  0.3345 -0.4541
  102GLOH   H05 9603   3.401   2.486   2.035  0.3013 -0.2901 -4.0245
  102GLOH    C3 9604   3.597   2.245   2.093 -0.1751 -0.5784 -0.8354
  102GLOH   H06 9605   3.534   2.157   2.078 -1.1191  0.4765 -3.3323
  102GLOH   H07 9606   3.590   2.271   2.198 -0.4692  0.5866 -1.1370
  102GLOH    O3 9607   3.727   2.206   2.046 -0.0514  0.5747 -0.1564
  102GLOH   H01 9608   3.725   2.226   1.951  1.5965 -0.3968 -0.4079
  103GLOH   H03 9609   3.969   9.704   1.392 -1.3215  0.3134 -0.8577
  103GLOH    O1 9610   4.045   9.694   1.332 -0.2079  0.1577  0.5686
  103GLOH    C1 9611   4.158   9.761   1.383  0.6473 -0.2292 -0.2547
  103GLOH   H02 9612   4.201   9.828   1.309  0.2322  1.3241  0.8710
  103GLOH   H08 9613   4.232   9.687   1.412 -0.8261 -1.1325  1.3103
  103GLOH    C2 9614   4.114   9.852   1.497  0.6848 -0.6420 -0.6114
  103GLOH   H04 9615   4.197   9.867   1.568  1.6758 -0.6624 -1.7367
  103GLOH    O2 9616   4.081   9.988   1.456 -0.0305  0.0348  0.1460
  103GLOH   H05 9617   4.005   9.977   1.395  0.5903  0.0910 -0.6492
  103GLOH    C3 9618   4.002   9.784   1.580 -0.6572 -0.6074 -0.9625
  103GLOH   H06 9619   3.960   9.848   1.658 -1.8285 -1.3865 -0.9315
  103GLOH   H07 9620   4.046   9.697   1.629  0.0086  0.0774 -0.3358
  103GLOH    O3 9621   3.888   9.745   1.502  0.1504  0.0258  0.6410
  103GLOH   H01 9622   3.853   9.671   1.555 -0.4516 -1.5785 -1.9001
  104GLOH   H03 9623   4.043   2.456   0.143 -0.9246 -0.1155  0.4756
  104GLOH    O1 9624   4.108   2.385   0.125 -0.1875  0.7054 -0.1884
  104GLOH    C1 9625   4.209   2.427   0.032  0.3865 -0.0089 -0.0261
  104GLOH   H02 9626   4.302   2.391   0.074  0.6774  1.6587  0.7606
  104GLOH   H08 9627   4.223   2.535   0.024  3.9837 -0.3116  1.4466
  104GLOH    C2 9628   4.203   2.342  -0.093  0.4769  0.2534  0.5824
  104GLOH   H04 9629   4.099   2.342  -0.129  0.7151 -2.0553 -0.1684
  104GLOH    O2 9630   4.298   2.410  -0.180 -0.2373 -0.8009 -0.1672
  104GLOH   H05 9631   4.331   2.361  -0.256  0.5129 -2.7922  1.3945
  104GLOH    C3 9632   4.249   2.196  -0.062  0.2760 -0.9506 -0.4873
  104GLOH   H06 9633   4.241   2.133  -0.151  0.2021 -4.5548  1.9864
  104GLOH   H07 9634   4.180   2.155   0.011  1.5612 -3.0997 -0.4354
  104GLOH    O3 9635   4.393   2.181  -0.027 -1.0088 -0.0054 -0.1936
  104GLOH   H01 9636   4.438   2.268  -0.026  1.7681 -1.3914  1.9098
  105GLOH   H03 9637   3.862   3.023   2.154  1.8345 -0.2159  0.4280
  105GLOH    O1 9638   3.905   3.104   2.119  0.5955  0.3903  0.2681
  105GLOH    C1 9639   3.999   3.065   2.014  1.3109  0.3791  0.1755
  105GLOH   H02 9640   4.028   2.960   2.020  2.4199  0.7618  1.4939
  105GLOH   H08 9641   4.083   3.133   2.025  0.7319  1.2394 -0.6347
  105GLOH    C2 9642   3.937   3.098   1.876  0.8073  0.5473  0.1947
  105GLOH   H04 9643   4.002   3.062   1.795 -0.2181 -3.1679  0.9378
  105GLOH    O2 9644   3.814   3.031   1.851 -0.2534 -0.3676 -0.2291
  105GLOH   H05 9645   3.818   2.983   1.767 -2.5619  2.2115 -1.8951
  105GLOH    C3 9646   3.914   3.252   1.859 -0.4821 -0.0472  0.3138
  105GLOH   H06 9647   3.857   3.280   1.948 -2.8929 -1.8387 -0.6090
  105GLOH   H07 9648   3.846   3.273   1.777 -1.8858  1.1687  1.7489
  105GLOH    O3 9649   4.036   3.323   1.854 -0.4007 -0.6599  0.0010
  105GLOH   H01 9650   4.085   3.307   1.771 -0.1688  1.6883 -0.3447
  106GLOH   H03 9651   3.861   8.886   1.077 -1.7915  1.1938  0.9326
  106GLOH    O1 9652   3.836   8.809   1.131  0.3559 -0.7089 -0.6820
  106GLOH    C1 9653   3.774   8.852   1.253 -0.4328 -0.1573  0.2178
  106GLOH   H02 9654   3.713   8.769   1.290 -0.8060 -0.5300 -1.1925
  106GLOH   H08 9655   3.706   8.936   1.237  2.7798  2.5074  0.1467
  106GLOH    C2 9656   3.879   8.888   1.358 -0.3568  0.7991 -0.7421
  106GLOH   H04 9657   3.941   8.970   1.319  0.3653  0.3282 -0.5764
  106GLOH    O2 9658   3.827   8.917   1.492 -0.0228  0.1427  0.5394
  106GLOH   H05 9659   3.887   8.973   1.545 -0.8235  0.4621  1.1077
  106GLOH    C3 9660   3.963   8.759   1.377 -0.0644 -0.7637  0.5683
  106GLOH   H06 9661   3.891   8.684   1.408 -1.8845  1.5658  2.1448
  106GLOH   H07 9662   4.028   8.792   1.459 -1.0366 -1.5648  1.6617
  106GLOH    O3 9663   4.039   8.720   1.264  0.1651  0.4505 -0.6925
  106GLOH   H01 9664   3.986   8.753   1.189 -0.6378 -0.2981 -0.4670
  107GLOH   H03 9665   4.904   2.192   0.361  0.6481 -3.4312  0.6798
  107GLOH    O1 9666   4.892   2.174   0.266  0.4477  0.0090 -0.0019
  107GLOH    C1 9667   4.940   2.044   0.225  0.2754  0.1159 -0.4595
  107GLOH   H02 9668   4.873   1.963   0.252  0.7818 -1.0854 -2.6451
  107GLOH   H08 9669   5.035   2.033   0.276  0.9871  0.9616 -1.5636
  107GLOH    C2 9670   4.963   2.033   0.072  0.1246  0.3340  0.2791
  107GLOH   H04 9671   5.045   2.102   0.048  0.7026 -0.4412  0.0030
  107GLOH    O2 9672   5.000   1.894   0.041  0.7123 -0.2404  0.0396
  107GLOH   H05 9673   4.929   1.830   0.060 -1.1099  0.7764 -3.0061
  107GLOH    C3 9674   4.842   2.075  -0.014 -0.3396  0.3363 -0.0587
  107GLOH   H06 9675   4.757   2.017   0.022  0.3664  0.4226  1.7893
  107GLOH   H07 9676   4.865   2.064  -0.121 -0.2836  0.5450 -0.0676
  107GLOH    O3 9677   4.820   2.206   0.029 -0.4328 -0.5098  0.5840
  107GLOH   H01 9678   4.854   2.208   0.120 -0.4978  3.9627  0.6047
  108GLOH   H03 9679   3.322   9.210   1.689  1.3168 -2.2848 -0.2545
  108GLOH    O1 9680   3.236   9.166   1.674  0.1898 -0.1917 -0.0576
  108GLOH    C1 9681   3.131   9.237   1.744  0.6974  0.2209  0.5141
  108GLOH   H02 9682   3.171   9.283   1.834 -0.8805 -1.2377  1.9869
  108GLOH   H08 9683   3.046   9.174   1.768  0.1732  0.5551 -0.4379
  108GLOH    C2 9684   3.076   9.335   1.651 -0.1443 -0.6658 -0.6682
  108GLOH   H04 9685   3.033   9.280   1.566  1.4170 -1.9868 -0.6501
  108GLOH    O2 9686   2.977   9.419   1.712  0.3918  0.2495 -0.1177
  108GLOH   H05 9687   2.953   9.485   1.644 -0.5271 -0.0937 -0.1290
  108GLOH    C3 9688   3.193   9.421   1.602  0.3968  0.2466  0.0550
  108GLOH   H06 9689   3.254   9.365   1.531  1.2280 -0.1286  1.0564
  108GLOH   H07 9690   3.269   9.445   1.677  1.5801 -0.5131 -0.8768
  108GLOH    O3 9691   3.145   9.542   1.534 -0.1937  0.4838 -0.1610
  108GLOH   H01 9692   3.222   9.592   1.502 -1.3164 -0.2936 -4.3110
  109GLOH   H03 9693   4.333   2.733   0.364  2.4497  1.8711 -3.9727
  109GLOH    O1 9694   4.336   2.820   0.407 -0.3309  0.3446 -0.4047
  109GLOH    C1 9695   4.208   2.876   0.411 -0.0068  0.1380 -0.2097
  109GLOH   H02 9696   4.212   2.952   0.489 -0.0045 -1.8724  1.7736
  109GLOH   H08 9697   4.131   2.812   0.454 -1.2492  1.6477 -0.1482
  109GLOH    C2 9698   4.165   2.921   0.275  0.1856  0.5554 -0.1168
  109GLOH   H04 9699   4.246   2.988   0.241 -0.3595  1.2930  0.0242
  109GLOH    O2 9700   4.167   2.810   0.182 -0.8543 -0.0741  0.2675
  109GLOH   H05 9701   4.237   2.831   0.118 -1.0995  2.2201  0.6893
  109GLOH    C3 9702   4.040   3.010   0.284 -0.4374  0.0774  0.2448
  109GLOH   H06 9703   3.967   2.942   0.328 -0.1579  0.2749  1.0229
  109GLOH   H07 9704   4.002   3.030   0.184 -0.5625  2.8774  0.8192
  109GLOH    O3 9705   4.051   3.127   0.364 -0.6539 -0.1200  0.3152
  109GLOH   H01 9706   3.962   3.153   0.392 -1.7106 -3.3350  0.2076
  110GLOH   H03 9707   3.917   9.788   2.297  1.8349 -0.7298 -0.0449
  110GLOH    O1 9708   3.923   9.707   2.351 -0.1407 -0.6513  0.3075
  110GLOH    C1 9709   3.787   9.659   2.360  0.3662 -0.5698  0.3464
  110GLOH   H02 9710   3.757   9.616   2.265  2.2472  0.0834 -0.5737
  110GLOH   H08 9711   3.726   9.749   2.369  0.9602 -0.0008 -1.0610
  110GLOH    C2 9712   3.763   9.561   2.477 -1.1603  0.4646  0.5164
  110GLOH   H04 9713   3.812   9.582   2.573 -0.3665  0.8195  0.0422
  110GLOH    O2 9714   3.628   9.564   2.501 -0.1791 -0.3816 -0.1082
  110GLOH   H05 9715   3.621   9.651   2.543  3.4264 -0.8120  1.5869
  110GLOH    C3 9716   3.806   9.418   2.436  0.2089  0.2416  0.1944
  110GLOH   H06 9717   3.789   9.359   2.525  0.3274  0.5418  0.4182
  110GLOH   H07 9718   3.915   9.416   2.432  0.1857 -1.3657  0.1792
  110GLOH    O3 9719   3.735   9.354   2.334  0.2865  0.1932  0.3124
  110GLOH   H01 9720   3.765   9.399   2.253 -0.2943  2.7810  1.4667
  111GLOH   H03 9721   3.008   5.402   1.431 -0.6838 -0.4231 -0.8376
  111GLOH    O1 9722   3.058   5.426   1.351 -0.1673  0.4511 -0.2552
  111GLOH    C1 9723   3.109   5.306   1.295 -0.4994 -0.2251 -0.3581
  111GLOH   H02 9724   3.028   5.258   1.239  0.9140 -2.1720 -0.7936
  111GLOH   H08 9725   3.120   5.238   1.379 -1.8808 -0.2713 -0.1907
  111GLOH    C2 9726   3.222   5.331   1.196 -0.3934  0.2182 -0.2242
  111GLOH   H04 9727   3.305   5.376   1.254  0.1598 -1.3141  0.2165
  111GLOH    O2 9728   3.269   5.208   1.134 -0.0437  0.4918 -0.2222
  111GLOH   H05 9729   3.331   5.174   1.201 -0.4632  1.1637  0.5133
  111GLOH    C3 9730   3.199   5.439   1.091 -0.9718  0.2985  1.2118
  111GLOH   H06 9731   3.097   5.424   1.056 -1.1028  0.9308  1.3130
  111GLOH   H07 9732   3.262   5.426   1.003 -2.3452 -2.8496  0.6326
  111GLOH    O3 9733   3.204   5.572   1.146 -0.3156 -0.3639  0.3002
  111GLOH   H01 9734   3.196   5.574   1.244  0.5839  0.8263  0.3588
  112GLOH   H03 9735   3.465   5.353   2.178  0.4948  0.2999  1.2342
  112GLOH    O1 9736   3.523   5.427   2.152 -0.0176  0.3084  0.0823
  112GLOH    C1 9737   3.487   5.480   2.020 -0.3597 -0.1140 -0.2543
  112GLOH   H02 9738   3.502   5.404   1.944 -1.6397 -1.9073  1.2719
  112GLOH   H08 9739   3.559   5.559   1.995 -0.0601 -0.7151 -1.3169
  112GLOH    C2 9740   3.348   5.537   2.001  0.0910 -0.6329 -0.0911
  112GLOH   H04 9741   3.284   5.451   2.027 -1.4542  0.4718 -0.1682
  112GLOH    O2 9742   3.311   5.644   2.092 -0.2378  0.1192 -1.1316
  112GLOH   H05 9743   3.281   5.712   2.029  1.1285  0.3361 -1.5692
  112GLOH    C3 9744   3.332   5.584   1.854 -0.4684 -0.8745  0.8346
  112GLOH   H06 9745   3.406   5.660   1.830  0.2016 -2.3054 -1.8903
  112GLOH   H07 9746   3.235   5.634   1.845  0.7746  1.4487 -0.2909
  112GLOH    O3 9747   3.348   5.477   1.761 -0.0690 -0.3477  0.0865
  112GLOH   H01 9748   3.373   5.524   1.680  1.7993 -1.1110  0.1711
  113GLOH   H03 9749   4.221   9.408   0.990 -1.0662  0.2434  0.3044
  113GLOH    O1 9750   4.168   9.474   0.942 -0.0469  0.8483 -0.0054
  113GLOH    C1 9751   4.260   9.536   0.855  0.3949 -0.2564 -0.4443
  113GLOH   H02 9752   4.314   9.461   0.798  2.6215  1.9564 -1.3621
  113GLOH   H08 9753   4.340   9.578   0.916  0.8284  0.7463 -1.6682
  113GLOH    C2 9754   4.212   9.653   0.760 -0.0776  0.4106  1.1038
  113GLOH   H04 9755   4.114   9.641   0.711 -0.0422  0.6005  0.9856
  113GLOH    O2 9756   4.188   9.777   0.826 -0.4216 -0.3814  0.0067
  113GLOH   H05 9757   4.095   9.800   0.841  0.4216  2.1972  1.7943
  113GLOH    C3 9758   4.312   9.668   0.646 -0.1393 -0.1307 -0.2722
  113GLOH   H06 9759   4.408   9.663   0.699 -0.1791  5.3164  0.6063
  113GLOH   H07 9760   4.298   9.766   0.602  2.2996 -0.5766 -2.2061
  113GLOH    O3 9761   4.299   9.574   0.542 -0.6217  0.4425 -0.1546
  113GLOH   H01 9762   4.350   9.493   0.559 -2.1488 -0.3701  0.7353
  114GLOH   H03 9763   1.954   4.249   1.256 -0.6842  0.8223 -0.9545
  114GLOH    O1 9764   2.004   4.329   1.279 -0.2257 -0.0468  1.2107
  114GLOH    C1 9765   2.121   4.303   1.356 -0.0597  0.3882  0.1929
  114GLOH   H02 9766   2.188   4.236   1.301  1.0210  1.0824  0.6450
  114GLOH   H08 9767   2.096   4.257   1.451 -0.4705 -1.2093 -0.6647
  114GLOH    C2 9768   2.205   4.429   1.393  0.1304 -0.5477 -0.3360
  114GLOH   H04 9769   2.289   4.392   1.453  0.3256 -2.2058 -1.5773
  114GLOH    O2 9770   2.267   4.500   1.285  0.1223  0.5811 -0.6224
  114GLOH   H05 9771   2.199   4.539   1.227 -3.3916 -2.7325  1.0367
  114GLOH    C3 9772   2.122   4.540   1.466  0.2753  0.2095  0.1084
  114GLOH   H06 9773   2.056   4.586   1.392 -0.3868 -2.4967 -1.0624
  114GLOH   H07 9774   2.186   4.624   1.491 -1.6049  1.0441  2.2978
  114GLOH    O3 9775   2.063   4.500   1.589 -0.5793  0.7093 -0.4820
  114GLOH   H01 9776   2.132   4.453   1.640  0.6035  1.8937 -0.9813
  115GLOH   H03 9777   2.695   0.973   2.398 -3.6937 -1.7994 -2.7684
  115GLOH    O1 9778   2.642   1.035   2.452  0.1094 -0.6881 -0.1681
  115GLOH    C1 9779   2.708   1.161   2.479 -0.2424 -0.5223  0.4813
  115GLOH   H02 9780   2.813   1.137   2.495  0.0759 -2.2890 -3.6088
  115GLOH   H08 9781   2.674   1.215   2.568  0.9367  0.8045  0.1499
  115GLOH    C2 9782   2.712   1.263   2.366 -0.1056  0.6283 -0.1965
  115GLOH   H04 9783   2.611   1.299   2.345 -0.6356 -0.8173 -0.1750
  115GLOH    O2 9784   2.794   1.380   2.390  0.6241 -0.2891  0.4496
  115GLOH   H05 9785   2.749   1.464   2.373 -1.7736 -1.6612 -0.2602
  115GLOH    C3 9786   2.755   1.197   2.232 -0.0103  0.3303 -0.6763
  115GLOH   H06 9787   2.847   1.142   2.251 -0.8814 -1.3688 -1.2985
  115GLOH   H07 9788   2.765   1.280   2.162 -0.4308  1.2393  0.3317
  115GLOH    O3 9789   2.663   1.104   2.181  0.4074 -0.1791  0.2859
  115GLOH   H01 9790   2.690   1.082   2.090  2.1637 -0.0033  0.7466
  116GLOH   H03 9791   3.973   0.530   0.986 -2.1898  0.4508 -0.5279
  116GLOH    O1 9792   3.947   0.451   0.935  0.4833 -0.4571 -0.5185
  116GLOH    C1 9793   4.061   0.359   0.927 -0.0318 -0.0463 -0.1185
  116GLOH   H02 9794   4.147   0.411   0.885 -0.0173 -0.2536 -0.3439
  116GLOH   H08 9795   4.040   0.266   0.874  2.7791 -0.2141 -1.0070
  116GLOH    C2 9796   4.116   0.314   1.067 -0.6409 -0.8754  0.2030
  116GLOH   H04 9797   4.188   0.393   1.094  0.8412 -1.9660 -0.4874
  116GLOH    O2 9798   4.008   0.289   1.162 -0.8608 -0.3868  0.1620
  116GLOH   H05 9799   4.009   0.356   1.233 -0.1468  0.2880 -0.4660
  116GLOH    C3 9800   4.201   0.187   1.060  0.2062  0.3999  0.3661
  116GLOH   H06 9801   4.141   0.104   1.024  1.5745  0.3772 -1.9428
  116GLOH   H07 9802   4.241   0.157   1.157  1.4211 -0.3237 -0.3506
  116GLOH    O3 9803   4.321   0.187   0.982  0.3430  0.0108 -0.4213
  116GLOH   H01 9804   4.387   0.246   1.023  0.4930  0.5588 -1.4582
  117GLOH   H03 9805   3.499   8.635   1.199 -0.3117 -0.5296 -1.2458
  117GLOH    O1 9806   3.543   8.555   1.233 -0.5688  0.0751  0.5442
  117GLOH    C1 9807   3.452   8.448   1.192 -0.2340 -0.1135 -0.6078
  117GLOH   H02 9808   3.352   8.470   1.228  0.5683 -1.0809  2.3631
  117GLOH   H08 9809   3.468   8.352   1.241 -0.0192 -0.0760 -0.6020
  117GLOH    C2 9810   3.445   8.435   1.040 -0.2967 -0.6721  0.5952
  117GLOH   H04 9811   3.411   8.525   0.987 -2.0015 -2.8670 -2.1358
  117GLOH    O2 9812   3.574   8.396   0.990 -0.1996  0.0540 -0.4680
  117GLOH   H05 9813   3.591   8.300   0.991 -0.1131  0.0045 -2.9379
  117GLOH    C3 9814   3.329   8.334   1.000  0.1115 -0.2589 -0.2060
  117GLOH   H06 9815   3.312   8.325   0.893 -1.8257 -3.3901  0.2630
  117GLOH   H07 9816   3.236   8.375   1.041  0.9501  1.3571  0.1003
  117GLOH    O3 9817   3.356   8.202   1.051  0.3623 -0.3526  0.2215
  117GLOH   H01 9818   3.450   8.179   1.036 -0.2099 -3.1723  0.6094
  118GLOH   H03 9819   3.702   8.136   1.029 -0.4319 -2.5938  0.3042
  118GLOH    O1 9820   3.617   8.138   1.075 -0.7285  0.6087 -0.2260
  118GLOH    C1 9821   3.615   8.024   1.165  0.9776 -0.0092  0.6681
  118GLOH   H02 9822   3.707   7.965   1.156 -0.9457 -2.7987 -1.4134
  118GLOH   H08 9823   3.530   7.961   1.139  2.7591 -0.6651 -4.0264
  118GLOH    C2 9824   3.599   8.087   1.307  0.2613  0.7514  0.6843
  118GLOH   H04 9825   3.497   8.128   1.313 -0.1523 -0.1843  0.2820
  118GLOH    O2 9826   3.620   7.981   1.401  0.3125 -0.1251 -0.1819
  118GLOH   H05 9827   3.539   7.928   1.390 -0.7960  1.2593  1.1422
  118GLOH    C3 9828   3.714   8.193   1.315 -0.0010  0.3225 -0.0546
  118GLOH   H06 9829   3.699   8.281   1.253 -0.0744  0.5474  0.2820
  118GLOH   H07 9830   3.806   8.148   1.278 -1.3029 -0.4698 -2.3724
  118GLOH    O3 9831   3.737   8.248   1.445 -0.1826  0.0405 -0.1420
  118GLOH   H01 9832   3.814   8.308   1.450  0.3072 -0.6051  0.1111
  119GLOH   H03 9833   3.719   2.267   2.648  0.3746 -0.3592 -0.1736
  119GLOH    O1 9834   3.716   2.197   2.715 -0.0411 -0.0787  0.1025
  119GLOH    C1 9835   3.591   2.212   2.796  0.3614  0.1265 -0.5004
  119GLOH   H02 9836   3.612   2.264   2.889 -1.3733 -0.6661  0.3665
  119GLOH   H08 9837   3.542   2.121   2.829  1.2119 -0.2247 -0.1942
  119GLOH    C2 9838   3.481   2.300   2.735 -0.7808  0.4197 -0.4613
  119GLOH   H04 9839   3.398   2.302   2.807 -1.8011  0.0896 -1.6147
  119GLOH    O2 9840   3.531   2.435   2.712 -0.4003 -0.0450  0.1154
  119GLOH   H05 9841   3.593   2.444   2.786 -0.0497 -2.6174  0.1698
  119GLOH    C3 9842   3.432   2.239   2.602  0.4655  0.2914 -0.3250
  119GLOH   H06 9843   3.518   2.227   2.536  0.7728 -0.1423  0.1486
  119GLOH   H07 9844   3.368   2.312   2.552 -1.1516 -0.7443  0.1842
  119GLOH    O3 9845   3.370   2.112   2.624  0.0446  0.5171 -0.0880
  119GLOH   H01 9846   3.355   2.086   2.531  1.0317  0.0909 -0.1327
  120GLOH   H03 9847   4.001   5.161   0.313 -0.5710  1.0106 -2.1274
  120GLOH    O1 9848   4.080   5.216   0.299  0.2549  0.2990 -0.4382
  120GLOH    C1 9849   4.196   5.149   0.367 -0.1890 -0.4664  0.1203
  120GLOH   H02 9850   4.167   5.116   0.467 -3.0783  0.6665 -0.2967
  120GLOH   H08 9851   4.275   5.225   0.370 -1.3950  0.7925  0.5040
  120GLOH    C2 9852   4.252   5.023   0.300 -0.1351 -0.8074 -0.7376
  120GLOH   H04 9853   4.277   5.055   0.198 -0.9750  2.5117  0.0538
  120GLOH    O2 9854   4.363   4.968   0.373  0.3948 -0.0922  0.4643
  120GLOH   H05 9855   4.343   4.918   0.454 -1.3997  2.6001  1.7435
  120GLOH    C3 9856   4.140   4.920   0.280  0.7675 -0.0416 -0.6775
  120GLOH   H06 9857   4.086   4.907   0.373  1.0806  2.1257 -0.1679
  120GLOH   H07 9858   4.189   4.825   0.257  1.7576  0.1963  0.3951
  120GLOH    O3 9859   4.058   4.966   0.173  0.6579  0.1333  0.4127
  120GLOH   H01 9860   4.110   4.983   0.092 -2.4120  2.2704 -1.2256
  121ACOH    H4 9861   3.069   8.537   0.134  0.6673  0.2846  0.8199
  121ACOH    O2 9862   3.159   8.504   0.119  0.4344 -0.2777  0.6112
  121ACOH    C2 9863   3.155   8.371   0.130 -0.2007  0.4788 -0.0771
  121ACOH    O1 9864   3.061   8.302   0.090  0.2145 -0.0400 -0.2439
  121ACOH    C1 9865   3.288   8.311   0.154  0.0769  0.3397  0.3494
  121ACOH    H1 9866   3.366   8.370   0.105 -1.3997 -0.6683 -3.3621
  121ACOH    H2 9867   3.296   8.207   0.124 -1.5030  0.7151 -1.4509
  121ACOH    H3 9868   3.304   8.321   0.261 -1.7206 -2.0375  0.8710
  122ACOH    H4 9869   2.515   3.888   1.588 -3.1104  0.2665 -0.1489
  122ACOH    O2 9870   2.527   3.943   1.509 -0.2998  0.0684  0.0882
  122ACOH    C2 9871   2.426   4.029   1.502  0.4842 -0.0626 -0.6461
  122ACOH    O1 9872   2.310   4.003   1.521 -0.7156 -0.1335  0.1999
  122ACOH    C1 9873   2.455   4.153   1.422  0.1569 -0.1632  0.1437
  122ACOH    H1 9874   2.374   4.192   1.361 -0.9886  1.4360  2.6128
  122ACOH    H2 9875   2.542   4.138   1.359  0.5095 -1.8289  0.9843
  122ACOH    H3 9876   2.490   4.234   1.486  1.2077 -0.5467  0.0570
  123ACOH    H4 9877   4.359   3.381   2.239 -0.7082 -1.2260 -1.5802
  123ACOH    O2 9878   4.293   3.329   2.288 -0.2458 -0.3614 -0.0027
  123ACOH    C2 9879   4.296   3.205   2.240 -0.1708  0.0423 -0.0579
  123ACOH    O1 9880   4.343   3.163   2.136  0.1877 -0.3237  0.4392
  123ACOH    C1 9881   4.202   3.115   2.318 -0.3332  0.6373  0.3689
  123ACOH    H1 9882   4.265   3.049   2.379 -0.5997 -1.5115 -1.5961
  123ACOH    H2 9883   4.140   3.046   2.260 -0.6501  1.4757 -0.2936
  123ACOH    H3 9884   4.143   3.174   2.388 -0.4131 -0.1776  0.9998
  124ACOH    H4 9885   2.105   5.975   2.337 -0.1092 -0.7257  0.5367
  124ACOH    O2 9886   2.008   5.987   2.334  0.0050 -0.0619 -0.9194
  124ACOH    C2 9887   1.929   5.877   2.352  0.1643  0.7353 -0.2097
  124ACOH    O1 9888   1.977   5.764   2.362  0.2703  0.4045  0.3704
  124ACOH    C1 9889   1.788   5.912   2.357 -0.8704 -0.2338  0.0347
  124ACOH    H1 9890   1.788   6.009   2.309 -0.4592 -0.0179  0.4717
  124ACOH    H2 9891   1.753   5.921   2.460 -1.4749  1.2294 -0.2990
  124ACOH    H3 9892   1.741   5.830   2.303  2.1239 -0.3714 -2.5210
  125ACOH    H4 9893   4.402   8.780   0.166  3.1697 -3.3060  1.4377
  125ACOH    O2 9894   4.390   8.737   0.080 -0.3162  0.3040 -0.0719
  125ACOH    C2 9895   4.378   8.605   0.105 -0.4059 -0.3399  0.0681
  125ACOH    O1 9896   4.368   8.550   0.210  0.2370 -0.1711 -0.6441
  125ACOH    C1 9897   4.346   8.534  -0.024  0.0129 -0.5141  0.5739
  125ACOH    H1 9898   4.257   8.474  -0.007 -2.1706  1.6320 -2.6255
  125ACOH    H2 9899   4.427   8.466  -0.052  0.4021  1.2201 -2.8455
  125ACOH    H3 9900   4.326   8.607  -0.103 -1.5338 -2.0693 -0.4967
  126ACOH    H4 9901   4.503   9.348   1.152  1.4793  2.3818 -2.3604
  126ACOH    O2 9902   4.593   9.337   1.186  0.3870  0.3885  0.0393
  126ACOH    C2 9903   4.627   9.213   1.185  0.0867 -0.0611 -0.3103
  126ACOH    O1 9904   4.568   9.127   1.122 -1.0057  0.2945 -0.2349
  126ACOH    C1 9905   4.764   9.194   1.248  0.5361  0.3510  0.2974
  126ACOH    H1 9906   4.755   9.228   1.351 -2.6185  2.2925 -0.5609
  126ACOH    H2 9907   4.848   9.247   1.203  0.7716 -0.6742 -0.4936
  126ACOH    H3 9908   4.790   9.089   1.234  0.1403  0.2165  0.5923
  127ACOH    H4 9909   2.396   6.473   0.050 -0.9024  0.6296 -0.5848
  127ACOH    O2 9910   2.323   6.537   0.048 -1.0537  0.4862  0.3215
  127ACOH    C2 9911   2.286   6.582   0.167 -0.2780  0.5720  0.4808
  127ACOH    O1 9912   2.348   6.574   0.270 -0.0242 -0.1297  0.1155
  127ACOH    C1 9913   2.179   6.684   0.163  0.2531  0.3207  0.5852
  127ACOH    H1 9914   2.188   6.750   0.077 -2.6407 -1.7359 -1.3999
  127ACOH    H2 9915   2.186   6.745   0.253 -3.4036  0.4267  0.8661
  127ACOH    H3 9916   2.075   6.651   0.165  0.6331 -0.9231  0.1645
  128ACOH    H4 9917   5.334   9.450   1.919 -1.6994 -1.4967  0.3013
  128ACOH    O2 9918   5.293   9.473   1.834  0.3122  0.0724 -0.3005
  128ACOH    C2 9919   5.346   9.392   1.743  0.0190  0.5914 -0.2185
  128ACOH    O1 9920   5.424   9.304   1.763 -0.4704 -0.0151  0.2460
  128ACOH    C1 9921   5.304   9.415   1.599  0.4257  0.0473 -1.1272
  128ACOH    H1 9922   5.321   9.520   1.574  0.6040  0.3234  0.1425
  128ACOH    H2 9923   5.196   9.400   1.597  0.5148 -0.8543  0.2332
  128ACOH    H3 9924   5.349   9.339   1.534 -1.6533 -1.1212 -1.2657
  129ACOH    H4 9925   4.267   1.712   2.769 -2.7539 -1.1010 -1.6890
  129ACOH    O2 9926   4.298   1.621   2.756  0.4984 -0.3953  0.2707
  129ACOH    C2 9927   4.188   1.547   2.736 -0.6347  0.0048  0.2578
  129ACOH    O1 9928   4.073   1.583   2.733 -0.0153 -0.1634  0.0136
  129ACOH    C1 9929   4.221   1.401   2.709  0.1027 -0.4516  0.0965
  129ACOH    H1 9930   4.272   1.354   2.794 -1.2265 -0.1225  1.0908
  129ACOH    H2 9931   4.290   1.396   2.625  0.3635  0.3159  0.2624
  129ACOH    H3 9932   4.133   1.338   2.695  1.1427 -1.7378 -0.7990
  130ACOH    H4 9933   4.426   9.262   0.319 -0.3198  0.0253  1.1753
  130ACOH    O2 9934   4.501   9.234   0.374  0.4996 -0.4299 -0.1598
  130ACOH    C2 9935   4.590   9.164   0.295  0.1174  0.1641 -0.2151
  130ACOH    O1 9936   4.599   9.182   0.175  0.6807 -0.0216  0.1912
  130ACOH    C1 9937   4.695   9.095   0.373  0.7286  0.3735 -0.6652
  130ACOH    H1 9938   4.705   8.990   0.346  1.2341  0.4705 -0.8517
  130ACOH    H2 9939   4.674   9.107   0.479 -2.2113 -0.2953 -1.1158
  130ACOH    H3 9940   4.783   9.154   0.350  1.2207 -1.0773 -2.6090
  131ACOH    H4 9941   2.890   6.844   0.839  1.1932  0.9469  0.0310
  131ACOH    O2 9942   2.856   6.907   0.772 -0.2059 -0.0388 -0.2058
  131ACOH    C2 9943   2.745   6.964   0.815 -0.3329  0.2308  0.2741
  131ACOH    O1 9944   2.724   6.969   0.934  0.8820 -0.3256 -0.5559
  131ACOH    C1 9945   2.676   7.039   0.704  0.3576  0.0773 -0.3736
  131ACOH    H1 9946   2.611   7.113   0.751  0.4857 -1.0498  1.6285
  131ACOH    H2 9947   2.615   6.984   0.633  0.5104  0.4023 -0.7603
  131ACOH    H3 9948   2.744   7.094   0.638  1.2459  1.2801  1.4712
  132ACOH    H4 9949   1.895   4.547   0.231  0.7277 -1.3094  1.1601
  132ACOH    O2 9950   1.849   4.615   0.284 -0.2322 -0.5585 -0.5967
  132ACOH    C2 9951   1.764   4.677   0.201 -0.3602  0.4701  0.0823
  132ACOH    O1 9952   1.738   4.648   0.086 -0.5243 -0.4381  0.0227
  132ACOH    C1 9953   1.679   4.766   0.270  1.0036  0.0326 -0.6736
  132ACOH    H1 9954   1.668   4.856   0.209 -0.1319  0.6838  0.4699
  132ACOH    H2 9955   1.726   4.784   0.367  1.9055  0.5616 -1.2007
  132ACOH    H3 9956   1.581   4.721   0.287  0.6768  0.3311 -1.7451
  133ACOH    H4 9957   4.465   1.755   2.554 -1.9923 -1.1545  1.7707
  133ACOH    O2 9958   4.531   1.684   2.558 -0.3428  0.2854  0.5013
  133ACOH    C2 9959   4.501   1.567   2.493  0.5327 -0.5161 -0.5600
  133ACOH    O1 9960   4.397   1.569   2.425 -0.1975  0.2197 -0.4900
  133ACOH    C1 9961   4.616   1.473   2.473 -0.4219  0.5530 -0.8391
  133ACOH    H1 9962   4.665   1.489   2.376 -0.2385  2.0498 -0.5116
  133ACOH    H2 9963   4.603   1.366   2.483 -3.6528  1.1247  1.6524
  133ACOH    H3 9964   4.691   1.492   2.550  0.6326 -1.4800 -1.3261
  134ACOH    H4 9965   1.996   7.471   0.939  2.2240 -1.8496  0.1553
  134ACOH    O2 9966   1.993   7.447   1.033  0.3956  0.1024  0.6277
  134ACOH    C2 9967   1.929   7.325   1.047  0.5650 -0.5358  0.6041
  134ACOH    O1 9968   1.901   7.247   0.954  0.1391 -0.1995 -0.0387
  134ACOH    C1 9969   1.904   7.292   1.193 -0.1420  0.2219  0.8298
  134ACOH    H1 9970   1.992   7.318   1.252 -0.1909  1.9899  0.1688
  134ACOH    H2 9971   1.885   7.187   1.215  1.9339 -0.3207  0.1380
  134ACOH    H3 9972   1.823   7.349   1.238 -0.2015 -1.1321  2.4594
  135ACOH    H4 9973   1.813   5.261   0.257 -1.6157  0.4204 -0.1932
  135ACOH    O2 9974   1.812   5.306   0.343  0.1360  0.1582 -0.0294
  135ACOH    C2 9975   1.727   5.403   0.329 -0.1132  0.2619 -0.3333
  135ACOH    O1 9976   1.688   5.450   0.224  0.3799 -0.1854  0.2546
  135ACOH    C1 9977   1.712   5.478   0.457  0.4341 -0.3846  0.6655
  135ACOH    H1 9978   1.767   5.571   0.441  0.0876 -0.8350 -3.9860
  135ACOH    H2 9979   1.756   5.427   0.543 -0.5076  0.9938  1.9849
  135ACOH    H3 9980   1.609   5.505   0.478  1.0711  2.8080 -0.0678
  136ACOH    H4 9981   8.034   7.149   2.514  0.2191  0.1208 -0.1795
  136ACOH    O2 9982   8.003   7.067   2.474  0.2965  0.1906 -0.3834
  136ACOH    C2 9983   8.079   6.967   2.529  0.0937  0.2315  0.0072
  136ACOH    O1 9984   8.147   6.970   2.631 -0.1087  0.2572 -0.6515
  136ACOH    C1 9985   8.056   6.835   2.464  0.5316 -0.2768  0.0361
  136ACOH    H1 9986   7.951   6.805   2.467  1.2360 -2.8178  0.5293
  136ACOH    H2 9987   8.121   6.768   2.519  0.6504  2.0021  2.8297
  136ACOH    H3 9988   8.097   6.837   2.363 -1.9863  1.0187 -1.0044
  137ACOH    H4 9989   4.025   8.380   2.625 -0.2361  1.5182  0.4420
  137ACOH    O2 9990   4.105   8.432   2.604  0.3419  0.2521 -0.5190
  137ACOH    C2 9991   4.101   8.453   2.471 -0.0031 -0.4902  0.4946
  137ACOH    O1 9992   4.032   8.397   2.384 -0.6960  0.5616 -0.1630
  137ACOH    C1 9993   4.220   8.526   2.427 -0.1686 -0.8179  0.2579
  137ACOH    H1 9994   4.196   8.619   2.375 -0.7128  0.4585  2.7080
  137ACOH    H2 9995   4.282   8.463   2.365  2.7944  3.2306 -1.1282
  137ACOH    H3 9996   4.283   8.552   2.513 -2.1242  2.0042  0.9279
  138ACOH    H4 9997   3.311   5.914   2.482  0.2055 -0.8148 -0.1396
  138ACOH    O2 9998   3.393   5.945   2.439  0.1323  0.2545  0.4630
  138ACOH    C2 9999   3.492   5.912   2.526 -0.3096 -0.5195 -0.4380
  138ACOH    O110000   3.480   5.842   2.624  0.2664  0.2848  0.4113
  138ACOH    C110001   3.615   5.986   2.487  0.2111 -0.2925 -0.1605
  138ACOH    H110002   3.682   5.971   2.571  0.6776  1.6885 -0.1457
  138ACOH    H210003   3.594   6.092   2.470 -1.0310  0.0280  2.9567
  138ACOH    H310004   3.659   5.936   2.401 -1.3417 -0.7198 -0.7386
  139ACOH    H410005   5.004   2.717   0.310  1.0722 -2.0637 -0.4885
  139ACOH    O210006   5.049   2.751   0.231  0.9336  0.3980  0.4744
  139ACOH    C210007   4.964   2.757   0.126  0.3359  0.3268  0.2340
  139ACOH    O110008   4.857   2.696   0.127 -1.1031 -0.2077 -0.3441
  139ACOH    C110009   5.013   2.814  -0.001  0.2318  0.0648 -0.1330
  139ACOH    H110010   5.006   2.731  -0.072  1.4747 -2.0863  2.1496
  139ACOH    H210011   5.116   2.843   0.023 -0.4352  0.1659  2.8309
  139ACOH    H310012   4.938   2.888  -0.026 -2.6584 -2.2015  1.4340
  140ACOH    H410013   1.988   1.663   0.812 -0.3780  0.9881  0.0481
  140ACOH    O210014   1.926   1.656   0.738  0.2377  0.0880 -0.3975
  140ACOH    C210015   1.809   1.670   0.804 -0.3302  0.4381 -0.0091
  140ACOH    O110016   1.778   1.629   0.917 -0.4450 -0.2568  0.3038
  140ACOH    C110017   1.709   1.668   0.696 -0.6785 -0.3992  0.1190
  140ACOH    H110018   1.743   1.749   0.632  0.1516 -1.7294 -1.1491
  140ACOH    H210019   1.611   1.690   0.738 -0.5433  0.9653 -0.2589
  140ACOH    H310020   1.718   1.571   0.648  2.9079  0.0817 -0.3178
  141ACOH    H410021   5.222   2.548   1.585 -0.8293  0.0206 -1.4039
  141ACOH    O210022   5.269   2.466   1.562 -0.2767 -0.0563 -0.0474
  141ACOH    C210023   5.203   2.414   1.455 -0.1567 -0.9641  1.1858
  141ACOH    O110024   5.104   2.459   1.402 -0.1983 -0.2149  0.1246
  141ACOH    C110025   5.265   2.285   1.423  0.5539  0.3443  0.1762
  141ACOH    H110026   5.361   2.278   1.475 -0.4329 -0.9703  1.8517
  141ACOH    H210027   5.275   2.278   1.314 -1.1011  0.0060  0.0350
  141ACOH    H310028   5.198   2.206   1.455 -1.8148  3.1416  2.2997
  142ACOH    H410029   2.625   0.539   2.405  0.4825  2.3118 -1.2859
  142ACOH    O210030   2.586   0.504   2.324 -0.2219  0.0599 -0.0007
  142ACOH    C210031   2.461   0.478   2.363 -0.2508  0.2010  0.1705
  142ACOH    O110032   2.421   0.466   2.480  0.7196  0.8752  0.5060
  142ACOH    C110033   2.375   0.437   2.257 -0.7758 -0.8138  0.2175
  142ACOH    H110034   2.352   0.522   2.192 -0.4305  0.5461  1.8627
  142ACOH    H210035   2.281   0.391   2.286  0.1071  0.0359  4.7215
  142ACOH    H310036   2.428   0.365   2.195 -0.4681 -1.6592  1.4568
  143ACOH    H410037   3.229   8.015   1.580 -1.0707 -0.6678  0.8262
  143ACOH    O210038   3.176   7.962   1.519  0.1714 -0.3276 -0.5785
  143ACOH    C210039   3.051   7.978   1.563 -0.2025  0.2465 -0.7484
  143ACOH    O110040   3.008   8.028   1.664  0.4485  0.1561  0.2312
  143ACOH    C110041   2.967   7.894   1.475  0.2518  0.4513 -0.0820
  143ACOH    H110042   2.868   7.940   1.470 -0.4827 -0.9858  0.6780
  143ACOH    H210043   2.956   7.792   1.512 -1.1556  0.4474 -0.4557
  143ACOH    H310044   3.011   7.899   1.375  2.1001  0.4483  0.7165
  144ACOH    H410045   3.265   9.782   0.116 -1.6389  1.3355  0.0615
  144ACOH    O210046   3.251   9.747   0.027  0.2108  0.6416  0.0199
  144ACOH    C210047   3.125   9.699   0.038  0.0010 -0.5302  0.1225
  144ACOH    O110048   3.034   9.757   0.093 -0.6167 -0.3712  0.2318
  144ACOH    C110049   3.106   9.582  -0.054  0.1801 -0.0260 -0.5873
  144ACOH    H110050   3.133   9.609  -0.156  1.5356  1.0718  0.0345
  144ACOH    H210051   3.004   9.544  -0.052 -0.3058  1.2510 -0.3222
  144ACOH    H310052   3.160   9.498  -0.011 -0.7354  0.1468  0.9467
  145ACOH    H410053   3.811   7.895   0.315 -2.2608  3.1356 -1.1812
  145ACOH    O210054   3.794   7.822   0.252  0.2093  0.9617  0.5482
  145ACOH    C210055   3.790   7.715   0.335 -0.0094  0.2707 -0.0329
  145ACOH    O110056   3.805   7.724   0.452  0.6699 -0.3559 -0.2769
  145ACOH    C110057   3.799   7.584   0.263 -1.3446 -0.7190  0.3440
  145ACOH    H110058   3.830   7.500   0.325 -0.4042  0.6888  1.8026
  145ACOH    H210059   3.872   7.606   0.185 -1.0706  1.4050  1.1674
  145ACOH    H310060   3.699   7.564   0.224 -1.7527  1.0735  0.4204
  146ACOH    H410061   1.884   2.982   1.052 -1.0100  1.0252  1.1045
  146ACOH    O210062   1.806   2.962   0.998  0.3714  0.0451 -0.6110
  146ACOH    C210063   1.782   2.831   0.990  0.0956  0.0063 -0.0310
  146ACOH    O110064   1.873   2.751   1.004  0.2890 -0.6917 -0.1722
  146ACOH    C110065   1.656   2.811   0.915  0.3157  0.0301 -0.3123
  146ACOH    H110066   1.672   2.842   0.812  1.1813  2.1643  0.4518
  146ACOH    H210067   1.570   2.869   0.950  1.4756  2.2234 -1.0811
  146ACOH    H310068   1.626   2.706   0.914  3.0833 -0.7765 -0.5276
  147ACOH    H410069   2.702   7.496   1.292  1.6417 -2.0277  2.7830
  147ACOH    O210070   2.721   7.434   1.220  0.0693  0.4614  0.1253
  147ACOH    C210071   2.613   7.355   1.194  0.0403  0.1132 -0.1274
  147ACOH    O110072   2.500   7.386   1.219  0.5291  0.0485 -0.0790
  147ACOH    C110073   2.653   7.240   1.100  0.6480 -0.3258 -0.0201
  147ACOH    H110074   2.738   7.255   1.033  1.8312 -0.6920  1.3755
  147ACOH    H210075   2.565   7.201   1.048  0.1818 -0.7092  1.0351
  147ACOH    H310076   2.688   7.164   1.169  0.2855  0.3926  0.9703
  148ACOH    H410077   2.489   6.628   0.985  1.8984  1.5392  2.6643
  148ACOH    O210078   2.440   6.569   1.044  0.2828 -0.1097 -0.2625
  148ACOH    C210079   2.377   6.466   0.978  0.5359  0.0343  0.4319
  148ACOH    O110080   2.387   6.431   0.864 -0.3643 -0.0212 -0.2238
  148ACOH    C110081   2.302   6.393   1.082 -0.4725 -0.2664  0.1502
  148ACOH    H110082   2.380   6.370   1.155 -1.1441 -0.2284  0.8864
  148ACOH    H210083   2.259   6.300   1.046 -1.0949  0.1200 -0.1308
  148ACOH    H310084   2.238   6.468   1.129  2.0068  1.5671  0.7219
  149ACOH    H410085   2.217   5.995   0.310  1.7947 -0.5103 -0.4683
  149ACOH    O210086   2.188   6.063   0.247  0.0972 -0.2849  0.5211
  149ACOH    C210087   2.111   6.155   0.310 -0.6589 -0.5689 -0.1776
  149ACOH    O110088   2.098   6.162   0.434  0.1059  0.6726  0.2098
  149ACOH    C110089   2.061   6.256   0.212  0.5236  0.1530  0.2201
  149ACOH    H110090   2.145   6.288   0.150  2.0040 -0.9352  1.6251
  149ACOH    H210091   2.008   6.333   0.268  1.6170  0.7951  0.3977
  149ACOH    H310092   1.986   6.204   0.153  0.2225 -2.6588  2.9588
  150ACOH    H410093   4.840   2.551   2.102 -0.4326  0.7349 -0.3062
  150ACOH    O210094   4.872   2.514   2.019  0.1565  0.3766  0.0788
  150ACOH    C210095   4.774   2.430   1.975  0.1228 -0.9482  0.3912
  150ACOH    O110096   4.661   2.413   2.017  0.1341 -0.3618 -0.3067
  150ACOH    C110097   4.816   2.366   1.843 -1.1520  0.3582 -0.4170
  150ACOH    H110098   4.845   2.449   1.779 -2.4849  2.4555  1.6534
  150ACOH    H210099   4.737   2.300   1.807  1.2405 -1.8728 -1.7207
  150ACOH    H310100   4.907   2.309   1.862 -0.9937  0.9611  0.6461
  151ACOH    H410101   5.105   2.927   2.217  1.1989 -0.4989 -1.3066
  151ACOH    O210102   5.200   2.908   2.225  1.2122  0.0153 -0.1334
  151ACOH    C210103   5.206   2.791   2.298  0.3652 -0.0321  0.5522
  151ACOH    O110104   5.109   2.721   2.325 -0.2274  0.1354  0.1066
  151ACOH    C110105   5.350   2.745   2.315  0.3700 -0.1930  0.5133
  151ACOH    H110106   5.351   2.643   2.354  1.3555 -0.4332 -0.1333
  151ACOH    H210107   5.421   2.816   2.358  1.1520 -0.7053  0.0827
  151ACOH    H310108   5.391   2.732   2.215  1.8969  0.6743  1.0227
  152ACOH    H410109   5.217   3.612   2.132  1.7081 -0.1868 -2.3900
  152ACOH    O210110   5.257   3.524   2.137  0.2596 -0.7641  0.3972
  152ACOH    C210111   5.312   3.493   2.015  0.4510 -0.2811 -0.5666
  152ACOH    O110112   5.317   3.560   1.916 -0.0939  0.1858 -0.4103
  152ACOH    C110113   5.375   3.361   2.025  0.0723 -0.4339 -0.9049
  152ACOH    H110114   5.459   3.364   2.094 -0.1715  2.0925 -0.6682
  152ACOH    H210115   5.419   3.332   1.929  1.3644 -0.3879 -0.3380
  152ACOH    H310116   5.304   3.285   2.057 -1.7661  1.1211 -1.2047
  153ACOH    H410117   3.987   8.455   1.560 -0.3305 -1.4749  0.4661
  153ACOH    O210118   4.014   8.462   1.653  0.0745 -0.3717  0.2707
  153ACOH    C210119   4.115   8.546   1.676 -0.8279  0.5392 -0.5336
  153ACOH    O110120   4.160   8.610   1.586 -0.0373 -0.2304  0.2056
  153ACOH    C110121   4.160   8.535   1.819 -0.0327 -0.1612 -0.4145
  153ACOH    H110122   4.244   8.602   1.837 -1.1287  0.9277  0.7699
  153ACOH    H210123   4.187   8.433   1.843  0.5229  0.5752  2.2758
  153ACOH    H310124   4.091   8.573   1.894  3.8739  2.9567  1.8090
  154ACOH    H410125   2.016   1.439   0.145  0.9113 -0.7014 -1.8713
  154ACOH    O210126   1.977   1.350   0.136 -0.6564 -0.2597  0.3946
  154ACOH    C210127   2.075   1.267   0.173  0.1805  0.4160  0.1029
  154ACOH    O110128   2.195   1.289   0.204  0.3947  0.2356  0.6575
  154ACOH    C110129   2.015   1.131   0.208  0.3689 -0.1951 -0.5841
  154ACOH    H110130   1.921   1.119   0.155 -0.3960  1.5459  0.3451
  154ACOH    H210131   1.997   1.125   0.315  1.4117 -2.1084 -0.4867
  154ACOH    H310132   2.085   1.052   0.180  1.0621 -0.0424  0.6745
  155ACOH    H410133   5.208   1.464   1.267 -1.2538 -1.9446 -0.3788
  155ACOH    O210134   5.272   1.392   1.256  0.6359 -0.3928  0.1254
  155ACOH    C210135   5.211   1.285   1.304 -1.3024  0.6232 -0.3996
  155ACOH    O110136   5.096   1.274   1.326  0.3833 -0.0111 -0.5625
  155ACOH    C110137   5.326   1.194   1.338 -0.0284 -0.5901 -0.0336
  155ACOH    H110138   5.372   1.160   1.245  1.4201  2.2107 -0.3918
  155ACOH    H210139   5.305   1.112   1.407  0.6992 -1.0608 -0.3616
  155ACOH    H310140   5.404   1.255   1.383 -1.7242  1.2807  0.4392
  156ACOH    H410141   4.481   0.588   1.227 -3.0797  0.8255 -0.9304
  156ACOH    O210142   4.510   0.597   1.135  0.1067  0.3961 -0.0450
  156ACOH    C210143   4.479   0.485   1.071  0.2940  0.1659 -0.2052
  156ACOH    O110144   4.467   0.376   1.119 -0.2944 -0.0869  0.5877
  156ACOH    C110145   4.515   0.501   0.926 -0.2388 -0.3506  0.5173
  156ACOH    H110146   4.494   0.408   0.875 -0.9375  0.2560 -0.3224
  156ACOH    H210147   4.621   0.525   0.924  0.4604 -3.1095  2.0059
  156ACOH    H310148   4.466   0.592   0.890  1.4314  0.6878  0.8062
  157ACOH    H410149   5.141   2.650   1.319  0.5344  0.0214 -1.8430
  157ACOH    O210150   5.215   2.711   1.337 -0.2240  0.5536 -0.4400
  157ACOH    C210151   5.164   2.835   1.302 -0.2757  0.0454  0.0651
  157ACOH    O110152   5.059   2.862   1.246 -0.7622 -0.4997 -0.2043
  157ACOH    C110153   5.256   2.944   1.342 -0.5357 -0.1550 -0.5294
  157ACOH    H110154   5.297   2.905   1.435  0.5855  0.8737 -0.5790
  157ACOH    H210155   5.197   3.035   1.359 -0.9784 -0.2929 -1.3010
  157ACOH    H310156   5.332   2.958   1.266 -0.1663  0.3105 -0.0795
  158ACOH    H410157   3.120   7.291   1.822  1.5109  1.0155 -1.4222
  158ACOH    O210158   3.151   7.340   1.900 -0.2122  0.0020 -0.0563
  158ACOH    C210159   3.172   7.463   1.853  0.5679  1.3109  0.0471
  158ACOH    O110160   3.122   7.510   1.754 -0.1151  0.2670 -0.1787
  158ACOH    C110161   3.259   7.532   1.949  0.1420 -0.5077 -0.5219
  158ACOH    H110162   3.285   7.636   1.928 -0.5249 -0.0971  0.6202
  158ACOH    H210163   3.358   7.489   1.933  0.5076  0.9966 -2.6430
  158ACOH    H310164   3.218   7.525   2.050 -1.8495 -1.1172 -1.3573
  159ACOH    H410165   3.344   5.641   1.100  0.8639  1.9484 -0.0273
  159ACOH    O210166   3.426   5.629   1.048  0.2113  0.2038 -0.7100
  159ACOH    C210167   3.406   5.691   0.936 -0.3174 -0.2171  0.5318
  159ACOH    O110168   3.323   5.777   0.896  0.1140  0.0678  0.0551
  159ACOH    C110169   3.509   5.640   0.848  0.5384  0.2373 -0.5964
  159ACOH    H110170   3.529   5.706   0.764  1.3902 -0.2952 -0.8246
  159ACOH    H210171   3.461   5.549   0.812  1.0876  0.7109 -2.5882
  159ACOH    H310172   3.604   5.615   0.897  0.4531 -1.3721 -1.2208
  160ACOH    H410173   4.438   0.706   2.548  1.5263 -1.2717  0.5261
  160ACOH    O210174   4.470   0.749   2.467 -0.1956 -0.4784  0.2565
  160ACOH    C210175   4.369   0.806   2.397  0.4231  0.7789  0.5594
  160ACOH    O110176   4.253   0.817   2.424  0.7237  0.0581 -0.1639
  160ACOH    C110177   4.429   0.865   2.275 -0.3115 -0.3030  0.2803
  160ACOH    H110178   4.353   0.936   2.242  1.7816  0.3284 -3.5081
  160ACOH    H210179   4.452   0.794   2.196 -0.5957 -0.3401  0.2287
  160ACOH    H310180   4.522   0.918   2.296  0.2938 -0.4044 -2.0726
  161ACOH    H410181   1.906   4.501   1.533  0.1431 -0.0947 -0.2357
  161ACOH    O210182   1.822   4.511   1.484 -0.0770 -0.0223  0.1575
  161ACOH    C210183   1.764   4.388   1.464 -0.0501  0.6129  0.0703
  161ACOH    O110184   1.775   4.292   1.540  0.5540 -0.1552  0.4210
  161ACOH    C110185   1.644   4.399   1.377  0.3396 -0.6536 -0.5850
  161ACOH    H110186   1.657   4.480   1.305 -0.9701 -1.4814 -1.7692
  161ACOH    H210187   1.556   4.437   1.428 -2.3652 -3.0595 -3.3327
  161ACOH    H310188   1.625   4.308   1.320  0.4064 -0.1026 -1.5077
  162ACOH    H410189   2.450   1.156   1.176 -1.6513 -0.4831 -1.4035
  162ACOH    O210190   2.386   1.174   1.248  0.0315  0.1488 -0.0277
  162ACOH    C210191   2.298   1.069   1.242 -0.0106 -0.1891  0.1970
  162ACOH    O110192   2.294   0.983   1.157  0.1112 -0.0754 -0.2949
  162ACOH    C110193   2.201   1.080   1.356 -0.4739 -0.0702 -0.2133
  162ACOH    H110194   2.214   1.174   1.410  4.2789 -1.3267  1.0289
  162ACOH    H210195   2.206   0.995   1.423 -0.0029  0.7888  0.8691
  162ACOH    H310196   2.099   1.080   1.316 -0.2951 -1.4518 -0.6582
  163ACOH    H410197   4.213   9.706   2.794  0.1553  0.0025  0.6617
  163ACOH    O210198   4.196   9.765   2.718 -0.5547 -0.4948  0.4337
  163ACOH    C210199   4.064   9.799   2.714 -0.5633  0.8064 -0.4510
  163ACOH    O110200   3.970   9.766   2.782  0.4958 -0.0036 -0.7685
  163ACOH    C110201   4.047   9.900   2.610 -0.3617 -0.1296  0.4024
  163ACOH    H110202   3.950   9.951   2.608  0.2922  1.1240 -0.4702
  163ACOH    H210203   4.072   9.842   2.521 -0.6249  0.7836 -0.2786
  163ACOH    H310204   4.125   9.976   2.621 -0.1468 -0.3250  0.2352
  164ACOH    H410205   4.630   4.977   0.687 -2.1667  0.7838  0.0828
  164ACOH    O210206   4.656   5.037   0.616 -0.1106  0.6166  0.6732
  164ACOH    C210207   4.560   5.129   0.594 -0.4787 -0.4648 -0.1157
  164ACOH    O110208   4.458   5.149   0.663 -0.3707 -0.0736 -0.3623
  164ACOH    C110209   4.597   5.219   0.477  0.3545 -0.3303  0.4203
  164ACOH    H110210   4.508   5.234   0.415  1.5555  1.3805 -0.9549
  164ACOH    H210211   4.680   5.178   0.418  0.0047 -0.9819  0.3776
  164ACOH    H310212   4.629   5.317   0.512  0.4542  0.4889 -1.8846
  165ACOH    H410213   3.608   9.263   2.414  0.9073 -0.1319  2.3060
  165ACOH    O210214   3.516   9.244   2.439  0.0814  0.4866 -0.1521
  165ACOH    C210215   3.464   9.188   2.329  0.5447 -0.7712  0.8957
  165ACOH    O110216   3.531   9.111   2.259  0.2273  0.5707  0.3987
  165ACOH    C110217   3.317   9.181   2.355 -0.1482  0.1938  0.5065
  165ACOH    H110218   3.303   9.174   2.463  1.1872  0.0078  0.6819
  165ACOH    H210219   3.277   9.088   2.313  0.6928 -0.7042  1.6483
  165ACOH    H310220   3.257   9.259   2.309 -0.4516  0.3574  1.1821
  166ACOH    H410221   2.059   3.633   0.856 -0.3816  0.6411 -0.3208
  166ACOH    O210222   1.990   3.655   0.921  0.0762  0.3496  0.2732
  166ACOH    C210223   1.897   3.734   0.859 -1.0323 -0.1988 -0.0831
  166ACOH    O110224   1.896   3.769   0.746 -0.2868 -0.5179  0.6948
  166ACOH    C110225   1.782   3.763   0.950  0.5843  0.5920 -0.1020
  166ACOH    H110226   1.718   3.836   0.901 -2.5119 -0.7717  1.7873
  166ACOH    H210227   1.826   3.794   1.044 -1.0892  0.4060  0.7583
  166ACOH    H310228   1.722   3.673   0.967  2.0081 -0.1839  0.9431
  167ACOH    H410229   4.124   9.250   1.581  0.2753  0.6788 -1.0967
  167ACOH    O210230   4.205   9.202   1.557  0.1286 -0.1024 -0.0078
  167ACOH    C210231   4.177   9.078   1.605  0.7338 -0.1887 -0.1142
  167ACOH    O110232   4.071   9.037   1.650  0.2994  0.7599  0.0132
  167ACOH    C110233   4.286   8.994   1.564  0.9322 -1.0587  1.2154
  167ACOH    H110234   4.365   8.999   1.639 -0.4792  2.8059  2.5332
  167ACOH    H210235   4.345   9.022   1.476  1.8015 -0.3513  2.0116
  167ACOH    H310236   4.260   8.888   1.561 -0.0477 -0.7989 -3.3083
  168ACOH    H410237   2.031   4.861   1.444  0.5334  4.5926  0.2571
  168ACOH    O210238   1.936   4.860   1.462  0.4011 -0.0146  0.0779
  168ACOH    C210239   1.856   4.852   1.352 -0.0977 -1.0370  0.0324
  168ACOH    O110240   1.897   4.826   1.242  0.5635 -0.3837  0.5663
  168ACOH    C110241   1.710   4.837   1.392 -1.0618 -0.4427  0.2317
  168ACOH    H110242   1.681   4.930   1.441  0.3232  0.2908 -0.3020
  168ACOH    H210243   1.711   4.758   1.467  2.3213 -1.1071 -0.4072
  168ACOH    H310244   1.651   4.812   1.304  2.0189 -1.2726 -1.6724
  169ACOH    H410245   4.488   4.988   0.281  0.4647 -1.3945  0.0395
  169ACOH    O210246   4.553   5.017   0.214  0.3700 -0.8615  0.1809
  169ACOH    C210247   4.614   4.901   0.181  0.4612  0.1351 -0.1806
  169ACOH    O110248   4.626   4.809   0.258  0.5674 -0.4776 -0.1634
  169ACOH    C110249   4.711   4.921   0.072  0.4426 -0.1865 -0.1327
  169ACOH    H110250   4.678   5.009   0.016  1.2998  1.0677  1.2827
  169ACOH    H210251   4.702   4.840   0.001  3.8103  0.5780 -1.5273
  169ACOH    H310252   4.817   4.926   0.100  1.2600 -0.1983 -3.0967
  170ACOH    H410253   4.041   9.654   2.416 -0.9065 -2.3568 -2.1394
  170ACOH    O210254   4.114   9.609   2.462 -0.2441  0.6106 -0.0868
  170ACOH    C210255   4.211   9.588   2.375  0.4535 -0.5477 -0.0915
  170ACOH    O110256   4.203   9.593   2.256 -0.3479 -0.5779  0.0804
  170ACOH    C110257   4.337   9.593   2.444 -1.1556  0.2801 -0.5205
  170ACOH    H110258   4.357   9.695   2.476  1.9851 -1.3881  3.2833
  170ACOH    H210259   4.420   9.581   2.374 -2.1283  1.1219 -1.8433
  170ACOH    H310260   4.334   9.523   2.528  0.0012  1.5116  0.5718
  171ACOH    H410261   5.073   4.126   1.934  0.0337  0.1281  1.1315
  171ACOH    O210262   5.165   4.098   1.946  0.1656  0.0622 -0.0166
  171ACOH    C210263   5.200   4.062   1.818 -0.7494  1.2278 -0.6612
  171ACOH    O110264   5.124   4.049   1.724 -0.1611  0.4672  0.1452
  171ACOH    C110265   5.340   4.002   1.828  0.7348  0.1548  0.7215
  171ACOH    H110266   5.352   3.944   1.920  0.1223  0.9741  1.3180
  171ACOH    H210267   5.422   4.072   1.842 -0.8148  2.2513 -0.4635
  171ACOH    H310268   5.362   3.939   1.741  0.5171  1.5039 -0.3245
  172ACOH    H410269   3.892   5.490   2.071 -1.1734  0.9670  0.8161
  172ACOH    O210270   3.945   5.534   2.003 -0.8303 -0.7973 -0.0837
  172ACOH    C210271   4.056   5.469   1.964 -0.6670 -0.4040  1.2010
  172ACOH    O110272   4.130   5.412   2.043  0.1595 -0.2204  0.1268
  172ACOH    C110273   4.110   5.524   1.832 -0.2940 -0.6084 -0.3143
  172ACOH    H110274   4.038   5.587   1.780  0.0349 -1.5711 -1.9711
  172ACOH    H210275   4.142   5.445   1.764  2.3752  1.2478 -1.2848
  172ACOH    H310276   4.201   5.581   1.853  1.4916 -2.4411 -2.7648
  173ACOH    H410277   4.851   4.368   1.002  0.3423 -0.7131 -0.5256
  173ACOH    O210278   4.928   4.426   0.989 -0.3372  0.3432  0.0451
  173ACOH    C210279   4.937   4.524   1.084 -0.8999 -0.4848 -0.1517
  173ACOH    O110280   4.898   4.512   1.199 -0.3185  0.1143  0.4650
  173ACOH    C110281   5.039   4.620   1.033 -0.4949  0.1447  0.4749
  173ACOH    H110282   5.031   4.651   0.929 -0.4391 -1.1655  0.0739
  173ACOH    H210283   5.137   4.573   1.050 -0.4575 -0.5246 -1.4800
  173ACOH    H310284   5.021   4.705   1.098  3.1060  0.3575  1.3316
  174ACOH    H410285   5.114   2.042   1.117  2.1011  1.0408 -1.0949
  174ACOH    O210286   5.140   2.034   1.210 -0.8133 -0.4005 -0.3574
  174ACOH    C210287   5.211   1.917   1.235 -0.2278 -0.0310  1.1978
  174ACOH    O110288   5.215   1.820   1.161 -0.9532  0.5155  0.0794
  174ACOH    C110289   5.234   1.885   1.378 -0.0007 -0.3364  0.5764
  174ACOH    H110290   5.157   1.818   1.415 -1.2803  1.6300  1.5241
  174ACOH    H210291   5.232   1.977   1.436  1.6330  0.7812 -1.0816
  174ACOH    H310292   5.334   1.841   1.381  0.4457  0.3960 -2.0089
  175ACOH    H410293   4.992   4.200   2.358  0.0327 -1.2350 -0.4733
  175ACOH    O210294   5.084   4.197   2.328  0.3344  0.7018  0.1772
  175ACOH    C210295   5.113   4.073   2.299 -0.0480  0.1064  0.1328
  175ACOH    O110296   5.039   3.979   2.300  0.1682  0.0546 -0.1620
  175ACOH    C110297   5.257   4.065   2.272 -0.2372 -0.3199 -0.1710
  175ACOH    H110298   5.294   3.967   2.301 -2.1009 -1.2642 -0.9179
  175ACOH    H210299   5.314   4.142   2.324  2.2239 -1.8473 -0.5550
  175ACOH    H310300   5.270   4.072   2.164  1.4798 -2.1977 -0.1122
  176ACOH    H410301   2.997   3.675   0.609 -1.5550  0.0798  1.2249
  176ACOH    O210302   2.951   3.695   0.526 -0.0406 -0.2694  0.2840
  176ACOH    C210303   2.866   3.791   0.566  0.7118  0.0515  0.0254
  176ACOH    O110304   2.845   3.835   0.679 -0.0561 -0.5201 -0.0024
  176ACOH    C110305   2.815   3.864   0.444 -0.4894  0.0240 -0.0645
  176ACOH    H110306   2.903   3.891   0.385 -1.0260  0.6237 -0.5899
  176ACOH    H210307   2.757   3.955   0.454 -0.7722  0.0154 -1.6581
  176ACOH    H310308   2.764   3.794   0.378 -0.8061  0.9040 -0.7449
  177ACOH    H410309   2.285   0.866   2.028  0.4909  0.3285 -3.8418
  177ACOH    O210310   2.243   0.779   2.017  0.9222 -0.4160 -0.1257
  177ACOH    C210311   2.154   0.759   2.110  0.2652  0.4747 -0.9817
  177ACOH    O110312   2.102   0.847   2.184  0.4648 -0.6851 -0.4494
  177ACOH    C110313   2.088   0.631   2.089 -0.1774  0.1038  0.1968
  177ACOH    H110314   2.003   0.654   2.025  1.0853  1.1355 -1.1255
  177ACOH    H210315   2.052   0.579   2.178 -0.3385  0.8776  0.5850
  177ACOH    H310316   2.155   0.566   2.033  0.9069 -0.7684  2.4402
  178ACOH    H410317   3.904   3.572   0.398 -0.5165 -2.0952 -1.2172
  178ACOH    O210318   3.887   3.627   0.319  0.3408  0.5911  0.3935
  178ACOH    C210319   3.879   3.544   0.219  0.6700  1.3205  0.5475
  178ACOH    O110320   3.803   3.560   0.124 -0.2533 -0.0329  0.0941
  178ACOH    C110321   3.955   3.420   0.227 -0.7933  0.5636 -0.0615
  178ACOH    H110322   4.052   3.437   0.275 -1.1979 -0.5029  1.1612
  178ACOH    H210323   3.975   3.382   0.127 -0.9217 -0.6328  0.3628
  178ACOH    H310324   3.903   3.342   0.282  2.3142 -2.1752 -0.8676
  179ACOH    H410325   4.258   0.618   0.060  0.3963  0.8057 -1.9442
  179ACOH    O210326   4.289   0.528   0.043  0.1761  0.3611 -0.0803
  179ACOH    C210327   4.320   0.528  -0.088 -0.0565  0.6257  0.5411
  179ACOH    O110328   4.387   0.612  -0.146  0.5127  0.1562  0.3636
  179ACOH    C110329   4.314   0.385  -0.133  1.0421  0.2938  0.5699
  179ACOH    H110330   4.235   0.325  -0.087  0.7904  0.9631  1.0036
  179ACOH    H210331   4.413   0.342  -0.117  2.0441  1.1492 -2.7964
  179ACOH    H310332   4.296   0.377  -0.240 -0.5212 -0.5574  0.8839
  180ACOH    H410333   3.836   2.542   1.610 -0.0117  1.0914  0.2195
  180ACOH    O210334   3.748   2.548   1.650 -0.2945  0.0963 -0.2354
  180ACOH    C210335   3.677   2.645   1.584  0.3954  0.5195 -0.2030
  180ACOH    O110336   3.727   2.720   1.508 -0.3098 -0.0875  0.1228
  180ACOH    C110337   3.543   2.680   1.646  0.2288  0.1375  0.4747
  180ACOH    H110338   3.497   2.763   1.592  1.9278  0.6814 -0.1870
  180ACOH    H210339   3.560   2.713   1.749  0.2459 -1.0861  0.8714
  180ACOH    H310340   3.473   2.597   1.650  1.3862 -0.8807 -0.0318
  181ACOH    H410341   4.331   5.096   1.416 -1.4810 -1.7928 -2.1768
  181ACOH    O210342   4.348   5.168   1.353 -0.7501  0.1097  0.1355
  181ACOH    C210343   4.438   5.122   1.261 -0.4368 -0.3711  0.0998
  181ACOH    O110344   4.478   5.008   1.266 -0.2513  0.3012 -0.3471
  181ACOH    C110345   4.459   5.211   1.144  0.2256 -0.0080  0.0866
  181ACOH    H110346   4.536   5.281   1.175  1.4262 -1.0244 -0.5843
  181ACOH    H210347   4.365   5.266   1.133 -0.3069 -1.1703 -1.3649
  181ACOH    H310348   4.474   5.158   1.050  1.0273  1.4330 -0.6248
  182ACOH    H410349   3.732   7.946   1.498  0.2715 -1.4683 -1.0730
  182ACOH    O210350   3.792   7.910   1.566 -0.1532  0.3481  0.2829
  182ACOH    C210351   3.743   7.814   1.638  0.7749 -0.3397 -0.5449
  182ACOH    O110352   3.627   7.819   1.681 -0.0651 -0.4967  0.0119
  182ACOH    C110353   3.857   7.760   1.717  0.6605 -0.5217 -0.0855
  182ACOH    H110354   3.929   7.731   1.640 -0.9073 -1.4734 -1.2181
  182ACOH    H210355   3.814   7.686   1.784  0.0393  0.6354  0.8128
  182ACOH    H310356   3.905   7.838   1.776 -1.8981  0.0860  1.2484
  183ACOH    H410357   3.196   5.608   1.584 -0.1455 -0.2769 -0.6296
  183ACOH    O210358   3.165   5.700   1.593  0.7603 -0.0265 -0.0676
  183ACOH    C210359   3.203   5.758   1.474 -0.1379 -0.2099  0.6645
  183ACOH    O110360   3.256   5.703   1.382 -0.6972 -0.9843  0.0617
  183ACOH    C110361   3.198   5.904   1.481 -0.0212  0.9695 -0.1369
  183ACOH    H110362   3.104   5.939   1.524 -0.6211 -0.7374 -0.0342
  183ACOH    H210363   3.207   5.940   1.379  2.4182 -0.3120 -0.4181
  183ACOH    H310364   3.278   5.932   1.549 -0.0052 -1.3549  0.8636
  184ACOH    H410365   3.766   0.097   0.131 -1.0861  0.2116  1.3029
  184ACOH    O210366   3.754   0.192   0.121  0.8767  0.3648  0.1207
  184ACOH    C210367   3.637   0.201   0.050 -0.9303 -0.7000 -0.4986
  184ACOH    O110368   3.604   0.145  -0.051 -0.2258 -0.1292 -0.6983
  184ACOH    C110369   3.566   0.328   0.084  0.0702  0.7074 -0.2421
  184ACOH    H110370   3.485   0.303   0.152  0.0948  1.2493 -0.0159
  184ACOH    H210371   3.522   0.385   0.002 -1.1281  0.0998 -0.0397
  184ACOH    H310372   3.634   0.397   0.134  1.2220 -1.2655  0.9837
  185ACOH    H410373   1.988   9.449   2.292  0.1719 -1.0037  0.5121
  185ACOH    O210374   1.925   9.434   2.365 -0.7037  0.2592  0.0517
  185ACOH    C210375   1.981   9.333   2.428  0.3665 -0.2415  0.0667
  185ACOH    O110376   2.063   9.253   2.385 -0.3339  0.0294 -0.1209
  185ACOH    C110377   1.899   9.298   2.548  0.5584  0.1414 -0.1249
  185ACOH    H110378   1.836   9.212   2.526  0.6930  0.5502 -2.2877
  185ACOH    H210379   1.834   9.385   2.564  2.1947  1.8889 -2.6125
  185ACOH    H310380   1.955   9.280   2.639  0.7630 -0.7562 -0.4258
  186ACOH    H410381   3.800   8.363   2.050 -0.8374  0.6034 -0.1432
  186ACOH    O210382   3.797   8.352   1.954  0.1940 -0.6863 -0.0384
  186ACOH    C210383   3.789   8.217   1.933 -0.2334 -0.6480  0.3667
  186ACOH    O110384   3.759   8.137   2.018  0.4591  0.1523 -0.7294
  186ACOH    C110385   3.820   8.186   1.795  0.2043 -0.2106  0.2058
  186ACOH    H110386   3.841   8.276   1.736 -0.1021 -0.8919 -0.9641
  186ACOH    H210387   3.739   8.133   1.746 -2.8199  1.8667  2.7474
  186ACOH    H310388   3.909   8.126   1.780  2.4596  2.4172  2.4228
  187ACOH    H410389   1.783   4.748   0.650 -2.0779 -0.6367 -2.4422
  187ACOH    O210390   1.837   4.814   0.605 -0.4264 -0.2092  0.1118
  187ACOH    C210391   1.806   4.934   0.654  0.3473 -0.1237 -0.1291
  187ACOH    O110392   1.719   4.962   0.728  0.1795  0.8659  0.6023
  187ACOH    C110393   1.897   5.030   0.590 -0.1941 -0.1329 -0.4129
  187ACOH    H110394   1.998   4.994   0.606 -0.4842 -0.6551  0.3289
  187ACOH    H210395   1.886   5.125   0.643 -2.8146 -0.4417 -0.3217
  187ACOH    H310396   1.868   5.045   0.486 -3.5832 -1.9684  0.1776
  188ACOH    H410397   4.941   2.557   0.979 -0.2801  1.3217  1.8344
  188ACOH    O210398   4.986   2.642   0.970 -0.5202  1.2477 -0.1143
  188ACOH    C210399   5.035   2.644   0.844  0.4204 -1.0700  0.2584
  188ACOH    O110400   5.009   2.560   0.759  0.5349 -0.6607 -0.4138
  188ACOH    C110401   5.104   2.772   0.808  0.3205 -0.4796 -0.4199
  188ACOH    H110402   5.108   2.839   0.893 -1.2087 -1.7241  0.6692
  188ACOH    H210403   5.053   2.826   0.728  3.9706 -1.5466 -3.6469
  188ACOH    H310404   5.208   2.761   0.778  0.8985 -0.9815  1.6860
  189ACOH    H410405   1.927   1.533   2.489  0.6467 -1.5193  0.3497
  189ACOH    O210406   1.848   1.519   2.545 -0.0521  0.1265 -0.1841
  189ACOH    C210407   1.754   1.600   2.489  0.1053  0.1960 -0.1445
  189ACOH    O110408   1.758   1.631   2.371  0.3706 -0.2766 -0.6514
  189ACOH    C110409   1.634   1.600   2.571 -0.4628  0.0198  0.0068
  189ACOH    H110410   1.551   1.538   2.537 -1.8437  0.5152  2.3791
  189ACOH    H210411   1.601   1.703   2.574  1.4795  0.6670 -0.3225
  189ACOH    H310412   1.653   1.581   2.677  0.2319 -0.9154 -0.2767
  190ACOH    H410413   3.520   4.351   0.169  2.5417 -0.1177  0.5917
  190ACOH    O210414   3.523   4.271   0.113  0.2408  0.0179  0.2593
  190ACOH    C210415   3.521   4.157   0.181 -0.0535 -0.0310  0.9410
  190ACOH    O110416   3.477   4.150   0.298 -0.0528  0.3241 -0.2431
  190ACOH    C110417   3.529   4.053   0.074  0.4219  0.0021  0.6173
  190ACOH    H110418   3.428   4.019   0.053  0.3919  0.0479  0.6876
  190ACOH    H210419   3.568   3.963   0.123 -0.4153 -1.0690 -0.6677
  190ACOH    H310420   3.580   4.084  -0.017 -0.0420 -0.8796  0.0531
  191ACOH    H410421   5.095   1.468   0.348 -2.5197 -0.8889 -3.2853
  191ACOH    O210422   5.144   1.384   0.342  0.0961  0.2656 -0.0322
  191ACOH    C210423   5.109   1.314   0.449  0.1661 -0.6041  0.2676
  191ACOH    O110424   5.018   1.337   0.527  0.3499  0.2443  0.7678
  191ACOH    C110425   5.191   1.192   0.465  0.5098  0.6462 -0.4713
  191ACOH    H110426   5.268   1.198   0.543 -2.3734  1.0172  2.4614
  191ACOH    H210427   5.239   1.164   0.371 -0.4182  0.4064 -0.8735
  191ACOH    H310428   5.135   1.103   0.491  1.8358 -0.8403 -2.5697
  192ACOH    H410429   4.921   8.957   1.001  1.0354 -0.8978 -1.3136
  192ACOH    O210430   4.878   9.021   0.941 -0.1335 -0.4776 -0.0660
  192ACOH    C210431   4.775   8.954   0.886  0.3666  1.3701 -0.0466
  192ACOH    O110432   4.738   8.838   0.910  0.5871  0.0580  0.2677
  192ACOH    C110433   4.691   9.050   0.815  0.2394  0.3834  0.2498
  192ACOH    H110434   4.747   9.099   0.735 -0.5955 -0.0038 -0.5865
  192ACOH    H210435   4.653   9.124   0.885 -1.9555  0.9558 -1.4898
  192ACOH    H310436   4.614   8.991   0.764  1.4297  0.1817 -1.3515
  193SOL     OW10437   2.568   8.051   0.202 -0.0901  0.3835 -0.2010
  193SOL    HW110438   2.552   7.976   0.137  2.1884 -1.1161  0.9317
  193SOL    HW210439   2.664   8.078   0.199 -0.2023  1.0623  1.7572
  194SOL     OW10440   3.188   5.511   0.332 -0.1366  0.2650 -0.5927
  194SOL    HW110441   3.285   5.514   0.357 -0.0420 -0.3031 -0.8951
  194SOL    HW210442   3.153   5.604   0.324  0.1874  0.4718  0.2792
  195SOL     OW10443   3.502   9.036   0.961  0.0104 -0.2002  0.2340
  195SOL    HW110444   3.552   8.979   0.895  1.1583 -0.0665  0.9732
  195SOL    HW210445   3.538   9.020   1.053  0.4031  1.7806  0.4421
  196SOL     OW10446   2.421   8.358   2.670  0.7133  0.5118  0.9724
  196SOL    HW110447   2.389   8.335   2.763 -0.6443  1.4199  0.7595
  196SOL    HW210448   2.350   8.334   2.604  1.9714 -0.8076  0.0703
  197SOL     OW10449   2.873   8.583   2.677 -0.1351 -0.0071  0.2954
  197SOL    HW110450   2.886   8.491   2.639 -0.3464 -0.4675  1.3185
  197SOL    HW210451   2.789   8.623   2.640 -0.8859 -0.8570  1.0468
  198SOL     OW10452   3.473   1.452   0.227  0.0656  0.3037 -0.2941
  198SOL    HW110453   3.535   1.418   0.298  0.8801 -0.3537 -1.3098
  198SOL    HW210454   3.524   1.508   0.162 -0.2212 -0.9051 -1.5871
  199SOL     OW10455   3.699   1.009   0.740 -0.7388 -0.0651  0.2930
  199SOL    HW110456   3.706   0.930   0.801  2.6155 -0.3429 -0.3553
  199SOL    HW210457   3.728   1.091   0.788 -0.1718  0.0787 -0.2924
  200SOL     OW10458   2.933   0.270   1.278 -0.8508 -0.3797  0.7122
  200SOL    HW110459   2.842   0.237   1.252 -0.7837 -1.6334  1.9876
  200SOL    HW210460   2.999   0.196   1.264 -0.0446  0.4934 -0.0983
  201SOL     OW10461   2.150   4.901   2.237  0.4637  0.6537 -0.7408
  201SOL    HW110462   2.125   4.813   2.277  0.3746  0.5866 -0.9437
  201SOL    HW210463   2.068   4.947   2.203 -0.0572  2.5726  2.8628
  202SOL     OW10464   3.546   5.357   1.111 -0.1880 -0.1665 -0.3120
  202SOL    HW110465   3.550   5.260   1.086 -2.0899 -0.0734 -1.0220
  202SOL    HW210466   3.486   5.406   1.048 -0.2026  1.2405  0.7646
  203SOL     OW10467   2.241   0.548   0.809 -0.5586 -0.6286 -0.5288
  203SOL    HW110468   2.267   0.607   0.732 -1.9350  0.0302 -0.5041
  203SOL    HW210469   2.247   0.452   0.781  0.3133 -0.4334 -1.0221
  204SOL     OW10470   3.607   1.844   0.153 -0.1281  0.7332 -0.4081
  204SOL    HW110471   3.573   1.904   0.226 -0.9942  0.9915 -1.0242
  204SOL    HW210472   3.706   1.855   0.145 -0.0102  0.6286  0.7984
  205SOL     OW10473   2.626   1.613   2.557 -0.0855  0.8004  0.1923
  205SOL    HW110474   2.697   1.603   2.626  0.1218  1.0715  0.0170
  205SOL    HW210475   2.546   1.559   2.583  0.2990  0.2431  0.2367
  206SOL     OW10476   3.369   5.238   2.232  0.3121  0.1074 -0.0054
  206SOL    HW110477   3.375   5.226   2.331  0.7171 -1.7837 -0.2336
  206SOL    HW210478   3.275   5.260   2.207  0.1711  0.4303  0.7789
  207SOL     OW10479   3.309   2.039   1.776  0.3533 -0.0094  0.4275
  207SOL    HW110480   3.343   1.987   1.854  0.6074  0.3185  0.5338
  207SOL    HW210481   3.384   2.056   1.712  0.2950  0.3461  0.4558
  208SOL     OW10482   3.251   3.467   1.764 -0.1270  0.1673  0.2301
  208SOL    HW110483   3.305   3.497   1.842  1.0109  1.1022 -0.8985
  208SOL    HW210484   3.312   3.435   1.691 -1.0508  1.6936 -1.2396
  209SOL     OW10485   3.770   1.217   0.408 -0.1585  0.4308 -0.7457
  209SOL    HW110486   3.814   1.127   0.416  0.4964  0.7343 -0.9202
  209SOL    HW210487   3.800   1.261   0.324 -0.2905  0.9239 -0.5322
  210SOL     OW10488   2.787   5.750   2.242  0.0532  0.1795  0.5323
  210SOL    HW110489   2.831   5.716   2.324 -0.5334 -1.5280  0.1431
  210SOL    HW210490   2.787   5.679   2.172 -0.5290  1.2207 -0.5407
  211SOL     OW10491   3.569   1.590   2.329 -0.8488  0.1945  0.4215
  211SOL    HW110492   3.516   1.573   2.245  1.3262 -0.1423 -0.9075
  211SOL    HW210493   3.584   1.689   2.339 -0.5131  0.1869  0.0262
  212SOL     OW10494   3.712   3.321   1.134 -0.3498 -0.4089 -0.0217
  212SOL    HW110495   3.794   3.289   1.181 -0.2351  0.7484  0.5766
  212SOL    HW210496   3.737   3.358   1.045 -0.3363 -0.9090 -0.2257
  213SOL     OW10497   2.662   4.297   0.464 -0.1771 -0.0182 -0.2760
  213SOL    HW110498   2.623   4.318   0.554  1.7783  1.5633  0.2292
  213SOL    HW210499   2.605   4.337   0.393  0.0063  1.5090  0.4199
  214SOL     OW10500   3.050   3.582   0.762 -0.2862  0.2187  0.1434
  214SOL    HW110501   3.129   3.578   0.823 -0.8058  1.7365  0.9454
  214SOL    HW210502   2.967   3.565   0.815 -0.7874  2.1190 -0.0160
  215SOL     OW10503   3.040   7.375   2.268 -0.2037  0.5046  0.2039
  215SOL    HW110504   2.989   7.289   2.282  1.0925 -0.2993  0.0630
  215SOL    HW210505   3.064   7.383   2.171 -0.6068  1.1940  0.1614
  216SOL     OW10506   2.188   2.023   0.383  0.4645  0.1525  0.4364
  216SOL    HW110507   2.188   1.943   0.443  4.9474  0.2901  0.7472
  216SOL    HW210508   2.145   2.101   0.431  0.5673 -0.7319  2.0055
  217SOL     OW10509   2.398   5.575   0.723  0.1156  0.2577  0.1506
  217SOL    HW110510   2.302   5.605   0.721 -0.0014 -0.1685 -1.1489
  217SOL    HW210511   2.411   5.502   0.657  0.8823 -1.1346  1.7909
  218SOL     OW10512   2.552   2.451   0.061  0.6460 -0.2590 -0.2285
  218SOL    HW110513   2.484   2.455   0.134  1.3139 -1.9766  0.5295
  218SOL    HW210514   2.585   2.543   0.040  1.3582  0.1458  2.5107
  219SOL     OW10515   3.491   1.355   1.586 -0.4094  0.5389  0.0995
  219SOL    HW110516   3.494   1.297   1.667  1.2316  1.1759  0.5146
  219SOL    HW210517   3.422   1.320   1.522  0.0435 -1.4132  0.6542
  220SOL     OW10518   2.995   0.645   0.647  0.0022 -0.0094 -0.0046
  220SOL    HW110519   3.010   0.607   0.738 -0.4826  0.1351  0.1391
  220SOL    HW210520   2.897   0.659   0.632  0.1031  0.3040 -0.4108
  221SOL     OW10521   1.629   4.721   2.408 -0.0360  0.1417  0.1172
  221SOL    HW110522   1.642   4.751   2.503 -0.0330  0.9535 -0.1378
  221SOL    HW210523   1.617   4.801   2.349  0.9508 -0.3098 -0.7203
  222SOL     OW10524   2.553   6.372   0.043  0.2045 -0.5426 -0.0643
  222SOL    HW110525   2.582   6.439   0.112 -1.8877 -0.6232  0.9389
  222SOL    HW210526   2.531   6.285   0.088 -0.4996 -0.8159 -0.9219
  223SOL     OW10527   2.430   1.716   0.884  0.3994 -0.4131 -0.2733
  223SOL    HW110528   2.494   1.793   0.889 -2.4288  2.0808 -0.9881
  223SOL    HW210529   2.421   1.686   0.789  0.4401 -0.7238 -0.1801
  224SOL     OW10530   2.819   6.399   1.237 -0.3835 -0.3046 -0.2382
  224SOL    HW110531   2.908   6.443   1.230 -0.4393 -0.1724 -0.1136
  224SOL    HW210532   2.803   6.343   1.155  0.0572 -0.7849 -0.0007
  225SOL     OW10533   2.101   9.497   2.175  0.6083  0.0609  0.4834
  225SOL    HW110534   2.107   9.460   2.082  1.1690 -1.2171  1.0263
  225SOL    HW210535   2.158   9.579   2.181  0.1475  0.4569 -0.4467
  226SOL     OW10536   3.939   8.638   2.732  0.4576 -0.0812 -0.2251
  226SOL    HW110537   3.853   8.687   2.717  0.8320  0.5270 -0.4077
  226SOL    HW210538   3.957   8.629   2.830 -0.7059 -1.7869 -0.1447
  227SOL     OW10539   2.361   8.610   2.756 -0.0399 -0.2853  0.5301
  227SOL    HW110540   2.267   8.600   2.722 -0.0466  0.1839  0.4096
  227SOL    HW210541   2.412   8.526   2.737  0.2886  0.3881 -1.6812
  228SOL     OW10542   3.414   8.749   1.100  0.7419 -0.5547  0.4573
  228SOL    HW110543   3.331   8.698   1.119  0.2641  1.1223  3.1660
  228SOL    HW210544   3.391   8.834   1.052  0.8062  0.0634  1.4864
  229SOL     OW10545   3.292   3.418   1.244  0.6951  0.3181  0.2594
  229SOL    HW110546   3.385   3.439   1.216  0.2407  0.0547 -1.4909
  229SOL    HW210547   3.258   3.340   1.191 -1.2461  1.7300 -0.6187
  230SOL     OW10548   3.911   5.196   1.842 -0.2236 -0.2650 -0.3854
  230SOL    HW110549   3.950   5.109   1.810 -0.7636 -1.0460  1.0547
  230SOL    HW210550   3.864   5.241   1.766 -2.5259 -2.6544 -0.4348
  231SOL     OW10551   2.859   4.304   0.247 -0.3854 -0.3116 -0.7951
  231SOL    HW110552   2.793   4.305   0.322  0.3271  0.9822 -0.1707
  231SOL    HW210553   2.925   4.230   0.261  1.2454  1.4828  1.1944
  232SOL     OW10554   3.316   9.902   2.658 -0.6057 -0.2667 -1.1627
  232SOL    HW110555   3.267   9.842   2.595 -3.3159  0.0708  0.5692
  232SOL    HW210556   3.317   9.862   2.749 -0.5066  1.2546 -0.4807
  233SOL     OW10557   2.110   5.934   2.643  0.1013 -0.7662 -0.2720
  233SOL    HW110558   2.047   5.868   2.683 -0.0299 -0.2299  0.4078
  233SOL    HW210559   2.149   5.991   2.715 -0.0959  0.1658 -0.8915
  234SOL     OW10560   4.639   1.605   1.047  0.5736  0.6355 -0.6720
  234SOL    HW110561   4.694   1.528   1.079  0.6872 -0.0485 -2.4132
  234SOL    HW210562   4.636   1.604   0.947 -0.9945  1.7936 -0.6614
  235SOL     OW10563   2.568   6.032   0.729 -0.3644 -0.3011 -0.3119
  235SOL    HW110564   2.532   6.033   0.822 -0.6062  0.4454 -0.4090
  235SOL    HW210565   2.635   5.959   0.720 -0.6099 -0.6105  0.3471
  236SOL     OW10566   3.319   2.014   2.343  0.4451 -0.0677 -0.8065
  236SOL    HW110567   3.278   2.081   2.280 -1.1475 -0.3874 -0.1463
  236SOL    HW210568   3.246   1.965   2.391  1.5829 -2.7975 -1.7952
  237SOL     OW10569   2.118   4.617   2.375 -0.2295 -0.3175  0.4502
  237SOL    HW110570   2.124   4.548   2.303 -1.1460  1.8821 -1.7871
  237SOL    HW210571   2.026   4.617   2.413 -0.7879  0.9115 -0.8554
  238SOL     OW10572   2.442   1.374   1.412 -0.1151 -0.2887  0.8466
  238SOL    HW110573   2.397   1.324   1.337 -0.0082 -1.8109  1.7803
  238SOL    HW210574   2.389   1.455   1.435 -0.0269  0.3379 -1.0349
  239SOL     OW10575   3.304   1.184   0.489  0.4533 -0.2383  0.2882
  239SOL    HW110576   3.276   1.273   0.527 -1.2335 -1.7598  2.7057
  239SOL    HW210577   3.395   1.161   0.523  0.1687 -0.2426  1.0450
  240SOL     OW10578   4.229   3.804   1.659 -0.2230 -0.3270  0.6260
  240SOL    HW110579   4.300   3.735   1.647  0.1884  0.3325 -0.9056
  240SOL    HW210580   4.222   3.829   1.756  2.4601  0.4609  0.6553
  241SOL     OW10581   3.207   1.677   0.001 -0.3257  0.1001  0.2496
  241SOL    HW110582   3.213   1.777   0.004  0.3082  0.0569  0.3973
  241SOL    HW210583   3.242   1.644  -0.087 -0.4063 -0.0038  0.2559
  242SOL     OW10584   2.261   0.402   2.721  0.0355  0.2649 -0.0155
  242SOL    HW110585   2.355   0.403   2.689  0.4562 -1.3211  1.0828
  242SOL    HW210586   2.202   0.446   2.654  1.2946 -0.4294 -1.6078
  243SOL     OW10587   1.802   4.349   2.294 -0.7100  0.5329  0.2252
  243SOL    HW110588   1.750   4.279   2.343 -0.5784  1.1926  1.3243
  243SOL    HW210589   1.847   4.308   2.215 -1.1863 -0.4781  0.4698
  244SOL     OW10590   2.422   0.170   0.966  0.4595  0.1473  0.3953
  244SOL    HW110591   2.428   0.226   0.883  1.2373  0.2268  0.4935
  244SOL    HW210592   2.495   0.101   0.965 -0.5481 -0.9150  0.2412
  245SOL     OW10593   2.043   1.483   2.369  0.1711  0.1518 -0.3399
  245SOL    HW110594   2.027   1.445   2.278  1.2551 -1.9063  0.2923
  245SOL    HW210595   2.137   1.518   2.375 -0.3853  1.7386 -0.4778
  246SOL     OW10596   3.854   4.590   2.283 -0.6578  0.7206  0.5444
  246SOL    HW110597   3.839   4.520   2.213  0.1247  0.4449  0.6545
  246SOL    HW210598   3.885   4.674   2.240 -2.1129  1.1830  0.3526
  247SOL     OW10599   2.670   8.886   1.982 -0.5462 -0.3831  0.0122
  247SOL    HW110600   2.661   8.788   1.963 -0.9481  0.2852 -3.6739
  247SOL    HW210601   2.580   8.928   1.981 -0.4343 -0.0632  2.2765
  248SOL     OW10602   3.104   0.444   2.141  0.4306 -0.3017 -0.1214
  248SOL    HW110603   3.187   0.479   2.098  0.2809 -0.7772 -0.8160
  248SOL    HW210604   3.129   0.380   2.214  0.6978  1.0659  1.0175
  249SOL     OW10605   3.453   4.842   0.082  0.2638 -0.3119 -0.2404
  249SOL    HW110606   3.395   4.897   0.143  0.5778  0.8343 -0.9506
  249SOL    HW210607   3.411   4.836  -0.008  0.4080 -0.9534 -0.2683
  250SOL     OW10608   3.554   9.534   1.497 -1.1097 -0.1044  0.0508
  250SOL    HW110609   3.482   9.601   1.479 -0.3655  0.7239  0.1315
  250SOL    HW210610   3.582   9.491   1.412  0.0432  1.3713 -0.3206
  251SOL     OW10611   2.208   1.368   1.884 -0.1417 -0.3459  0.5753
  251SOL    HW110612   2.281   1.306   1.911  1.4461  0.8302 -0.8661
  251SOL    HW210613   2.212   1.383   1.785 -0.3104  2.2145  0.9131
  252SOL     OW10614   4.122   2.924   1.204 -0.3773  0.2194 -0.3195
  252SOL    HW110615   4.183   2.949   1.279 -2.0329  1.6428  0.5887
  252SOL    HW210616   4.031   2.904   1.241 -1.3653  1.5382 -2.0065
  253SOL     OW10617   3.877   0.407   2.135 -0.7778 -0.4169 -0.1423
  253SOL    HW110618   3.835   0.479   2.080 -1.4882 -0.3064  0.5417
  253SOL    HW210619   3.945   0.359   2.079 -1.2141 -0.0635 -0.9994
  254SOL     OW10620   4.322   0.154   2.417 -0.1021 -0.0254  0.4357
  254SOL    HW110621   4.292   0.249   2.430 -2.9215 -0.9534  0.9931
  254SOL    HW210622   4.416   0.145   2.450  0.8946  2.9706 -1.3265
  255SOL     OW10623   4.108   3.538   1.157 -0.1323 -0.5415  0.3485
  255SOL    HW110624   4.114   3.572   1.251  0.8393  1.6155 -0.4711
  255SOL    HW210625   4.200   3.518   1.123 -0.2150  1.5308 -1.1452
  256SOL     OW10626   3.621   9.897   2.070  0.0335 -0.4259 -0.8750
  256SOL    HW110627   3.641   9.807   2.031  0.3592 -0.3200 -0.9535
  256SOL    HW210628   3.687   9.916   2.143  1.0342  0.4773 -1.9863
  257SOL     OW10629   2.651   5.575   1.407 -0.6121  0.1802 -0.3940
  257SOL    HW110630   2.743   5.614   1.418 -0.1257 -1.3319  1.3038
  257SOL    HW210631   2.654   5.503   1.338 -1.0305  1.6656 -1.9692
  258SOL     OW10632   3.198   6.682   0.045  0.7842  0.5325 -0.2022
  258SOL    HW110633   3.259   6.605   0.062  0.8586  0.4769 -0.6943
  258SOL    HW210634   3.152   6.669  -0.043  0.6668  0.9647 -0.2078
  259SOL     OW10635   3.070   6.187   0.346 -0.3956 -0.0951  0.7337
  259SOL    HW110636   3.054   6.123   0.421 -0.4126  0.7243  1.4315
  259SOL    HW210637   2.988   6.191   0.288 -0.1121 -1.3013  0.2179
  260SOL     OW10638   4.784   3.889   1.779  0.9393 -0.1528 -0.6277
  260SOL    HW110639   4.687   3.910   1.765  0.7396 -0.8385 -0.2963
  260SOL    HW210640   4.813   3.819   1.713  0.4973 -1.9582  1.0241
  261SOL     OW10641   2.669   3.098   0.075  0.3703 -0.0964  0.7633
  261SOL    HW110642   2.640   3.139   0.161 -2.8709 -1.4981  0.3779
  261SOL    HW210643   2.732   3.022   0.093  1.3930  0.9742  1.7632
  262SOL     OW10644   3.869   3.735   1.666  0.1495 -0.8307 -0.5405
  262SOL    HW110645   3.886   3.821   1.618 -0.9842 -0.1168  0.3300
  262SOL    HW210646   3.957   3.694   1.693  0.6816  0.1562 -0.7724
  263SOL     OW10647   4.175   4.389   1.642 -0.1051 -0.2369 -0.3473
  263SOL    HW110648   4.096   4.398   1.702 -0.1330  0.5569 -0.5065
  263SOL    HW210649   4.225   4.475   1.639 -0.1633 -0.2406 -1.5601
  264SOL     OW10650   4.546   2.281   1.609 -0.1084 -0.1388 -0.6010
  264SOL    HW110651   4.529   2.317   1.700  0.3328  0.4949 -0.7662
  264SOL    HW210652   4.461   2.281   1.556 -0.5174 -1.1706  0.0374
  265SOL     OW10653   2.616   0.208   1.606  0.7570  0.1326 -0.6612
  265SOL    HW110654   2.564   0.198   1.521 -0.9788 -0.5682  0.4623
  265SOL    HW210655   2.626   0.305   1.628 -0.8429  0.2586 -0.4466
  266SOL     OW10656   3.656   1.612   1.302  0.1227 -0.0225 -0.2468
  266SOL    HW110657   3.561   1.629   1.275  0.2717 -0.7365 -1.2710
  266SOL    HW210658   3.684   1.522   1.269  0.9300 -0.1243  0.6934
  267SOL     OW10659   4.040   1.168   2.145  0.6455  0.1782  0.0354
  267SOL    HW110660   4.071   1.228   2.071  1.3270 -1.1971 -0.8156
  267SOL    HW210661   3.942   1.152   2.136  0.3502  1.5855  0.5890
  268SOL     OW10662   3.318   8.649   0.776 -0.1761  0.2528 -0.2550
  268SOL    HW110663   3.253   8.676   0.705  0.4416 -1.0005 -1.3260
  268SOL    HW210664   3.401   8.704   0.768 -0.0860  0.0772 -0.5611
  269SOL     OW10665   3.468   3.869   2.294 -0.7809  0.1516 -0.6512
  269SOL    HW110666   3.498   3.964   2.297 -0.9628  0.2128 -0.7609
  269SOL    HW210667   3.486   3.825   2.382  0.3757 -0.0359 -0.9777
  270SOL     OW10668   3.357   9.136   0.243  0.0818 -0.2332  0.3975
  270SOL    HW110669   3.354   9.235   0.254  1.1803  0.0622 -1.7461
  270SOL    HW210670   3.264   9.101   0.225  0.0192  0.7110 -1.1944
  271SOL     OW10671   4.050   4.840   0.679  0.0447  0.1791  0.9011
  271SOL    HW110672   4.148   4.844   0.659 -0.5553 -0.5497 -2.5202
  271SOL    HW210673   4.018   4.745   0.671 -1.0988  0.5320  1.1408
  272SOL     OW10674   2.473   2.004   2.741 -0.7440  0.2441  0.7695
  272SOL    HW110675   2.505   2.007   2.836  1.4195  1.6016  0.0431
  272SOL    HW210676   2.544   2.042   2.682 -1.3024 -2.2857 -1.5998
  273SOL     OW10677   2.644   3.585   1.490 -0.8695  0.1731  0.3140
  273SOL    HW110678   2.656   3.495   1.530  1.1057 -0.0755 -0.8147
  273SOL    HW210679   2.601   3.646   1.557 -1.5526 -1.3876  1.3114
  274SOL     OW10680   4.996   3.530   0.867  0.5555 -0.0703  0.5606
  274SOL    HW110681   5.027   3.450   0.918 -0.0099 -0.1289  0.8124
  274SOL    HW210682   4.897   3.524   0.853  0.2292  1.4721  2.1299
  275SOL     OW10683   2.554   4.470   1.722 -0.0520 -0.3304 -0.4305
  275SOL    HW110684   2.652   4.467   1.739  0.5466 -0.7574 -3.5188
  275SOL    HW210685   2.538   4.511   1.632 -2.7679  0.5103  0.4034
  276SOL     OW10686   3.247   4.218   1.564  0.1514  0.6993  0.0180
  276SOL    HW110687   3.268   4.184   1.655 -1.2765  1.4311  0.6490
  276SOL    HW210688   3.331   4.236   1.514  0.9252 -1.0443  0.6853
  277SOL     OW10689   3.271   8.972   0.698 -0.3263 -0.3198  0.8091
  277SOL    HW110690   3.292   9.048   0.637 -1.0171 -1.6636 -1.1322
  277SOL    HW210691   3.340   8.967   0.770  0.3716  1.4125  0.2759
  278SOL     OW10692   2.150   5.639   0.725  0.8016  0.2211 -0.5135
  278SOL    HW110693   2.132   5.698   0.645  0.5511  0.1863 -0.4829
  278SOL    HW210694   2.065   5.626   0.776  0.6654 -0.8955 -1.0083
  279SOL     OW10695   3.078   3.476   2.826  0.4377  0.7688 -0.3426
  279SOL    HW110696   3.111   3.418   2.751 -0.0190 -1.1116  0.8720
  279SOL    HW210697   3.036   3.419   2.896 -1.1952  2.7127  0.3072
  280SOL     OW10698   4.224   9.047   1.037 -0.0442  0.2630  0.1473
  280SOL    HW110699   4.264   8.969   1.086 -0.7001 -0.0437  0.2075
  280SOL    HW210700   4.135   9.020   0.999 -1.3241  1.6625  2.0774
  281SOL     OW10701   2.517   8.482   1.434  0.3329  0.0999  0.9519
  281SOL    HW110702   2.579   8.437   1.369  0.7516  1.0322  0.7023
  281SOL    HW210703   2.568   8.506   1.517  0.3362  0.9607  0.7052
  282SOL     OW10704   2.569   9.279   0.983 -0.1384 -0.0539 -0.8388
  282SOL    HW110705   2.638   9.243   1.046  0.5504  1.0633 -0.9374
  282SOL    HW210706   2.534   9.204   0.926 -0.4667 -0.9934  0.5682
  283SOL     OW10707   3.988   0.091   1.794 -0.6307 -0.4185 -0.6572
  283SOL    HW110708   3.984   0.014   1.858  0.6969  0.4630  0.5146
  283SOL    HW210709   4.017   0.173   1.843  1.4792  0.0213 -2.5877
  284SOL     OW10710   2.809   4.551   2.210  0.0252 -0.3035  0.0687
  284SOL    HW110711   2.809   4.466   2.264  0.2093 -0.8373 -0.7734
  284SOL    HW210712   2.720   4.596   2.221  0.6852  0.5495  2.2950
  285SOL     OW10713   4.189   2.366   0.419 -0.2719 -0.1041  0.2083
  285SOL    HW110714   4.250   2.430   0.466  1.5262 -0.9777 -0.8743
  285SOL    HW210715   4.158   2.407   0.333 -2.0598  0.7402  1.2202
  286SOL     OW10716   3.995   0.295   0.190 -0.4384 -0.4001  0.0678
  286SOL    HW110717   3.912   0.262   0.145 -1.1631  0.8904  0.4493
  286SOL    HW210718   3.979   0.386   0.227  1.5484  0.3888 -0.9474
  287SOL     OW10719   3.948   3.630   2.586 -0.5105 -1.1720 -0.2985
  287SOL    HW110720   3.891   3.629   2.504 -0.1899 -2.0893 -0.5116
  287SOL    HW210721   3.904   3.686   2.656 -0.1045  0.7903 -1.5770
  288SOL     OW10722   4.806   4.134   1.657  0.9268  0.4404  0.1810
  288SOL    HW110723   4.843   4.125   1.564  1.0118  1.4200  0.1193
  288SOL    HW210724   4.788   4.043   1.694 -1.2573  0.0832 -1.6563
  289SOL     OW10725   3.570   4.537   2.122 -0.6167 -0.1011  0.2862
  289SOL    HW110726   3.482   4.515   2.081 -0.0225  1.2258 -1.7622
  289SOL    HW210727   3.581   4.636   2.126  1.3826 -0.2563 -0.8365
  290SOL     OW10728   2.309   3.575   0.456 -0.4921 -0.1426 -0.3434
  290SOL    HW110729   2.368   3.559   0.377  0.5629 -1.7529  0.7355
  290SOL    HW210730   2.288   3.487   0.500  1.2239  0.9217  2.7917
  291SOL     OW10731   3.933   8.709   2.158 -0.0033  0.3308  0.4163
  291SOL    HW110732   3.914   8.743   2.066  1.5140 -1.7191 -0.6970
  291SOL    HW210733   3.877   8.628   2.176  0.2393  0.2945  1.0162
  292SOL     OW10734   2.756   7.872   2.234  0.0384  0.3480 -0.4094
  292SOL    HW110735   2.777   7.877   2.137 -1.0149  0.5439 -0.6284
  292SOL    HW210736   2.663   7.837   2.247  0.5686 -0.7722  0.5598
  293SOL     OW10737   2.378   4.366   1.057  0.2577  0.6876  0.3586
  293SOL    HW110738   2.334   4.398   1.141 -0.5856  0.6883 -0.0887
  293SOL    HW210739   2.312   4.319   1.000  1.2979 -1.1432  0.6174
  294SOL     OW10740   4.639   2.606   1.116 -0.3581  0.3385  0.1325
  294SOL    HW110741   4.735   2.593   1.092 -0.4401  1.2997 -0.7667
  294SOL    HW210742   4.621   2.569   1.207  0.6091 -0.8346 -0.1584
  295SOL     OW10743   2.814   3.450   1.766  0.0211  0.2467 -1.2223
  295SOL    HW110744   2.874   3.521   1.730  3.1513 -2.0406 -0.7720
  295SOL    HW210745   2.822   3.368   1.709 -0.9975 -0.8294  0.1431
  296SOL     OW10746   2.885   3.091   1.988  0.5700 -0.1381  0.8341
  296SOL    HW110747   2.903   3.188   2.004  1.1021 -0.2989  1.1865
  296SOL    HW210748   2.963   3.036   2.017 -0.4553 -0.8238  2.3594
  297SOL     OW10749   4.131   3.603   2.831 -0.0468  0.8522 -0.4217
  297SOL    HW110750   4.145   3.672   2.761 -0.4145  0.9812 -0.3678
  297SOL    HW210751   4.083   3.525   2.792 -0.5201  1.0530 -0.2387
  298SOL     OW10752   2.290   0.493   1.799  0.2311  0.0635 -0.7551
  298SOL    HW110753   2.279   0.434   1.719 -1.1543 -0.1682 -0.4081
  298SOL    HW210754   2.341   0.443   1.870  0.4903 -0.1278 -1.0734
  299SOL     OW10755   3.145   5.950   2.592  0.1989 -0.1890  0.2104
  299SOL    HW110756   3.085   5.884   2.546 -0.9868  0.1372  1.2504
  299SOL    HW210757   3.127   6.042   2.556 -1.3040  0.1805  1.8656
  300SOL     OW10758   2.420   4.219   0.199 -0.4530 -0.6687  0.5870
  300SOL    HW110759   2.448   4.142   0.257 -0.2214 -0.0405  1.3290
  300SOL    HW210760   2.440   4.304   0.247 -0.3842 -0.1395 -0.3757
  301SOL     OW10761   2.442   0.738   2.837 -0.0897  0.5677 -0.3632
  301SOL    HW110762   2.489   0.788   2.764  0.1246 -0.3867 -0.8879
  301SOL    HW210763   2.345   0.764   2.837 -0.0035  0.8942 -0.7222
  302SOL     OW10764   2.617   8.162   0.470 -0.1367  0.5189  0.4053
  302SOL    HW110765   2.640   8.094   0.539  0.3884  0.8620  0.5764
  302SOL    HW210766   2.633   8.125   0.378 -0.1675  0.3019  0.4889
  303SOL     OW10767   3.459   8.309   1.503  0.4331  0.0621  0.3714
  303SOL    HW110768   3.542   8.256   1.492  1.1390  1.5473 -1.6741
  303SOL    HW210769   3.482   8.405   1.519 -0.8658  0.4925 -0.2369
  304SOL     OW10770   3.678   4.977   0.526  0.2396 -0.0058 -0.0989
  304SOL    HW110771   3.658   4.898   0.469  1.3245  0.5853 -1.3152
  304SOL    HW210772   3.593   5.023   0.551 -0.3107 -0.8994 -0.3186
  305SOL     OW10773   2.949   2.850   2.431  0.5094  0.1376 -0.3145
  305SOL    HW110774   2.983   2.910   2.359 -4.0572  0.9381 -1.9766
  305SOL    HW210775   2.944   2.756   2.396  1.2870 -0.0454  0.0508
  306SOL     OW10776   1.986   4.839   1.913 -0.1258  0.8307  0.0365
  306SOL    HW110777   1.947   4.805   1.998 -0.5087  1.5698  0.1607
  306SOL    HW210778   2.059   4.778   1.882  0.2551  0.7586  1.0791
  307SOL     OW10779   2.744   5.745   0.231 -0.2830  0.7449  0.2795
  307SOL    HW110780   2.754   5.683   0.309 -0.8934 -1.2488 -1.2069
  307SOL    HW210781   2.656   5.791   0.237 -1.1929 -0.8822 -0.2469
  308SOL     OW10782   2.092   5.983   1.944 -0.1290 -0.5302 -0.5137
  308SOL    HW110783   2.184   6.017   1.963 -0.2901 -0.9824  1.2396
  308SOL    HW210784   2.088   5.885   1.965 -1.3108 -0.2518  0.6387
  309SOL     OW10785   2.300   2.575   0.136 -0.2153 -0.3278 -0.2881
  309SOL    HW110786   2.251   2.645   0.084 -1.1153 -2.0183 -1.8206
  309SOL    HW210787   2.234   2.519   0.186  0.2979 -1.3939 -0.7845
  310SOL     OW10788   3.758   4.083   0.590  0.7415 -0.5750 -0.2687
  310SOL    HW110789   3.762   3.995   0.636  0.5385  0.6140  2.1156
  310SOL    HW210790   3.668   4.125   0.605  1.1893  0.4846 -0.4730
  311SOL     OW10791   3.079   4.886   0.878 -0.3305  0.1155 -0.0858
  311SOL    HW110792   3.009   4.815   0.877 -1.0932  0.8597  0.0575
  311SOL    HW210793   3.102   4.911   0.784 -0.2144 -0.1632 -0.1331
  312SOL     OW10794   3.070   7.098   1.200 -0.0574  0.1376 -0.2220
  312SOL    HW110795   3.048   7.191   1.171 -2.2822 -0.2812  0.0749
  312SOL    HW210796   3.128   7.055   1.130  0.2819  1.4396 -0.7637
  313SOL     OW10797   1.966   2.138   1.999  0.1140 -0.5758 -0.9970
  313SOL    HW110798   1.960   2.193   2.082  2.7073 -0.8093 -0.5923
  313SOL    HW210799   1.986   2.043   2.024 -0.9378 -1.0221 -1.8238
  314SOL     OW10800   2.815   0.849   2.367 -0.0708  0.9509 -0.0180
  314SOL    HW110801   2.834   0.783   2.294 -1.1943  1.3946 -0.7223
  314SOL    HW210802   2.805   0.799   2.454 -3.0240 -0.1013 -0.8881
  315SOL     OW10803   3.329   6.114   0.296  0.3448  0.1331  0.0712
  315SOL    HW110804   3.233   6.142   0.305  0.8976  1.7676  0.9951
  315SOL    HW210805   3.352   6.051   0.370  0.7410  1.9311  1.5141
  316SOL     OW10806   2.539   5.514   2.579  0.4271  0.4288 -0.3989
  316SOL    HW110807   2.551   5.586   2.647  0.7761  2.3938 -2.4592
  316SOL    HW210808   2.496   5.553   2.497  1.6618 -1.4464 -1.9846
  317SOL     OW10809   2.532   1.846   1.768 -0.3601  0.5542 -0.9623
  317SOL    HW110810   2.449   1.790   1.769 -0.6653  1.0308  0.8897
  317SOL    HW210811   2.523   1.922   1.831  1.4400  0.6833 -0.8186
  318SOL     OW10812   4.042   9.668   1.074 -0.0876  0.2034 -0.4949
  318SOL    HW110813   4.102   9.603   1.028  0.4348  0.6327 -0.4382
  318SOL    HW210814   4.077   9.687   1.165 -1.6531 -1.3751  0.4523
  319SOL     OW10815   2.235   5.871   0.993  0.0085  0.0816 -0.0449
  319SOL    HW110816   2.241   5.916   0.904  1.2177 -0.8752 -0.4626
  319SOL    HW210817   2.144   5.886   1.031  0.0567  2.0197 -0.6173
  320SOL     OW10818   4.282   3.522   0.192  0.1776 -0.9743 -0.3787
  320SOL    HW110819   4.212   3.557   0.129  0.1250 -0.6272 -0.1327
  320SOL    HW210820   4.255   3.544   0.286  0.1580 -1.6657 -0.2195
  321SOL     OW10821   3.175   0.777   1.056 -0.1875  1.0087 -0.0014
  321SOL    HW110822   3.206   0.708   0.991 -0.8006 -0.2860  1.0742
  321SOL    HW210823   3.233   0.858   1.048 -0.3757  0.9560 -2.2955
  322SOL     OW10824   2.355   6.748   1.977  0.1834  0.1197  0.1246
  322SOL    HW110825   2.296   6.826   1.998 -0.1033 -0.2960  0.8870
  322SOL    HW210826   2.344   6.678   2.048  1.2843 -0.1379  0.0501
  323SOL     OW10827   2.488   6.207   1.528 -0.2082 -0.0391 -0.2195
  323SOL    HW110828   2.586   6.228   1.527  0.1462 -1.5736  0.2177
  323SOL    HW210829   2.454   6.211   1.622 -0.5544  0.4660 -0.3692
  324SOL     OW10830   2.560   4.693   2.154  0.0924  0.2547 -0.2946
  324SOL    HW110831   2.516   4.604   2.139  0.6609  0.3695 -2.7533
  324SOL    HW210832   2.491   4.765   2.157 -0.2037 -0.0305 -0.2678
  325SOL     OW10833   2.475   8.681   0.169 -0.0024 -0.0449  0.5212
  325SOL    HW110834   2.420   8.688   0.085 -0.2495 -0.6723  0.6325
  325SOL    HW210835   2.547   8.614   0.156  0.9300  0.9820  0.2781
  326SOL     OW10836   3.989   4.335   2.717  0.4165 -0.1869  0.3507
  326SOL    HW110837   4.057   4.353   2.788  1.4175  1.5381 -1.0101
  326SOL    HW210838   3.899   4.364   2.750  0.4678 -1.5480  1.7737
  327SOL     OW10839   3.415   4.100   2.059 -0.2977 -0.3899  0.4108
  327SOL    HW110840   3.471   4.076   1.980  0.5467  0.4421  0.7478
  327SOL    HW210841   3.367   4.018   2.092 -1.1151 -0.6243 -1.3060
  328SOL     OW10842   2.149   2.933   2.088 -0.2465 -0.5574  0.9882
  328SOL    HW110843   2.098   2.853   2.055 -1.7554  0.4444  0.8601
  328SOL    HW210844   2.247   2.913   2.085 -0.5456 -1.9248 -0.3135
  329SOL     OW10845   3.499   4.509   0.273 -0.4496  0.4292 -0.4281
  329SOL    HW110846   3.420   4.512   0.333 -0.2174  0.4281 -0.1234
  329SOL    HW210847   3.545   4.598   0.274 -0.8049  0.6233 -1.0831
  330SOL     OW10848   2.412   4.441   2.145 -0.7912  0.1887  0.4393
  330SOL    HW110849   2.472   4.388   2.086  0.7989 -0.7260  2.7884
  330SOL    HW210850   2.317   4.416   2.129 -0.4453  0.3949 -2.1030
  331SOL     OW10851   3.718   3.551   0.930 -0.1102 -0.2872 -0.5133
  331SOL    HW110852   3.732   3.647   0.956 -0.7917 -0.2238 -0.3790
  331SOL    HW210853   3.795   3.521   0.873  0.4606  0.1238  0.0305
  332SOL     OW10854   2.378   6.991   0.960 -0.5981 -0.4173 -0.3858
  332SOL    HW110855   2.389   6.943   0.873 -0.6021  0.2839 -0.7741
  332SOL    HW210856   2.314   6.939   1.018  0.0157 -1.2972 -0.4852
  333SOL     OW10857   2.764   2.489   0.354  0.3467 -0.1468 -0.5576
  333SOL    HW110858   2.805   2.406   0.318  1.0147 -0.1489  0.1946
  333SOL    HW210859   2.713   2.536   0.282  0.6908 -0.7576 -1.1921
  334SOL     OW10860   3.015   8.250   1.921 -0.3481  0.3000  0.1263
  334SOL    HW110861   3.072   8.196   1.983 -0.1696  0.2861 -0.0489
  334SOL    HW210862   3.061   8.259   1.833 -0.4766  0.5560  0.0851
  335SOL     OW10863   5.158   3.766   2.124  0.3509 -1.0851 -0.0025
  335SOL    HW110864   5.120   3.782   2.033  1.5247  0.3617 -0.2541
  335SOL    HW210865   5.117   3.830   2.189  1.1908 -0.5590  0.0229
  336SOL     OW10866   2.352   5.756   1.723 -0.2361  0.3314 -0.2398
  336SOL    HW110867   2.256   5.767   1.746 -0.4318  1.2965 -1.4160
  336SOL    HW210868   2.373   5.659   1.711 -1.4895  0.2136 -1.6658
  337SOL     OW10869   3.579   4.584   2.382  0.1888 -0.3728  0.1696
  337SOL    HW110870   3.677   4.608   2.384  0.2369 -0.5077 -0.3168
  337SOL    HW210871   3.553   4.564   2.287  0.3042 -2.9266  0.6515
  338SOL     OW10872   2.258   7.271   1.226  0.1098  0.1032  0.2021
  338SOL    HW110873   2.340   7.327   1.242 -0.0140 -0.0815  1.5371
  338SOL    HW210874   2.267   7.185   1.277 -0.9302  0.1023  0.3822
  339SOL     OW10875   2.806   1.080   1.067  0.2517 -0.7282 -0.0703
  339SOL    HW110876   2.832   0.991   1.031  0.1599 -1.0746  0.7202
  339SOL    HW210877   2.707   1.092   1.058 -0.0884 -1.7234  2.0595
  340SOL     OW10878   2.016   4.472   0.108  0.9174 -0.2591 -0.1148
  340SOL    HW110879   2.063   4.385   0.099 -1.8391 -1.9272  0.8378
  340SOL    HW210880   2.000   4.511   0.017  0.0262 -1.9931 -0.7246
  341SOL     OW10881   2.345   6.512   2.136 -0.4946  0.2038 -0.2128
  341SOL    HW110882   2.433   6.473   2.109 -0.0920  1.2224 -0.3590
  341SOL    HW210883   2.309   6.461   2.215 -0.0891 -0.6196 -0.5499
  342SOL     OW10884   3.150   8.472   2.652  0.3866  0.2570  0.5281
  342SOL    HW110885   3.246   8.464   2.679  0.3098 -1.0981  0.4683
  342SOL    HW210886   3.092   8.450   2.731  0.1464 -1.1931 -0.0408
  343SOL     OW10887   2.872   3.275   0.642 -0.8757  0.7645 -0.2675
  343SOL    HW110888   2.820   3.197   0.676 -1.0393  1.7786  1.9233
  343SOL    HW210889   2.819   3.359   0.657 -0.6185  1.3305 -2.4057
  344SOL     OW10890   2.320   2.044   1.709 -0.0327  0.0045 -0.1063
  344SOL    HW110891   2.366   2.089   1.785  1.7001 -2.5148  0.4191
  344SOL    HW210892   2.276   1.960   1.741  0.0920 -0.7100 -1.7367
  345SOL     OW10893   4.031   8.787   0.531  0.0101 -0.3557 -0.4513
  345SOL    HW110894   3.948   8.782   0.476  0.4072  0.2316 -1.1134
  345SOL    HW210895   4.045   8.700   0.578 -1.9420  0.1432  1.0855
  346SOL     OW10896   2.476   0.782   0.589  0.5337  0.2608 -0.9772
  346SOL    HW110897   2.489   0.702   0.648  1.1792  0.6561 -0.5653
  346SOL    HW210898   2.385   0.779   0.548 -0.4599  0.6926  1.1394
  347SOL     OW10899   2.172   1.789   0.507  0.1864 -0.1289 -0.0062
  347SOL    HW110900   2.254   1.772   0.562 -0.2948 -0.4045  0.6212
  347SOL    HW210901   2.130   1.702   0.481 -0.0966  0.0205 -0.0548
  348SOL     OW10902   2.317   8.364   0.813 -0.0795 -0.2280  0.0105
  348SOL    HW110903   2.415   8.343   0.824 -0.3436 -0.9357  1.1410
  348SOL    HW210904   2.290   8.347   0.719  0.7041 -0.8395 -0.1147
  349SOL     OW10905   3.913   4.941   2.672  0.2990  0.0994 -0.2989
  349SOL    HW110906   3.984   5.000   2.711 -0.2742  0.9515 -0.5217
  349SOL    HW210907   3.933   4.924   2.576  0.5767 -0.2433 -0.1808
  350SOL     OW10908   2.465   5.154   1.798 -0.1811  0.1537  0.3106
  350SOL    HW110909   2.372   5.153   1.761 -0.6100  0.4968  1.3654
  350SOL    HW210910   2.508   5.243   1.777 -0.3617  0.2833  0.4914
  351SOL     OW10911   2.200   0.871   0.436  0.8678  0.2019 -0.0666
  351SOL    HW110912   2.109   0.890   0.472  1.1777  2.7604 -0.5360
  351SOL    HW210913   2.195   0.797   0.369 -0.9181  0.6262 -0.4129
  352SOL     OW10914   4.382   4.674   0.198 -0.0314  0.4382 -0.0854
  352SOL    HW110915   4.411   4.589   0.155  1.7054  0.3995  1.0941
  352SOL    HW210916   4.462   4.731   0.217 -1.0638  1.8413  0.1825
  353SOL     OW10917   2.665   7.262   0.436  0.0805  0.6587 -0.1993
  353SOL    HW110918   2.570   7.230   0.432 -0.2631  1.5863  0.5123
  353SOL    HW210919   2.668   7.356   0.469  1.2657  0.5897 -0.0717
  354SOL     OW10920   3.832   0.954   2.124  0.3793 -0.3483  0.1909
  354SOL    HW110921   3.763   0.948   2.051 -0.1755 -0.4870  0.7254
  354SOL    HW210922   3.918   0.915   2.091  0.3925  0.4406 -0.7099
  355SOL     OW10923   3.926   1.541   2.045 -0.7018 -0.2418  0.2348
  355SOL    HW110924   3.955   1.612   2.110 -1.7352  0.5636 -0.1592
  355SOL    HW210925   3.844   1.497   2.079 -0.0786 -1.2397  0.4571
  356SOL     OW10926   1.730   1.788   1.773 -0.3232 -0.0846  0.1713
  356SOL    HW110927   1.710   1.885   1.785  0.1552  0.0347 -0.0076
  356SOL    HW210928   1.715   1.740   1.860  1.3394  0.4805  0.7954
  357SOL     OW10929   4.038   0.709   1.522  0.0232  0.1932  0.5099
  357SOL    HW110930   3.967   0.746   1.462  0.4872 -0.6707 -0.5947
  357SOL    HW210931   4.028   0.748   1.614  0.0206  2.4260 -0.4201
  358SOL     OW10932   3.009   2.915   1.299 -0.0879  0.0011  0.5351
  358SOL    HW110933   3.036   2.879   1.388  2.6719 -0.1564 -0.3327
  358SOL    HW210934   3.004   3.015   1.303 -2.4488 -0.1309  1.5043
  359SOL     OW10935   4.404   2.605   2.519  0.6238  0.0560 -0.4069
  359SOL    HW110936   4.372   2.525   2.570  0.1063 -0.2910 -1.2635
  359SOL    HW210937   4.501   2.621   2.540  0.3752  0.0284  0.8058
  360SOL     OW10938   4.418   9.365   0.615  0.3604 -0.3667 -0.3942
  360SOL    HW110939   4.427   9.300   0.690  0.2212 -0.9663 -0.8922
  360SOL    HW210940   4.444   9.322   0.529 -4.1001 -1.2805 -1.4413
  361SOL     OW10941   2.519   5.767   0.875 -0.3212  0.6041  0.7965
  361SOL    HW110942   2.463   5.835   0.923 -1.8458 -0.4864  0.5802
  361SOL    HW210943   2.462   5.715   0.812  0.7804 -1.0759  1.1498
  362SOL     OW10944   3.686   1.971   2.553  0.1912  0.1357  0.1216
  362SOL    HW110945   3.671   2.056   2.604 -0.2525  0.1322 -0.0059
  362SOL    HW210946   3.648   1.894   2.604  0.6334  0.0070  0.2581
  363SOL     OW10947   3.589   0.912   1.215 -0.0816  0.8284  1.0233
  363SOL    HW110948   3.565   0.835   1.274  1.6423 -0.0071  0.6675
  363SOL    HW210949   3.571   0.888   1.119 -0.1354  1.1057  0.9622
  364SOL     OW10950   2.309   7.777   2.691  0.5837 -0.2949  0.0913
  364SOL    HW110951   2.342   7.730   2.773  1.8961 -0.7917 -0.6937
  364SOL    HW210952   2.374   7.762   2.616 -1.5937 -1.5733 -1.6209
  365SOL     OW10953   2.434   2.361   1.480 -0.0704 -0.0248  0.3888
  365SOL    HW110954   2.383   2.293   1.427  0.7892 -0.5256  0.1977
  365SOL    HW210955   2.497   2.411   1.420  1.9766 -1.6029  1.1576
  366SOL     OW10956   1.735   4.528   0.629 -0.1945 -0.3693  0.3696
  366SOL    HW110957   1.706   4.471   0.552 -0.9000 -0.5491  0.7621
  366SOL    HW210958   1.793   4.475   0.690  0.0695 -0.3347  0.1475
  367SOL     OW10959   4.246   2.591   0.648 -0.3108 -0.1356  0.1748
  367SOL    HW110960   4.174   2.595   0.717 -0.8439 -0.6139 -0.3505
  367SOL    HW210961   4.276   2.684   0.626 -0.0911  0.0153  1.0915
  368SOL     OW10962   2.967   9.025   1.384  0.3528 -0.0231  0.3812
  368SOL    HW110963   3.009   9.034   1.474 -0.3689  2.4378  0.5147
  368SOL    HW210964   2.875   9.062   1.387  0.4210  0.3188 -1.4486
  369SOL     OW10965   4.490   3.062   0.984 -0.7821  0.0092 -0.0683
  369SOL    HW110966   4.577   3.099   0.952 -1.8353  2.4785 -0.2234
  369SOL    HW210967   4.463   2.985   0.927  1.1846 -0.6512 -0.1395
  370SOL     OW10968   3.177   7.506   2.457  0.4815 -0.1013 -0.1783
  370SOL    HW110969   3.148   7.441   2.387 -1.5950 -0.0533  0.5906
  370SOL    HW210970   3.097   7.535   2.510  2.1759 -1.0009  2.9728
  371SOL     OW10971   3.772   3.020   2.823  0.3469 -0.7669  0.3559
  371SOL    HW110972   3.759   2.921   2.820 -0.6801 -0.6192 -0.6869
  371SOL    HW210973   3.838   3.047   2.753 -1.5533 -0.4274 -1.3633
  372SOL     OW10974   3.430   2.952   1.103 -0.1929 -0.3043 -0.6056
  372SOL    HW110975   3.510   2.995   1.062  1.4445 -1.0658  1.6789
  372SOL    HW210976   3.459   2.878   1.163 -2.6321 -0.6548  0.2202
  373SOL     OW10977   2.240   1.128   2.302  0.2443  0.2112 -0.1568
  373SOL    HW110978   2.287   1.210   2.269 -0.6558  0.0489 -1.8931
  373SOL    HW210979   2.161   1.109   2.244 -2.1027  0.5609  2.7955
  374SOL     OW10980   3.436   4.523   0.781  0.4435 -0.6150 -0.4103
  374SOL    HW110981   3.532   4.536   0.757  0.0208  0.8576 -1.3804
  374SOL    HW210982   3.416   4.575   0.865  0.6158 -1.3446  0.0843
  375SOL     OW10983   3.668   3.233   2.160 -0.4349  0.5443  0.0944
  375SOL    HW110984   3.690   3.269   2.251  0.8320  0.4217 -0.1535
  375SOL    HW210985   3.752   3.207   2.114 -1.0369  1.1271 -1.3441
  376SOL     OW10986   4.869   2.987   1.433  0.7567  0.0427 -0.2229
  376SOL    HW110987   4.940   3.050   1.464  0.5595 -0.2225  0.7791
  376SOL    HW210988   4.886   2.963   1.337  0.1198  2.5975 -1.0089
  377SOL     OW10989   4.396   1.337   1.326  0.1543 -0.6793  0.3302
  377SOL    HW110990   4.353   1.321   1.414  1.7290  0.3608  1.3368
  377SOL    HW210991   4.341   1.401   1.272 -0.2708 -0.4644  1.0211
  378SOL     OW10992   2.384   6.446   2.504  0.2089  0.5192  0.2965
  378SOL    HW110993   2.343   6.536   2.518 -0.1122  0.9240 -2.8538
  378SOL    HW210994   2.469   6.456   2.451  0.2800 -0.9969  0.0993
  379SOL     OW10995   3.867   4.922   1.723  0.1534  0.6519  0.5599
  379SOL    HW110996   3.920   4.876   1.794 -0.6831 -0.6369  0.3512
  379SOL    HW210997   3.775   4.884   1.719  0.1201  0.8490 -1.0804
  380SOL     OW10998   5.574   3.654   2.021 -0.4868  0.1548 -0.2794
  380SOL    HW110999   5.617   3.564   2.013 -1.7207 -0.3629 -1.1374
  380SOL    HW211000   5.478   3.648   1.994 -0.9179  1.4658  0.9026
  381SOL     OW11001   2.499   7.518   1.818  0.2144 -0.2144  0.0698
  381SOL    HW111002   2.492   7.424   1.853  1.6527 -0.0165  0.9296
  381SOL    HW211003   2.456   7.581   1.883  1.9458  0.0391  0.9923
  382SOL     OW11004   2.545   6.027   1.018  0.1104  0.0795 -0.3813
  382SOL    HW111005   2.511   6.097   1.080  0.1541 -1.3573  1.3122
  382SOL    HW211006   2.627   5.985   1.056  0.8083 -0.0617 -1.9663
  383SOL     OW11007   3.373   1.918   2.017 -0.0577 -0.2822 -0.2889
  383SOL    HW111008   3.318   1.908   2.100 -1.6477 -0.7541 -1.3900
  383SOL    HW211009   3.469   1.899   2.039 -0.2615  0.8491  1.7030
  384SOL     OW11010   2.734   5.808   0.716  0.6049 -0.1766  0.4774
  384SOL    HW111011   2.653   5.802   0.774  0.7229  0.3272  0.6970
  384SOL    HW211012   2.774   5.717   0.704  0.2767 -0.3567  0.7530
  385SOL     OW11013   2.738   9.019   2.224 -0.5538  0.3176 -0.7217
  385SOL    HW111014   2.801   8.978   2.290  1.5208  2.4601 -1.2916
  385SOL    HW211015   2.716   8.952   2.153  1.5034 -0.3342 -0.7813
  386SOL     OW11016   2.658   0.200   2.245 -0.8003  0.6617 -0.3514
  386SOL    HW111017   2.739   0.181   2.301  0.5538  1.5312 -1.9593
  386SOL    HW211018   2.575   0.187   2.300  0.4474  0.5171  1.5373
  387SOL     OW11019   3.383   3.257   2.756 -0.3185 -0.6656  0.1498
  387SOL    HW111020   3.398   3.171   2.805  0.1152 -0.7075 -0.0494
  387SOL    HW211021   3.439   3.329   2.798  0.0391 -0.6970 -0.2614
  388SOL     OW11022   2.500   2.355   0.436  0.0657  0.0485  0.0038
  388SOL    HW111023   2.460   2.299   0.363 -0.7224 -0.6215  0.9293
  388SOL    HW211024   2.597   2.333   0.445 -0.4463 -1.9948  1.0530
  389SOL     OW11025   3.087   7.402   0.359  0.3196  0.2176  0.4657
  389SOL    HW111026   3.119   7.372   0.449 -0.1747 -0.7487  0.3259
  389SOL    HW211027   3.024   7.334   0.322 -0.9474  1.4944  0.2080
  390SOL     OW11028   2.737   6.945   1.256  0.3567  0.3631 -0.4666
  390SOL    HW111029   2.715   6.949   1.159  1.9838  0.1881 -0.8642
  390SOL    HW211030   2.793   6.863   1.274  2.2941  1.7832  0.1337
  391SOL     OW11031   3.479   8.487   0.580  0.0710  0.1372 -0.3534
  391SOL    HW111032   3.410   8.419   0.601  0.9985 -0.8169 -0.3613
  391SOL    HW211033   3.530   8.510   0.663  0.2783  0.2458 -0.5103
  392SOL     OW11034   3.017   9.228   2.145 -0.4515  0.0146 -0.0197
  392SOL    HW111035   3.067   9.261   2.226 -1.0205 -0.2791  0.4522
  392SOL    HW211036   3.018   9.299   2.074 -0.4146  0.4853  0.4449
  393SOL     OW11037   4.421   2.814   0.846  0.2125 -0.0881  0.5975
  393SOL    HW111038   4.473   2.846   0.767  0.4917 -0.0975  0.7785
  393SOL    HW211039   4.454   2.724   0.875 -0.5948 -0.5658  0.0681
  394SOL     OW11040   3.112   4.678   2.649 -0.6352  0.1792 -0.6478
  394SOL    HW111041   3.053   4.668   2.569 -0.6042  1.5072 -0.8444
  394SOL    HW211042   3.168   4.760   2.640  0.2703 -0.3359  0.1642
  395SOL     OW11043   2.182   4.727   1.720  0.2191  0.1738  0.1556
  395SOL    HW111044   2.259   4.677   1.759 -0.3217 -1.2231 -0.5320
  395SOL    HW211045   2.118   4.662   1.677 -0.0890  1.5037 -1.4606
  396SOL     OW11046   4.402   0.874   1.416  0.2795  0.5263  0.4921
  396SOL    HW111047   4.354   0.905   1.498 -0.3011 -0.3239  0.4780
  396SOL    HW211048   4.406   0.949   1.350 -1.6207  0.4221  0.2221
  397SOL     OW11049   4.017   8.439   0.530 -0.0605 -0.3194 -0.0640
  397SOL    HW111050   4.103   8.465   0.487 -0.0915  1.1286  0.7110
  397SOL    HW211051   4.019   8.462   0.627 -1.0092 -1.0466  0.1419
  398SOL     OW11052   3.399   9.516   2.400 -0.2449  0.5058 -0.2803
  398SOL    HW111053   3.487   9.541   2.439  0.0255  1.0399 -1.2104
  398SOL    HW211054   3.358   9.442   2.453  1.0007 -0.1002 -0.1466
  399SOL     OW11055   1.818   4.011   2.327 -0.2571  0.2443 -0.4040
  399SOL    HW111056   1.753   4.036   2.399  0.9149  1.1964  0.3550
  399SOL    HW211057   1.819   3.912   2.316 -0.0638  0.0458  1.2592
  400SOL     OW11058   2.952   7.213   0.027  0.5953  0.1449  0.1336
  400SOL    HW111059   3.018   7.287   0.014 -0.1453  0.6306 -0.9111
  400SOL    HW211060   2.915   7.218   0.120  1.5312  0.2642  0.5118
  401SOL     OW11061   2.516   7.670   1.127 -0.8379  0.4815 -0.1298
  401SOL    HW111062   2.524   7.728   1.208 -1.9044 -0.3266  0.5625
  401SOL    HW211063   2.455   7.593   1.146 -1.9578  0.8491 -2.0013
  402SOL     OW11064   2.494   5.664   2.140 -0.2197 -0.0445  0.1781
  402SOL    HW111065   2.498   5.599   2.065 -0.2811 -1.4759  1.3924
  402SOL    HW211066   2.578   5.717   2.143  1.0890 -2.1277  0.9842
  403SOL     OW11067   3.074   9.902   2.192 -0.3648  0.7461 -0.3736
  403SOL    HW111068   3.132   9.952   2.256  0.4704  0.8843 -1.2316
  403SOL    HW211069   3.018   9.966   2.140  0.9204  0.8287 -1.6821
  404SOL     OW11070   1.752   2.579   2.785  0.4978  0.1102 -0.0794
  404SOL    HW111071   1.823   2.642   2.755 -0.0757  0.2786 -1.1102
  404SOL    HW211072   1.668   2.631   2.805  0.6241 -0.0979  1.0058
  405SOL     OW11073   2.970   1.112   1.637  0.3897 -0.4885  0.3077
  405SOL    HW111074   2.893   1.168   1.669  1.2368  0.8571  0.0638
  405SOL    HW211075   3.050   1.130   1.695  0.9480 -0.6853 -0.3980
  406SOL     OW11076   3.399   4.405   1.784  0.4705  0.1914 -0.7050
  406SOL    HW111077   3.357   4.397   1.875 -0.6025  1.4969 -1.0660
  406SOL    HW211078   3.376   4.494   1.745 -0.4211 -0.9980 -2.9250
  407SOL     OW11079   3.644   9.477   2.770 -0.4327  0.5125 -0.2653
  407SOL    HW111080   3.568   9.415   2.750  0.7662 -0.7571 -0.9248
  407SOL    HW211081   3.641   9.554   2.706  0.0540 -0.6202 -1.6949
  408SOL     OW11082   3.068   2.744   1.514 -0.1795 -0.6016 -0.5582
  408SOL    HW111083   3.164   2.771   1.525 -0.8819  0.9606  2.4412
  408SOL    HW211084   3.063   2.648   1.488  2.1971 -0.7218 -0.6976
  409SOL     OW11085   4.079   1.931   1.239 -0.2811  0.1019  1.2618
  409SOL    HW111086   3.991   1.937   1.191 -0.7057  1.2176  2.1619
  409SOL    HW211087   4.129   1.851   1.206 -1.4005 -0.2467  0.3584
  410SOL     OW11088   2.775   6.774   2.016  0.1837  0.6938  0.0781
  410SOL    HW111089   2.850   6.828   1.979  2.1195 -1.0607  1.3016
  410SOL    HW211090   2.770   6.687   1.968 -2.0106  1.3656 -0.9472
  411SOL     OW11091   4.718   4.006   2.279  0.1868 -0.0023  0.1377
  411SOL    HW111092   4.681   3.940   2.214 -1.0768  0.3768  0.4607
  411SOL    HW211093   4.817   3.992   2.288  0.2141 -0.7086 -1.0984
  412SOL     OW11094   2.318   6.630   1.721  0.7311  0.7487  0.1028
  412SOL    HW111095   2.326   6.663   1.815  1.5107 -0.3348  0.4202
  412SOL    HW211096   2.255   6.552   1.718 -0.0990  1.4335 -0.4411
  413SOL     OW11097   2.849   2.496   0.992 -0.3592  0.2110  0.4922
  413SOL    HW111098   2.871   2.574   1.051 -1.5199  2.9030 -2.4780
  413SOL    HW211099   2.910   2.496   0.913 -0.0084 -2.2831  0.7297
  414SOL     OW11100   3.809   0.806   1.374 -0.1758 -0.7707  0.3901
  414SOL    HW111101   3.721   0.760   1.382 -0.8050  0.0300 -1.6871
  414SOL    HW211102   3.800   0.901   1.404 -0.3846 -0.2875 -1.1627
  415SOL     OW11103   2.833   5.035   2.250  0.0161 -0.7883  0.7480
  415SOL    HW111104   2.870   5.058   2.160 -1.2876  3.5222  1.1895
  415SOL    HW211105   2.908   5.016   2.314  0.9817 -2.7265 -0.9246
  416SOL     OW11106   2.445   3.052   1.488 -0.5056 -0.9691  0.5616
  416SOL    HW111107   2.363   3.017   1.443 -0.6407  0.0867 -0.0209
  416SOL    HW211108   2.526   3.023   1.437 -0.5556 -1.3109  0.6726
  417SOL     OW11109   4.092   3.888   1.235  0.0111  0.0674  0.3925
  417SOL    HW111110   4.026   3.819   1.265  0.3740 -0.7397 -0.6213
  417SOL    HW211111   4.164   3.897   1.304 -0.3880 -0.0890  0.8337
  418SOL     OW11112   4.811   2.676   2.216 -0.4562  0.5556 -0.3091
  418SOL    HW111113   4.890   2.735   2.233 -0.0921 -0.5082  1.9574
  418SOL    HW211114   4.738   2.728   2.174  1.4432  1.5803 -2.4041
  419SOL     OW11115   2.324   6.868   0.705  0.0212 -0.2940 -0.0291
  419SOL    HW111116   2.294   6.772   0.704 -0.1389 -0.2503  0.5193
  419SOL    HW211117   2.358   6.893   0.614 -1.4912 -0.3879 -0.6344
  420SOL     OW11118   3.503   2.637   2.242  1.1056 -0.2217 -0.3906
  420SOL    HW111119   3.593   2.598   2.224  1.6069  1.0579 -0.6996
  420SOL    HW211120   3.454   2.650   2.156  0.9441 -0.1796 -0.2925
  421SOL     OW11121   2.743   0.694   0.544 -0.0319  0.1912  0.7127
  421SOL    HW111122   2.735   0.609   0.491  0.0506  1.3327 -1.1441
  421SOL    HW211123   2.653   0.737   0.552  0.2992  1.0999 -0.3225
  422SOL     OW11124   3.172   8.581   1.037 -0.2607  0.2202 -0.3498
  422SOL    HW111125   3.221   8.557   0.953 -0.8897 -0.4265 -0.5367
  422SOL    HW211126   3.113   8.505   1.064  2.0192 -0.6782  2.2462
  423SOL     OW11127   2.336   1.640   1.766 -0.2972 -0.3809 -0.1988
  423SOL    HW111128   2.291   1.556   1.734 -0.1446 -0.9296  0.9885
  423SOL    HW211129   2.268   1.712   1.777 -0.3098 -0.0900 -2.0193
  424SOL     OW11130   1.586   4.051   2.132  0.5808  0.6931  0.1928
  424SOL    HW111131   1.610   4.075   2.226  1.0707  0.2331  0.1891
  424SOL    HW211132   1.647   3.979   2.099  0.0184  0.4144 -0.2670
  425SOL     OW11133   1.981   3.644   1.689  0.2708 -0.0262 -0.2397
  425SOL    HW111134   1.885   3.662   1.712  0.3875 -1.0950  1.1515
  425SOL    HW211135   2.036   3.724   1.711 -0.2071  0.3776 -0.4878
  426SOL     OW11136   3.065   6.279   1.606  0.6431 -0.6133 -0.6571
  426SOL    HW111137   3.049   6.318   1.516  1.2464  0.0047 -0.5016
  426SOL    HW211138   3.030   6.341   1.676  0.3036 -1.0235 -0.4623
  427SOL     OW11139   3.054   7.130   1.757 -0.1790 -0.2416 -0.5407
  427SOL    HW111140   3.069   7.153   1.661  0.5834 -1.1451 -0.6479
  427SOL    HW211141   3.020   7.036   1.764 -2.1795  0.4934 -0.0504
  428SOL     OW11142   3.326   2.129   0.949  0.6314  0.5877 -0.1534
  428SOL    HW111143   3.316   2.212   1.005  0.1996  1.6758 -1.8016
  428SOL    HW211144   3.241   2.077   0.951  1.1331 -0.1880  1.4484
  429SOL     OW11145   3.287   4.485   2.748 -0.3493  0.0384 -0.4958
  429SOL    HW111146   3.229   4.544   2.693 -1.6759 -0.2215  0.5894
  429SOL    HW211147   3.369   4.460   2.696 -1.0087  0.7493 -1.8912
  430SOL     OW11148   2.397   9.874   0.669  0.4711 -0.2308 -0.0065
  430SOL    HW111149   2.483   9.881   0.719  0.3816 -1.4750  0.3430
  430SOL    HW211150   2.364   9.780   0.673  0.9881 -0.6317 -3.2471
  431SOL     OW11151   3.082   0.020   1.246 -0.6386  0.0918 -0.2327
  431SOL    HW111152   3.053  -0.068   1.282  0.8428 -0.2166  0.2215
  431SOL    HW211153   3.096   0.013   1.147  1.9722 -0.8762  0.1775
  432SOL     OW11154   2.348   1.356   2.189  0.4302 -0.3291  0.3266
  432SOL    HW111155   2.310   1.428   2.249 -0.5738  1.0012 -1.8434
  432SOL    HW211156   2.400   1.399   2.115 -0.0371 -1.8435 -0.8972
  433SOL     OW11157   2.766   3.203   2.395 -0.7604 -0.1778  0.2926
  433SOL    HW111158   2.703   3.153   2.454  0.0813  0.0953  1.4467
  433SOL    HW211159   2.860   3.179   2.419 -0.3908  0.3312 -0.6025
  434SOL     OW11160   4.107   9.235   0.630 -0.3492 -0.7802  0.9492
  434SOL    HW111161   4.137   9.157   0.575 -0.7768  0.5824 -1.3070
  434SOL    HW211162   4.185   9.271   0.682  0.5391 -0.9296 -0.2466
  435SOL     OW11163   1.635   4.287   1.934 -0.0878 -0.0243 -0.4814
  435SOL    HW111164   1.626   4.259   2.030  0.1089 -0.8827 -0.7028
  435SOL    HW211165   1.621   4.207   1.875  0.8475  0.2874 -1.1313
  436SOL     OW11166   4.380   1.694   2.165  0.0790  0.5397  0.3508
  436SOL    HW111167   4.401   1.707   2.262 -0.0630 -0.2276  0.4912
  436SOL    HW211168   4.446   1.629   2.126 -0.6630 -0.1643  0.2558
  437SOL     OW11169   3.065   7.693   0.987  1.0121  0.1424  0.2486
  437SOL    HW111170   3.141   7.757   1.000 -0.3586  1.9749 -0.5729
  437SOL    HW211171   3.029   7.666   1.076  2.7369 -0.9216  0.6619
  438SOL     OW11172   3.690   1.499   2.555  0.0639 -0.1265  0.5151
  438SOL    HW111173   3.627   1.536   2.486 -0.9596 -3.6607 -0.5570
  438SOL    HW211174   3.782   1.533   2.537 -0.2312 -0.7518 -2.4749
  439SOL     OW11175   4.417   3.713   0.513 -0.3155  0.4001  0.6422
  439SOL    HW111176   4.370   3.768   0.444  1.5661  0.0858 -0.9518
  439SOL    HW211177   4.447   3.771   0.588 -1.5752  0.9014  0.7701
  440SOL     OW11178   2.070   5.407   0.336  0.1633 -0.4833 -0.1297
  440SOL    HW111179   1.998   5.340   0.317  1.7317 -1.9606 -1.0062
  440SOL    HW211180   2.111   5.387   0.426 -0.5470  0.3783  0.3865
  441SOL     OW11181   2.890   5.631   0.019  0.0128  0.3052 -0.3039
  441SOL    HW111182   2.878   5.680   0.106  3.5758 -0.1635  0.5071
  441SOL    HW211183   2.864   5.535   0.032 -0.6899  0.5083 -0.1387
  442SOL     OW11184   4.251   1.457   1.714 -0.6977  0.1293  0.5044
  442SOL    HW111185   4.276   1.553   1.711 -2.5515  0.6009 -0.3357
  442SOL    HW211186   4.327   1.402   1.678 -0.3859  1.4243 -0.8585
  443SOL     OW11187   3.594   5.272   0.082  0.0784 -0.1165  0.0426
  443SOL    HW111188   3.609   5.185   0.034 -1.0473  0.0617 -0.6442
  443SOL    HW211189   3.592   5.256   0.180  1.2097 -0.6665 -0.0076
  444SOL     OW11190   2.436   9.723   2.658  0.4526  0.1676 -0.0442
  444SOL    HW111191   2.424   9.636   2.706 -0.8984 -0.1303 -0.8657
  444SOL    HW211192   2.456   9.705   2.562 -3.8522  0.6855 -1.1570
  445SOL     OW11193   2.296   9.304   1.705 -0.3893  0.2660 -0.2856
  445SOL    HW111194   2.370   9.358   1.747 -0.2048 -0.4308  0.3024
  445SOL    HW211195   2.332   9.253   1.627 -0.4946  0.7516 -0.6540
  446SOL     OW11196   3.733   2.037   0.922  0.0484  0.0050 -0.0745
  446SOL    HW111197   3.789   2.090   0.986  0.6647 -0.4087 -0.2716
  446SOL    HW211198   3.714   1.947   0.960 -0.3912  0.1001 -0.0608
  447SOL     OW11199   3.599   0.326   2.132  0.3187  0.0118 -0.0543
  447SOL    HW111200   3.572   0.329   2.228  0.6406 -0.7588  0.0598
  447SOL    HW211201   3.698   0.335   2.125  0.3672 -0.6718 -0.2684
  448SOL     OW11202   3.904   9.407   0.517 -0.2457 -0.0531 -0.6555
  448SOL    HW111203   3.879   9.359   0.433  2.0311  2.2582 -2.7576
  448SOL    HW211204   3.995   9.377   0.548 -0.2363  0.4941 -0.1278
  449SOL     OW11205   3.085   7.227   1.507  0.3456 -0.6205  0.4092
  449SOL    HW111206   2.989   7.223   1.477  0.4122  1.6777 -0.1740
  449SOL    HW211207   3.140   7.168   1.447 -0.4216 -0.5027 -0.4322
  450SOL     OW11208   2.606   1.301   0.153  0.7100 -0.4302  0.1004
  450SOL    HW111209   2.545   1.228   0.181  1.7284 -1.4580 -0.3226
  450SOL    HW211210   2.677   1.314   0.223  0.8915 -0.2549 -0.1150
  451SOL     OW11211   1.905   3.603   0.225 -0.1798  0.0701  0.0443
  451SOL    HW111212   1.906   3.681   0.162  1.5159 -1.3487 -1.7369
  451SOL    HW211213   1.898   3.518   0.173 -3.1457 -0.9790  2.0130
  452SOL     OW11214   2.824   9.046   0.203 -0.0544 -0.4704 -0.4198
  452SOL    HW111215   2.820   8.975   0.133 -0.3188 -1.6887  0.8221
  452SOL    HW211216   2.733   9.087   0.214  0.3568  0.9334 -1.9989
  453SOL     OW11217   1.619   4.948   2.261  0.1898 -0.6155  0.3989
  453SOL    HW111218   1.701   5.006   2.256 -0.1570 -0.1275  0.3754
  453SOL    HW211219   1.539   5.001   2.235  0.1259 -1.6415 -1.6194
  454SOL     OW11220   3.082   0.940   2.467 -0.6223  0.0228 -0.2928
  454SOL    HW111221   3.011   0.918   2.400  0.2374  0.5388 -1.3899
  454SOL    HW211222   3.123   1.028   2.443  1.6709 -1.1431 -0.7427
  455SOL     OW11223   2.890   6.474   0.107 -0.0773  0.2164  0.6272
  455SOL    HW111224   2.989   6.487   0.117  0.1956  0.2294 -1.8316
  455SOL    HW211225   2.842   6.555   0.139  0.7882  0.8032  0.4441
  456SOL     OW11226   2.468   4.592   1.444 -0.2140  0.5477 -0.3190
  456SOL    HW111227   2.396   4.544   1.393  0.9192  0.8874 -2.2736
  456SOL    HW211228   2.443   4.688   1.455 -0.5200  0.4453 -0.0978
  457SOL     OW11229   4.824   1.992   0.563  0.6037  0.4089 -0.0558
  457SOL    HW111230   4.758   1.962   0.495 -1.3727  1.4842  1.3349
  457SOL    HW211231   4.823   2.091   0.570  3.0563  0.5139 -0.6443
  458SOL     OW11232   2.901   1.799   2.197 -0.3282  0.1395 -0.2264
  458SOL    HW111233   2.893   1.855   2.114  0.9651 -0.6003 -0.8862
  458SOL    HW211234   2.813   1.760   2.220 -0.7605  0.5774 -1.1086
  459SOL     OW11235   3.171   0.910   0.504 -0.7884  0.1539  0.7692
  459SOL    HW111236   3.147   0.816   0.529  1.9020 -0.4352  1.1918
  459SOL    HW211237   3.242   0.909   0.435 -0.0637  1.8990  1.4664
  460SOL     OW11238   2.206   7.504   0.581 -0.7808  0.2854  0.3932
  460SOL    HW111239   2.256   7.426   0.620 -0.0934  1.6848  2.3948
  460SOL    HW211240   2.271   7.567   0.538 -1.0379  1.0709  1.1445
  461SOL     OW11241   3.436   7.368   0.609  0.2141 -0.3175 -0.1823
  461SOL    HW111242   3.465   7.287   0.661 -1.1631  0.5145  1.9665
  461SOL    HW211243   3.343   7.393   0.636  1.0999  2.7611  0.1934
  462SOL     OW11244   1.962   5.750   2.766  0.5337  0.3249 -0.3935
  462SOL    HW111245   1.873   5.742   2.722  0.2136 -0.1623  0.3418
  462SOL    HW211246   1.967   5.687   2.843  0.9404  1.4912  0.5490
  463SOL     OW11247   4.018   9.402   2.123 -0.4487 -0.2624 -0.3112
  463SOL    HW111248   4.069   9.481   2.154 -2.4030  0.4440  1.2538
  463SOL    HW211249   4.068   9.318   2.145 -0.2915  0.3799  1.8776
  464SOL     OW11250   9.741   2.296   0.509  0.1330  0.1146  0.1473
  464SOL    HW111251   9.823   2.274   0.562  0.5251  0.9593 -0.0947
  464SOL    HW211252   9.669   2.328   0.570  0.5967  1.1288  0.1845
  465SOL     OW11253   3.790   2.569   1.081  0.1295 -0.2609  0.3906
  465SOL    HW111254   3.817   2.483   1.126  1.1426 -0.2090 -0.1088
  465SOL    HW211255   3.768   2.551   0.985  1.1006  0.1575  0.0823
  466SOL     OW11256   1.945   7.253   0.649  0.4002 -0.2784  0.2306
  466SOL    HW111257   1.945   7.334   0.591  0.6882 -1.1162 -0.9528
  466SOL    HW211258   1.906   7.276   0.738 -1.7486  0.6056 -0.8841
  467SOL     OW11259   2.610   3.854   2.205  0.0366  0.1697 -0.2947
  467SOL    HW111260   2.668   3.893   2.277  0.7892 -0.0007 -0.8069
  467SOL    HW211261   2.526   3.908   2.197  0.3522  0.7247  0.1033
  468SOL     OW11262   1.819   1.627   2.091 -0.4145 -0.0834  0.2841
  468SOL    HW111263   1.799   1.646   2.187 -0.6249 -1.9811  0.6408
  468SOL    HW211264   1.898   1.566   2.085  0.2938  0.9140 -0.7987
  469SOL     OW11265   4.225   8.957   2.784  0.9967  0.2216  0.5107
  469SOL    HW111266   4.309   8.903   2.790  1.2940  0.2173 -2.7933
  469SOL    HW211267   4.246   9.054   2.800  1.6132  0.1915 -0.0853
  470SOL     OW11268   2.736   8.943   1.122 -0.2609 -0.0376  0.0923
  470SOL    HW111269   2.820   8.897   1.095 -0.4769 -1.1487  1.2951
  470SOL    HW211270   2.662   8.915   1.061 -0.2291 -0.7218  0.3669
  471SOL     OW11271   3.355   0.428   2.406  0.4155  0.8136 -0.3492
  471SOL    HW111272   3.403   0.465   2.326  0.4460  0.9671 -0.2594
  471SOL    HW211273   3.334   0.502   2.470 -1.8241  1.0967 -1.3527
  472SOL     OW11274   3.231   9.718   2.471  0.4634 -0.0079 -0.4207
  472SOL    HW111275   3.282   9.683   2.392 -0.7964 -0.4504 -1.0599
  472SOL    HW211276   3.180   9.643   2.514  0.5254  0.3824  0.3449
  473SOL     OW11277   4.123   2.858   2.680 -0.2683 -0.1178  0.3820
  473SOL    HW111278   4.203   2.828   2.733 -0.1654 -0.4206  0.0564
  473SOL    HW211279   4.048   2.793   2.695 -0.1162 -0.4209 -0.1452
  474SOL     OW11280   3.829   0.510   0.292  0.0534 -1.2364 -0.1192
  474SOL    HW111281   3.803   0.570   0.217  0.3922 -0.6992  0.1896
  474SOL    HW211282   3.759   0.440   0.304 -1.0338 -0.0894  0.3943
  475SOL     OW11283   3.700   4.106   1.135 -0.5145  0.1781 -0.6531
  475SOL    HW111284   3.655   4.018   1.151 -3.4124  1.1131 -3.2201
  475SOL    HW211285   3.672   4.170   1.206  0.0698 -0.3759  0.0982
  476SOL     OW11286   2.886   6.014   1.385 -0.0501 -0.2347 -0.5416
  476SOL    HW111287   2.885   6.110   1.359  0.7062  0.0061  0.2623
  476SOL    HW211288   2.834   6.002   1.470 -0.9406 -0.6968 -1.1454
  477SOL     OW11289   2.781   2.021   2.348 -0.5786 -0.3748  0.3501
  477SOL    HW111290   2.773   1.923   2.361  1.5156 -0.5560  0.3910
  477SOL    HW211291   2.805   2.041   2.253 -1.2808  0.1243  0.2680
  478SOL     OW11292   3.096   2.209   2.738  0.7206 -0.4770 -0.5150
  478SOL    HW111293   3.037   2.196   2.658  0.1469  2.0800 -0.5504
  478SOL    HW211294   3.105   2.307   2.757  1.2147 -1.0318  2.2931
  479SOL     OW11295   4.367   2.574   0.291  0.2030  0.3660 -0.5084
  479SOL    HW111296   4.439   2.577   0.361  0.1021  0.2837 -0.3995
  479SOL    HW211297   4.408   2.575   0.200  0.3493  0.1144 -0.4452
  480SOL     OW11298   2.656   8.526   0.621  0.6895 -0.0683  0.0379
  480SOL    HW111299   2.662   8.626   0.628 -1.1226  0.0741 -0.2544
  480SOL    HW211300   2.600   8.501   0.542 -0.3316 -1.2933  1.1331
  481SOL     OW11301   2.846   4.177   1.737 -0.3514 -0.1114 -0.0309
  481SOL    HW111302   2.764   4.215   1.781 -0.2942  1.7417 -1.4918
  481SOL    HW211303   2.892   4.248   1.685  3.2927 -0.6305  2.3229
  482SOL     OW11304   2.161   3.209   1.512 -0.8564  0.3913 -0.1274
  482SOL    HW111305   2.076   3.262   1.522 -1.1961  0.0885 -1.3357
  482SOL    HW211306   2.210   3.208   1.599 -2.6669 -0.3865  0.9094
  483SOL     OW11307   2.218   4.393   1.772 -0.1377 -0.1905  0.2844
  483SOL    HW111308   2.166   4.380   1.856 -2.8769  0.1879 -1.2978
  483SOL    HW211309   2.288   4.464   1.786 -0.7592  0.0732  2.1279
  484SOL     OW11310   2.517   2.711   0.240 -0.6486 -0.4613  0.0840
  484SOL    HW111311   2.484   2.741   0.329 -0.7683 -1.0236  0.2282
  484SOL    HW211312   2.439   2.679   0.185 -0.6644  0.4725 -0.4520
  485SOL     OW11313   1.800   5.147   2.299  0.8242 -0.6435  0.1842
  485SOL    HW111314   1.756   5.172   2.385  0.8302 -0.6001  0.1742
  485SOL    HW211315   1.893   5.115   2.318  0.2489 -2.2929  0.3916
  486SOL     OW11316   2.736   9.428   1.831 -0.3863 -0.2525 -0.1401
  486SOL    HW111317   2.685   9.342   1.830 -2.0103  0.7024 -0.3922
  486SOL    HW211318   2.820   9.417   1.777  0.4692 -2.2939  1.5516
  487SOL     OW11319   4.586   3.868   0.208  0.2789  0.3310  0.7524
  487SOL    HW111320   4.511   3.861   0.142 -0.3916 -0.8616  1.6208
  487SOL    HW211321   4.611   3.776   0.239  3.6803  0.4958 -1.2709
  488SOL     OW11322   1.976   4.392   0.826 -0.2637 -0.0417 -0.0085
  488SOL    HW111323   1.976   4.461   0.899 -0.0023 -0.6226  0.5504
  488SOL    HW211324   2.023   4.429   0.746 -0.3920  0.5423  0.1811
  489SOL     OW11325   3.634   5.692   0.223  0.3039 -0.9421  0.3635
  489SOL    HW111326   3.627   5.790   0.203 -1.0924 -0.9070  0.9613
  489SOL    HW211327   3.649   5.642   0.137  0.8104 -0.2291  0.0282
  490SOL     OW11328   2.405   0.978   2.072  0.1836 -0.1879 -0.2349
  490SOL    HW111329   2.433   1.049   2.008  3.0829  0.0220  1.2006
  490SOL    HW211330   2.355   1.020   2.149  1.2262  0.2161  0.2277
  491SOL     OW11331   1.938   1.554   1.172 -0.8298 -0.2818  0.2176
  491SOL    HW111332   1.850   1.586   1.136 -0.5599 -0.6716 -0.7855
  491SOL    HW211333   1.965   1.613   1.248 -0.8080  1.3270 -1.0039
  492SOL     OW11334   2.158   5.697   2.058  0.5588  0.0592  0.0877
  492SOL    HW111335   2.104   5.727   2.137 -0.8083  1.9504 -1.5100
  492SOL    HW211336   2.212   5.617   2.083 -2.8448 -1.8142  1.8378
  493SOL     OW11337   4.287   4.707   2.233 -0.1580 -0.5513 -0.1572
  493SOL    HW111338   4.220   4.656   2.287  0.7934 -0.5942  0.9825
  493SOL    HW211339   4.345   4.644   2.182 -1.8991 -0.4968 -2.3192
  494SOL     OW11340   2.293   9.406   1.416 -0.0489 -0.1410  0.5719
  494SOL    HW111341   2.230   9.336   1.381  0.2838 -0.5218  0.7249
  494SOL    HW211342   2.295   9.402   1.516 -0.1140  0.1632  0.5860
  495SOL     OW11343   3.404   2.992   2.826  0.4052 -0.4599  0.2006
  495SOL    HW111344   3.453   3.001   2.739  2.1591  1.2662  1.3122
  495SOL    HW211345   3.458   2.935   2.888  0.7903  1.0213  1.2611
  496SOL     OW11346   2.851   9.613   1.565 -0.4447  0.2956 -0.4597
  496SOL    HW111347   2.794   9.654   1.493 -0.1773  1.4750 -0.0090
  496SOL    HW211348   2.861   9.678   1.640  0.3895 -0.4244  0.0556
  497SOL     OW11349   3.768   4.517   1.531 -0.4506  0.3326  0.1900
  497SOL    HW111350   3.769   4.507   1.432  0.8771 -0.6033  0.2803
  497SOL    HW211351   3.826   4.593   1.558 -1.3470  1.0192  0.2233
  498SOL     OW11352   4.836   4.253   2.410  0.1552  0.0173  0.2972
  498SOL    HW111353   4.760   4.190   2.391  0.2888  0.2202 -0.9414
  498SOL    HW211354   4.844   4.266   2.509 -1.3705 -0.0825  0.4515
  499SOL     OW11355   2.069   2.063   1.417 -0.6327  0.2038 -0.2012
  499SOL    HW111356   2.036   2.015   1.499  0.6624  0.2239  0.3511
  499SOL    HW211357   2.054   2.006   1.337 -0.5156 -0.4763  0.2565
  500SOL     OW11358   4.448   4.715   1.372 -0.1792  0.4101  0.2463
  500SOL    HW111359   4.418   4.690   1.464  0.1009 -0.0534  0.2150
  500SOL    HW211360   4.441   4.814   1.360 -1.3493  0.3437  0.3643
  501SOL     OW11361   1.969   2.799   2.680 -0.6175 -0.4893 -0.1569
  501SOL    HW111362   1.957   2.743   2.599 -1.7298  0.4438 -0.6505
  501SOL    HW211363   1.984   2.894   2.653  0.1884 -0.3757  0.6929
  502SOL     OW11364   2.932   3.217   1.030  0.3727  0.2064 -0.3592
  502SOL    HW111365   3.019   3.244   0.989  1.9453 -2.4231  1.0758
  502SOL    HW211366   2.902   3.130   0.990 -0.4936  0.0186  0.6809
  503SOL     OW11367   3.356   1.300   1.337  0.0682  0.3413 -0.8494
  503SOL    HW111368   3.419   1.242   1.285  0.8850  0.9831 -0.5955
  503SOL    HW211369   3.286   1.243   1.380  1.5153 -0.6042  0.3276
  504SOL     OW11370   3.199   9.045   1.210 -0.2676  0.1139 -0.6557
  504SOL    HW111371   3.140   9.039   1.291  0.5537  0.3477 -0.0327
  504SOL    HW211372   3.145   9.026   1.128 -1.0674 -0.3151 -0.0363
  505SOL     OW11373   2.846   1.234   0.814  0.4070 -0.0553  0.7832
  505SOL    HW111374   2.883   1.181   0.738 -0.3106 -1.6925  1.5432
  505SOL    HW211375   2.822   1.172   0.889 -0.0558  1.4016  1.8649
  506SOL     OW11376   3.391   1.020   1.434  0.1903  0.0950  0.2370
  506SOL    HW111377   3.406   0.983   1.343  0.6268 -0.7739  0.6572
  506SOL    HW211378   3.295   1.047   1.444  0.3982  1.2675 -0.8628
  507SOL     OW11379   1.950   3.280   1.214  0.2571 -0.0336 -0.4340
  507SOL    HW111380   2.041   3.320   1.203  0.6272 -1.0153 -1.0470
  507SOL    HW211381   1.917   3.297   1.306  1.2257  0.0225 -0.0873
  508SOL     OW11382   2.083   1.531   0.483  0.1514 -0.1577 -0.3003
  508SOL    HW111383   2.023   1.504   0.558 -0.5747  2.0508 -0.0383
  508SOL    HW211384   2.167   1.477   0.486 -0.3973 -0.9548  1.3638
  509SOL     OW11385   3.769   4.457   2.838  0.1665  0.3324  0.3407
  509SOL    HW111386   3.757   4.556   2.829 -1.3726  0.0399 -1.0287
  509SOL    HW211387   3.730   4.426   2.924  0.1258  0.8345  0.5043
  510SOL     OW11388   2.674   6.600   1.711  0.3259 -0.2190 -0.0209
  510SOL    HW111389   2.627   6.675   1.757  0.9567  0.1561  0.0084
  510SOL    HW211390   2.650   6.600   1.614  0.6121  0.2418 -0.0903
  511SOL     OW11391   3.709   0.053   2.373  0.0284 -0.0787  0.1159
  511SOL    HW111392   3.749   0.145   2.368  2.7507 -1.1779  0.9773
  511SOL    HW211393   3.635   0.054   2.440  2.6531  0.6246  3.1602
  512SOL     OW11394   4.436   3.391   2.568  0.0849  0.6564  0.2151
  512SOL    HW111395   4.396   3.480   2.546 -0.2515  1.2374  2.9706
  512SOL    HW211396   4.368   3.335   2.615  0.1548 -1.2470 -1.8885
  513SOL     OW11397   2.742   3.538   0.347 -0.0585 -0.6212  0.0329
  513SOL    HW111398   2.821   3.478   0.339  1.7567  1.5973  0.7514
  513SOL    HW211399   2.743   3.605   0.273 -0.1353  0.6645  1.1655
  514SOL     OW11400   4.200   2.632   2.047  0.4249  0.8149 -0.3401
  514SOL    HW111401   4.188   2.534   2.063  2.0305  0.7730  0.7301
  514SOL    HW211402   4.167   2.655   1.955 -3.2332 -0.0770  0.6315
  515SOL     OW11403   1.858   4.984   0.993 -0.4481  0.2268 -0.0355
  515SOL    HW111404   1.836   4.918   1.065  1.8491 -2.2690 -1.5066
  515SOL    HW211405   1.787   4.980   0.922  1.1244 -2.8883 -1.5299
  516SOL     OW11406   3.945   3.556   0.556  0.4777  0.5524  0.0996
  516SOL    HW111407   4.036   3.590   0.580  0.2161  1.3767 -0.0597
  516SOL    HW211408   3.911   3.499   0.631  0.2311  2.0139  1.1319
  517SOL     OW11409   3.234   1.112   1.001 -0.0111 -0.1245  0.0527
  517SOL    HW111410   3.188   1.161   1.075 -3.7768 -0.3439 -2.0018
  517SOL    HW211411   3.194   1.139   0.913  3.3267 -0.9709 -1.8280
  518SOL     OW11412   4.439   4.501   2.081 -1.1036 -0.7384  0.3099
  518SOL    HW111413   4.491   4.421   2.053  0.2279  0.4881 -0.7853
  518SOL    HW211414   4.384   4.534   2.004 -0.0913  0.5885  0.1430
  519SOL     OW11415   2.641   7.047   2.050 -0.0438 -0.1149  0.3345
  519SOL    HW111416   2.710   7.088   2.110 -0.6392  1.3773  0.0405
  519SOL    HW211417   2.648   6.948   2.054  0.4169 -0.0352  2.2991
  520SOL     OW11418   3.006   4.443   2.037 -0.1300  0.4421 -0.2992
  520SOL    HW111419   2.955   4.484   2.112  0.6455 -1.3993  1.2685
  520SOL    HW211420   2.992   4.497   1.954 -2.9350  1.1203  0.5734
  521SOL     OW11421   3.217   3.251   2.016  0.4614 -0.2180 -0.3167
  521SOL    HW111422   3.183   3.173   1.963 -0.7758  0.3477 -0.3714
  521SOL    HW211423   3.144   3.319   2.025  2.0620  1.7273 -1.7831
  522SOL     OW11424   3.727   0.684   0.070  0.3345 -0.1534  0.4492
  522SOL    HW111425   3.753   0.779   0.085 -0.1935 -0.0251  0.5409
  522SOL    HW211426   3.652   0.679   0.004  0.8962 -0.5567 -0.1779
  523SOL     OW11427   3.085   1.249   0.296  0.1745  0.0178 -0.3552
  523SOL    HW111428   3.118   1.307   0.221 -1.5911  0.6824 -0.6350
  523SOL    HW211429   3.161   1.231   0.359  1.3961  0.4282 -1.6662
  524SOL     OW11430   1.867   4.721   2.126 -0.0087  0.2324  0.0228
  524SOL    HW111431   1.774   4.759   2.124 -0.5892 -1.1616 -0.2541
  524SOL    HW211432   1.880   4.671   2.212  0.9743  1.6044  0.6755
  525SOL     OW11433   1.923   4.129   0.225  0.3650 -0.0554 -0.0509
  525SOL    HW111434   1.987   4.164   0.157  0.0904 -0.2046 -0.3835
  525SOL    HW211435   1.912   4.197   0.298  1.6131 -0.4084  0.4878
  526SOL     OW11436   2.768   3.706   0.133  0.1907  0.6951 -0.1647
  526SOL    HW111437   2.732   3.651   0.057 -1.9355  0.9504  0.6298
  526SOL    HW211438   2.863   3.729   0.114  0.8061 -2.3177 -1.0359
  527SOL     OW11439   3.535   2.095   1.589 -0.6507  0.3790 -0.4312
  527SOL    HW111440   3.592   2.022   1.551 -2.2284 -1.6456  1.0109
  527SOL    HW211441   3.503   2.153   1.514  0.5710 -0.4252 -1.6136
  528SOL     OW11442   3.484   1.166   0.141 -0.0464  0.4035  0.1535
  528SOL    HW111443   3.471   1.260   0.109 -1.1417  0.1019 -0.2835
  528SOL    HW211444   3.457   1.159   0.237  2.0163  1.0088  0.8019
  529SOL     OW11445   1.868   1.620   1.629 -0.5101 -0.1191  0.0225
  529SOL    HW111446   1.904   1.541   1.679  0.9381 -0.5436 -1.6550
  529SOL    HW211447   1.813   1.676   1.691 -0.6689 -1.8600  1.5050
  530SOL     OW11448   4.353   2.231   2.450 -0.2191 -0.0469 -0.5372
  530SOL    HW111449   4.424   2.258   2.385  1.1309 -1.3596  0.3532
  530SOL    HW211450   4.273   2.198   2.400  0.7321 -0.8636 -1.5610
  531SOL     OW11451   2.949   0.899   0.315  0.3775  0.3115 -0.1197
  531SOL    HW111452   2.892   0.834   0.364 -0.9232  0.0412 -1.9427
  531SOL    HW211453   3.034   0.913   0.366 -0.7249 -0.2847  1.9504
  532SOL     OW11454   3.146   4.788   1.111  0.2730  0.1403  0.2400
  532SOL    HW111455   3.153   4.829   1.020 -0.5253  0.6398  0.3973
  532SOL    HW211456   3.082   4.711   1.108 -3.0851  2.7816  1.2560
  533SOL     OW11457   2.260   1.011   0.750  0.4703  0.0443  0.0073
  533SOL    HW111458   2.263   0.999   0.650 -3.1553 -0.8090 -0.0380
  533SOL    HW211459   2.317   0.942   0.793 -1.7363 -2.6853 -1.3020
  534SOL     OW11460   2.765   4.298   2.300 -0.3326 -1.0458 -0.0545
  534SOL    HW111461   2.734   4.249   2.382  2.4858 -2.5183  0.1745
  534SOL    HW211462   2.751   4.240   2.220 -2.7692  0.2617 -0.6025
  535SOL     OW11463   2.134   2.805   0.145 -0.4872  0.2764 -0.5615
  535SOL    HW111464   2.104   2.882   0.201  0.5535  0.3779 -0.1349
  535SOL    HW211465   2.061   2.737   0.140 -0.1377 -0.3144  1.9798
  536SOL     OW11466   4.508   2.915   0.201  0.3451  0.3014  0.1376
  536SOL    HW111467   4.595   2.939   0.244 -0.3853  1.6587  0.8816
  536SOL    HW211468   4.444   2.884   0.271  0.0148 -0.0863 -0.3305
  537SOL     OW11469   3.998   3.288   1.143  0.1202 -0.0710 -0.6734
  537SOL    HW111470   4.018   3.256   1.236 -1.1674  0.1602 -0.3056
  537SOL    HW211471   4.027   3.383   1.133  1.8353 -0.6154 -1.0528
  538SOL     OW11472   2.992   9.646   0.796  1.2032 -0.2591  0.8089
  538SOL    HW111473   3.082   9.616   0.765  0.8090 -0.6835  0.0703
  538SOL    HW211474   2.973   9.608   0.887  0.8017 -2.0707 -0.0105
  539SOL     OW11475   4.138   2.283   1.209  0.3816 -0.9172 -0.1838
  539SOL    HW111476   4.202   2.206   1.209 -0.6619 -1.8178  0.1876
  539SOL    HW211477   4.167   2.351   1.141  0.7812 -2.1135 -1.2464
  540SOL     OW11478   2.613   2.170   2.537 -0.3771 -0.0420 -0.1187
  540SOL    HW111479   2.661   2.214   2.613 -0.4661  0.0584 -0.1202
  540SOL    HW211480   2.676   2.160   2.459  0.3506 -2.1698  0.7185
  541SOL     OW11481   2.639   8.326   2.380 -0.1340  0.5234 -0.0673
  541SOL    HW111482   2.561   8.264   2.373 -0.2661  0.5300  1.1660
  541SOL    HW211483   2.681   8.337   2.290 -0.9731 -0.2299 -0.5642
  542SOL     OW11484   3.734   9.963   1.529 -0.3670 -0.6751  0.2560
  542SOL    HW111485   3.790   9.886   1.498  0.4954 -1.5267  3.7045
  542SOL    HW211486   3.794  10.040   1.553 -1.1254  0.5599 -1.6830
  543SOL     OW11487   2.558   2.114   1.875  0.0040 -0.3343  0.8572
  543SOL    HW111488   2.607   2.126   1.788 -1.9416  0.9784 -0.1189
  543SOL    HW211489   2.534   2.204   1.912 -0.7642 -0.9246  1.8220
  544SOL     OW11490   3.140   2.472   1.917 -0.2003 -0.0292  0.8672
  544SOL    HW111491   3.065   2.497   1.856  0.1693  0.0394  0.4314
  544SOL    HW211492   3.185   2.390   1.882 -0.1354 -0.1302  1.1831
  545SOL     OW11493   4.148   4.433   1.312 -0.5705  0.2301  0.5576
  545SOL    HW111494   4.235   4.430   1.263  0.5099  1.4340  2.4013
  545SOL    HW211495   4.112   4.340   1.319  0.6018 -0.2941 -0.1347
  546SOL     OW11496   3.330   9.709   1.438  0.1972 -0.4230 -0.2010
  546SOL    HW111497   3.383   9.713   1.354 -1.4658 -1.0114 -1.2915
  546SOL    HW211498   3.296   9.801   1.460 -0.3837 -0.4825 -0.8392
  547SOL     OW11499   3.721   2.189   1.239  0.0486 -0.2004  0.1626
  547SOL    HW111500   3.771   2.138   1.310  0.8581  2.4394  1.5517
  547SOL    HW211501   3.780   2.200   1.159 -0.5782 -2.4740 -0.6610
  548SOL     OW11502   4.113   2.102   1.739 -0.3380  0.5083 -0.4259
  548SOL    HW111503   4.080   2.132   1.829 -0.8680 -0.4827 -0.2799
  548SOL    HW211504   4.157   2.013   1.748  0.1256  0.6727 -1.0575
  549SOL     OW11505   4.253   5.092   1.953 -0.7957  0.2582 -0.3846
  549SOL    HW111506   4.279   5.188   1.949  0.8752 -0.1044  1.1088
  549SOL    HW211507   4.194   5.077   2.033  0.4181 -0.2640  0.4355
  550SOL     OW11508   2.479   3.098   0.822 -0.0754 -0.2934  0.2925
  550SOL    HW111509   2.554   3.086   0.887 -1.0509  0.7741  1.6366
  550SOL    HW211510   2.410   3.027   0.836 -0.2838 -0.0667  0.4200
  551SOL     OW11511   4.758   1.930   1.109  0.3072  0.3548  0.3251
  551SOL    HW111512   4.750   1.987   1.191 -0.1262  0.0293  0.5060
  551SOL    HW211513   4.668   1.913   1.070  0.6899  2.8988 -1.8749
  552SOL     OW11514   2.436   0.179   2.443  0.0061  0.1401  0.0624
  552SOL    HW111515   2.447   0.114   2.519 -3.9670 -0.3542  0.2743
  552SOL    HW211516   2.403   0.267   2.479  0.6068  0.7329 -0.8142
  553SOL     OW11517   3.395   7.838   0.699  0.8559 -0.3337  0.0390
  553SOL    HW111518   3.418   7.761   0.640  0.4195 -0.1097 -0.4325
  553SOL    HW211519   3.471   7.903   0.701  0.6707 -0.0882 -0.7029
  554SOL     OW11520   2.626   3.282   1.591 -0.4199  0.1673  0.3147
  554SOL    HW111521   2.552   3.214   1.586 -0.2186 -0.0847  0.7366
  554SOL    HW211522   2.714   3.235   1.594 -0.2647  0.4559  0.3043
  555SOL     OW11523   3.680   4.016   1.908 -0.3709 -0.7907 -0.4279
  555SOL    HW111524   3.658   4.100   1.858  1.1044 -0.7205 -0.9965
  555SOL    HW211525   3.639   3.938   1.862  1.0703 -0.7426 -1.8511
  556SOL     OW11526   3.875   0.057   1.262  0.4649 -0.5777 -0.6091
  556SOL    HW111527   3.810   0.130   1.279  0.4261 -0.5413 -0.9240
  556SOL    HW211528   3.925   0.075   1.177  0.5386 -0.8547 -0.6256
  557SOL     OW11529   3.116   3.981   2.786  0.1862  0.1001  0.2861
  557SOL    HW111530   3.057   3.909   2.823 -1.2272  0.0679 -2.0091
  557SOL    HW211531   3.124   4.055   2.853 -3.9489  0.9461 -0.0539
  558SOL     OW11532   4.380   0.234   0.563 -0.8121 -0.0321 -0.1236
  558SOL    HW111533   4.465   0.197   0.528  0.4886  2.5488  0.1865
  558SOL    HW211534   4.350   0.180   0.642 -0.6444 -2.2491 -1.5337
  559SOL     OW11535   2.674   0.051   0.119 -0.1220 -0.2804 -0.1468
  559SOL    HW111536   2.650   0.062   0.216 -1.8613  0.0403 -0.5995
  559SOL    HW211537   2.772   0.070   0.107 -0.1209  0.8008  1.3699
  560SOL     OW11538   2.749   0.803   1.812  0.0650 -0.7283 -0.1575
  560SOL    HW111539   2.651   0.783   1.809  0.3346 -1.9937 -0.8573
  560SOL    HW211540   2.787   0.797   1.720  0.5882  0.9162 -0.0633
  561SOL     OW11541   3.050   5.999   0.577  0.1778  0.3544  0.2422
  561SOL    HW111542   3.002   5.934   0.518  0.8363  0.9820 -1.0063
  561SOL    HW211543   3.047   5.967   0.672 -1.6700 -0.2143  0.0086
  562SOL     OW11544   4.671   1.585   2.786 -0.0218 -0.6568 -0.1149
  562SOL    HW111545   4.630   1.622   2.703  1.2432 -1.8956 -1.3363
  562SOL    HW211546   4.623   1.501   2.811 -0.0745 -0.5580  0.1123
  563SOL     OW11547   1.773   2.317   2.412 -0.0332  0.2599 -0.1703
  563SOL    HW111548   1.762   2.328   2.511  0.7834 -1.7545  0.1697
  563SOL    HW211549   1.808   2.226   2.393  1.9115  1.3943 -2.2001
  564SOL     OW11550   2.074   3.124   1.875 -0.3772 -0.3819  0.0569
  564SOL    HW111551   2.005   3.066   1.832  0.8490 -1.4890 -0.4589
  564SOL    HW211552   2.114   3.076   1.953 -1.3754  0.9337  1.3781
  565SOL     OW11553   2.983   3.903   0.932  0.1742 -0.4825 -0.2152
  565SOL    HW111554   2.940   3.858   1.011 -0.7390  0.2343 -0.3012
  565SOL    HW211555   2.953   3.858   0.848 -1.4797  0.8797 -0.3609
  566SOL     OW11556   3.478   3.356   1.995  0.0359  0.2001 -0.6312
  566SOL    HW111557   3.395   3.306   2.017 -0.3716  1.4256  0.6999
  566SOL    HW211558   3.550   3.331   2.059  0.0815  0.6676 -0.4989
  567SOL     OW11559   2.941   2.169   0.711  0.9768 -0.4646 -0.2577
  567SOL    HW111560   3.029   2.158   0.665  0.3238 -1.1155 -1.3669
  567SOL    HW211561   2.915   2.083   0.755  0.7653 -0.3616 -0.1786
  568SOL     OW11562   3.027   7.026   0.447  0.4845  0.3270  0.0583
  568SOL    HW111563   3.100   7.086   0.479  0.4694  0.4832 -0.2051
  568SOL    HW211564   3.066   6.938   0.421  0.8330  1.0275 -1.8321
  569SOL     OW11565   2.737   7.946   0.623  0.1068 -0.3810  0.1452
  569SOL    HW111566   2.820   7.898   0.648 -0.3211 -0.7880  0.7993
  569SOL    HW211567   2.661   7.881   0.618 -0.3455  0.1203  0.4153
  570SOL     OW11568   2.601   0.815   0.201 -0.2518 -0.3501  0.3487
  570SOL    HW111569   2.582   0.778   0.292 -0.5271 -2.2250 -0.4392
  570SOL    HW211570   2.556   0.758   0.132  0.6041  0.5861 -1.0166
  571SOL     OW11571   4.746   3.430   0.922 -0.0658  0.4246 -0.0535
  571SOL    HW111572   4.703   3.426   0.832 -0.5422 -1.4775  0.2287
  571SOL    HW211573   4.775   3.338   0.949 -3.3125  0.2535  3.3240
  572SOL     OW11574   3.077   0.175   0.599  0.0669  0.5183 -0.0315
  572SOL    HW111575   3.024   0.147   0.519  2.1778  1.0592 -1.6490
  572SOL    HW211576   3.040   0.260   0.636 -0.0879  0.9989 -1.2725
  573SOL     OW11577   4.405   8.724   0.902  0.1175 -0.2702  0.2839
  573SOL    HW111578   4.309   8.750   0.891 -0.0762 -1.5165 -1.1840
  573SOL    HW211579   4.446   8.780   0.974 -0.7652  2.7257 -1.4556
  574SOL     OW11580   2.831   6.218   0.218 -0.1128  0.1424  0.3857
  574SOL    HW111581   2.846   6.297   0.159  1.1396 -0.2297  0.1890
  574SOL    HW211582   2.818   6.136   0.162 -0.0887 -0.0149  0.6087
  575SOL     OW11583   2.910   6.759   0.088 -0.5584  0.5486  0.2597
  575SOL    HW111584   2.896   6.854   0.060 -0.7494  0.6395  0.6463
  575SOL    HW211585   3.005   6.732   0.072  0.3365  1.8390  3.1454
  576SOL     OW11586   3.134   2.483   1.542  0.4274  0.1051 -0.1358
  576SOL    HW111587   3.053   2.455   1.593  1.3033 -0.0405  1.1807
  576SOL    HW211588   3.182   2.402   1.508  2.3587 -0.0111  2.7404
  577SOL     OW11589   2.943   7.778   0.752  0.1821  0.1246 -0.2488
  577SOL    HW111590   2.978   7.755   0.843  1.4230  1.1253 -0.4684
  577SOL    HW211591   2.904   7.696   0.710  0.3969 -0.5395  0.8312
  578SOL     OW11592   2.767   1.949   1.263  0.1035 -0.0898  0.1704
  578SOL    HW111593   2.849   1.902   1.230 -1.1460 -0.5986 -2.3379
  578SOL    HW211594   2.698   1.881   1.287  0.7546  0.3021  3.2931
  579SOL     OW11595   3.633   4.282   1.332  0.5790 -0.3185 -0.0046
  579SOL    HW111596   3.713   4.329   1.296 -0.5046  1.1596 -0.5073
  579SOL    HW211597   3.580   4.344   1.390 -1.2768 -0.6539 -1.2807
  580SOL     OW11598   2.734   5.739   1.662 -0.2072 -0.4942  0.2040
  580SOL    HW111599   2.650   5.781   1.629  0.8856  1.3823 -0.2587
  580SOL    HW211600   2.785   5.805   1.717  0.3274 -2.0399  1.5999
  581SOL     OW11601   4.871   3.160   0.715 -0.1684  0.3542 -0.1847
  581SOL    HW111602   4.782   3.206   0.717 -1.6077 -2.3972  1.2838
  581SOL    HW211603   4.866   3.081   0.654  1.6184  0.8081 -0.9484
  582SOL     OW11604   2.747   8.825   1.406 -0.0169  0.1656 -0.3427
  582SOL    HW111605   2.840   8.791   1.395 -0.1794  0.3255 -2.2980
  582SOL    HW211606   2.735   8.909   1.354 -1.0231  0.5811  0.5474
  583SOL     OW11607   3.851   9.612   0.364 -0.5891 -0.0996 -1.3266
  583SOL    HW111608   3.849   9.704   0.403 -1.2754 -0.0952 -1.3500
  583SOL    HW211609   3.848   9.545   0.438 -2.1910 -0.0906 -1.3554
  584SOL     OW11610   2.675   3.386   1.145 -0.1341 -0.3750 -0.2188
  584SOL    HW111611   2.753   3.372   1.085 -0.6637 -0.6697 -0.8466
  584SOL    HW211612   2.663   3.484   1.161 -0.0817 -0.2826 -0.7246
  585SOL     OW11613   2.512   7.992   2.727 -0.1573  0.3002  0.1446
  585SOL    HW111614   2.575   7.949   2.662 -1.4152 -1.9021  0.3365
  585SOL    HW211615   2.420   7.953   2.715 -0.6356  0.6283  2.5362
  586SOL     OW11616   4.305   3.454   0.491 -0.5364  0.0197 -0.2488
  586SOL    HW111617   4.236   3.453   0.562 -1.5121 -0.8194 -1.1988
  586SOL    HW211618   4.366   3.533   0.504 -2.6015  1.6514 -0.2987
  587SOL     OW11619   3.157   8.923   1.979 -0.2061 -0.1949  0.2090
  587SOL    HW111620   3.210   8.908   1.895 -0.7291  0.0911 -0.1775
  587SOL    HW211621   3.074   8.975   1.957  0.1603  0.7639  1.0715
  588SOL     OW11622   3.926   8.846   2.395 -0.4319 -0.2112  0.1677
  588SOL    HW111623   3.931   8.796   2.309  1.1635 -0.3860  0.3507
  588SOL    HW211624   3.995   8.810   2.458  0.9848  2.4602  0.1937
  589SOL     OW11625   5.180   4.314   1.223  0.3457  0.4555 -0.4708
  589SOL    HW111626   5.121   4.255   1.168  1.0265  0.5509 -1.3154
  589SOL    HW211627   5.214   4.389   1.167 -1.3631  2.2772  0.8701
  590SOL     OW11628   3.997   4.407   2.434 -0.3990 -0.8711 -0.1034
  590SOL    HW111629   3.946   4.375   2.514 -0.3275  0.3295  0.4407
  590SOL    HW211630   3.950   4.486   2.395 -0.5457 -1.5921 -1.3818
  591SOL     OW11631   2.097   2.199   2.288 -0.1381 -0.4492 -0.1577
  591SOL    HW111632   2.170   2.135   2.262 -0.3029 -0.6335 -0.1683
  591SOL    HW211633   2.060   2.173   2.377 -0.3208 -0.4713 -0.2381
  592SOL     OW11634   5.124   3.588   1.375  0.2208  0.3728  0.3158
  592SOL    HW111635   5.083   3.515   1.321 -2.2443  1.6353  0.4019
  592SOL    HW211636   5.130   3.672   1.320 -1.1708  1.3355  1.5787
  593SOL     OW11637   2.751   9.439   0.408  0.3901 -0.3521 -0.5828
  593SOL    HW111638   2.734   9.524   0.359 -0.0378 -0.5586 -0.7874
  593SOL    HW211639   2.724   9.450   0.504 -1.2567 -0.7979 -0.9863
  594SOL     OW11640   2.810   8.357   2.573 -0.6139  0.4121  0.5153
  594SOL    HW111641   2.752   8.364   2.655 -2.4376  0.9370 -0.7988
  594SOL    HW211642   2.753   8.365   2.491  1.3901  1.3944 -0.8043
  595SOL     OW11643   2.887   6.187   2.151 -1.0807 -0.2229  0.5165
  595SOL    HW111644   2.914   6.096   2.119  1.0990 -0.7890  3.6862
  595SOL    HW211645   2.924   6.256   2.090 -0.4170 -1.3774 -0.4136
  596SOL     OW11646   2.584   5.385   0.140  1.0954  0.9361 -0.0090
  596SOL    HW111647   2.523   5.464   0.145  0.1254  0.1991  0.0253
  596SOL    HW211648   2.532   5.302   0.164  1.6941  0.0895 -1.6040
  597SOL     OW11649   2.802   5.312   0.924 -0.2847 -0.3197 -0.4092
  597SOL    HW111650   2.791   5.406   0.957  0.6659 -0.7368  1.1825
  597SOL    HW211651   2.899   5.292   0.914 -0.5147 -0.7743 -1.8839
  598SOL     OW11652   2.122   4.413   2.179 -0.2858 -0.4398  0.1663
  598SOL    HW111653   2.061   4.438   2.104 -1.1950  2.0839  1.7044
  598SOL    HW211654   2.084   4.334   2.227 -0.9725 -0.5114 -0.4807
  599SOL     OW11655   2.103   5.659   1.794 -0.2660 -0.5507 -0.1379
  599SOL    HW111656   2.096   5.560   1.784  2.9561 -0.9856  1.4593
  599SOL    HW211657   2.100   5.683   1.891  3.8146  0.4341 -0.1853
  600SOL     OW11658   2.748   5.358   2.462 -0.4552  0.1221 -0.5029
  600SOL    HW111659   2.679   5.406   2.516 -0.6429 -1.2497  0.5077
  600SOL    HW211660   2.704   5.282   2.413  0.2067 -0.3056 -0.4382
  601SOL     OW11661   4.571   2.909   2.441  0.2936 -0.0932  0.5728
  601SOL    HW111662   4.596   2.814   2.421 -1.1235 -0.0759 -1.2918
  601SOL    HW211663   4.509   2.910   2.520 -1.9121 -0.9696 -1.1044
  602SOL     OW11664   3.350   0.981   0.706  0.1525 -0.2497  0.0125
  602SOL    HW111665   3.285   1.000   0.632  0.2766  1.7250  0.4031
  602SOL    HW211666   3.441   1.011   0.679  0.5196 -1.0833  0.3086
  603SOL     OW11667   2.545   3.304   1.892 -0.4340  0.1567 -0.2795
  603SOL    HW111668   2.617   3.270   1.953 -1.3988 -0.6689  0.4258
  603SOL    HW211669   2.584   3.326   1.803  0.5963 -0.7586 -0.0629
  604SOL     OW11670   3.710   0.585   2.520  0.1424 -0.3853 -0.4373
  604SOL    HW111671   3.635   0.598   2.585  0.9729 -0.0537  0.4501
  604SOL    HW211672   3.751   0.673   2.498 -1.0672 -0.2915 -2.5618
  605SOL     OW11673   2.537   6.865   1.804  0.2581  0.0974  0.1783
  605SOL    HW111674   2.482   6.920   1.742  0.4118  2.0707  1.7683
  605SOL    HW211675   2.481   6.836   1.882  1.5317  2.4571  2.0133
  606SOL     OW11676   4.478   3.060   2.809 -0.4752 -0.1289 -0.3729
  606SOL    HW111677   4.508   3.036   2.901 -0.6047  0.0238 -0.2900
  606SOL    HW211678   4.516   3.149   2.784 -1.5047  0.4450  0.0495
  607SOL     OW11679   2.990   6.832   1.584  0.0853  0.3244  0.4740
  607SOL    HW111680   2.892   6.849   1.575  0.3472  1.9966  0.7038
  607SOL    HW211681   3.035   6.853   1.498  0.3655  0.3901  0.6380
  608SOL     OW11682   4.503   1.680   1.394  0.5324 -0.0575 -0.6773
  608SOL    HW111683   4.591   1.635   1.381  1.0445  0.5696  0.5266
  608SOL    HW211684   4.441   1.654   1.320  2.2084  0.7447 -2.3919
  609SOL     OW11685   3.102   1.600   2.173 -0.2588  0.1516 -0.0111
  609SOL    HW111686   3.077   1.503   2.175  0.7753 -0.1105  1.1587
  609SOL    HW211687   3.021   1.655   2.155 -1.0608 -0.8808  0.3915
  610SOL     OW11688   3.624   9.076   0.328  0.3453  0.0898  0.1386
  610SOL    HW111689   3.535   9.096   0.288  0.7783  0.8618 -0.4484
  610SOL    HW211690   3.684   9.156   0.320  1.7376 -1.0539 -1.2722
  611SOL     OW11691   3.543   4.424   2.602 -0.8191  0.3575  0.0257
  611SOL    HW111692   3.581   4.467   2.520 -0.0180  1.6444  1.0512
  611SOL    HW211693   3.617   4.390   2.659 -1.2707  1.5430  1.3332
  612SOL     OW11694   4.532   3.953   1.319  0.3081  0.0569  0.3070
  612SOL    HW111695   4.434   3.938   1.333  0.2254  1.1924  0.9788
  612SOL    HW211696   4.552   4.051   1.320  1.6061 -0.1915  1.3534
  613SOL     OW11697   2.843   4.984   1.177 -0.8531 -0.3231 -0.1736
  613SOL    HW111698   2.886   5.018   1.094 -1.4062 -1.7312 -1.0643
  613SOL    HW211699   2.804   4.893   1.159  1.7776 -2.0612  2.4718
  614SOL     OW11700   1.696   3.778   1.681 -0.4126 -0.5345  0.4187
  614SOL    HW111701   1.680   3.783   1.582 -0.2397 -1.2245  0.3523
  614SOL    HW211702   1.686   3.869   1.721  1.1359  0.0528 -0.4892
  615SOL     OW11703   4.687   3.916   1.091  1.0331 -0.0460  0.5418
  615SOL    HW111704   4.631   3.899   1.010  0.9114  3.5814 -0.2060
  615SOL    HW211705   4.631   3.907   1.174  0.3256 -0.3631  0.0260
  616SOL     OW11706   2.947   1.689   2.745 -0.0908 -0.0735 -0.0882
  616SOL    HW111707   3.042   1.671   2.771  0.0290  0.4007 -0.1930
  616SOL    HW211708   2.944   1.762   2.677 -0.6120  0.8551  0.9043
  617SOL     OW11709   2.907   0.852   1.584 -0.3336  0.0671 -0.1529
  617SOL    HW111710   2.987   0.799   1.555  0.1877  0.3352  0.7800
  617SOL    HW211711   2.934   0.946   1.605 -0.8791  0.1469  0.2129
  618SOL     OW11712   3.162   5.560   0.792  0.0708 -0.3434 -0.6603
  618SOL    HW111713   3.223   5.486   0.763  0.1381 -0.3051 -0.6173
  618SOL    HW211714   3.212   5.646   0.794  0.1175 -0.3761 -0.2539
  619SOL     OW11715   1.947   3.334   1.999 -0.2095 -0.5306  0.2282
  619SOL    HW111716   1.976   3.257   1.942 -1.9545 -1.7540  0.9638
  619SOL    HW211717   1.974   3.318   2.094 -1.0805 -0.5229  0.4835
  620SOL     OW11718   3.747   0.400   0.758 -0.1381 -0.3326  0.4886
  620SOL    HW111719   3.761   0.417   0.661 -1.4640  2.9651  0.8264
  620SOL    HW211720   3.835   0.376   0.801  0.7161 -0.3079 -1.2017
  621SOL     OW11721   2.299   3.036   0.996 -0.1612  0.1278  0.2409
  621SOL    HW111722   2.339   2.945   0.989 -1.0947 -0.3435  0.9598
  621SOL    HW211723   2.356   3.093   1.055  0.7731  0.2168 -0.7277
  622SOL     OW11724   2.930   8.618   0.162 -0.2638  0.0614 -0.0168
  622SOL    HW111725   2.894   8.640   0.072 -1.2749  0.8371  0.5603
  622SOL    HW211726   2.857   8.581   0.220  0.2360  0.1030  0.6544
  623SOL     OW11727   2.249   2.751   2.452 -0.4730  0.0805  0.3196
  623SOL    HW111728   2.172   2.710   2.404 -1.2030  0.5794  1.0488
  623SOL    HW211729   2.281   2.690   2.524 -0.1732 -0.1334  0.0064
  624SOL     OW11730   3.927   2.098   1.396 -0.0511  0.0313  0.5129
  624SOL    HW111731   3.908   2.043   1.477  0.3395  0.8004  1.1343
  624SOL    HW211732   3.994   2.050   1.339 -0.9168 -0.8743  0.2420
  625SOL     OW11733   3.243   2.919   2.321  0.7642  0.3090 -0.0583
  625SOL    HW111734   3.339   2.933   2.297  0.5228  1.7363 -0.2246
  625SOL    HW211735   3.231   2.826   2.357  2.2182  0.1545  0.0593
  626SOL     OW11736   1.883   2.238   0.559  0.0915  0.0384 -0.0282
  626SOL    HW111737   1.872   2.252   0.658 -0.7049  0.1941 -0.1389
  626SOL    HW211738   1.980   2.250   0.535  0.4615 -0.9529  0.8829
  627SOL     OW11739   3.927   0.955   1.094  0.2551  0.2266  0.3147
  627SOL    HW111740   3.893   0.973   1.186 -2.8399 -1.4710 -0.3962
  627SOL    HW211741   3.850   0.929   1.035  2.6309 -2.2353 -1.8439
  628SOL     OW11742   4.421   4.002   0.629  0.4859  0.3412  0.3588
  628SOL    HW111743   4.391   4.045   0.544  0.4833 -1.6660 -0.6834
  628SOL    HW211744   4.509   3.955   0.613  0.7317  0.3718  1.5885
  629SOL     OW11745   4.514   1.981   0.986 -0.5214  0.4278  0.3543
  629SOL    HW111746   4.481   2.010   0.896 -0.6079  1.9548  0.8613
  629SOL    HW211747   4.460   2.026   1.057  0.9076  0.8743  1.1765
  630SOL     OW11748   4.562   4.279   0.777  0.0296  0.0928  0.7120
  630SOL    HW111749   4.494   4.352   0.769  0.5562  0.7958  2.3660
  630SOL    HW211750   4.529   4.197   0.730 -0.6398  1.3417 -1.0136
  631SOL     OW11751   1.761   3.853   1.407 -0.0939  0.4449 -0.0424
  631SOL    HW111752   1.800   3.782   1.348 -0.7776 -0.8557  1.0355
  631SOL    HW211753   1.835   3.911   1.442  0.4570  0.3675 -1.0438
  632SOL     OW11754   2.851   0.854   1.309  0.0118  0.4539  0.0002
  632SOL    HW111755   2.949   0.865   1.293 -0.0887  0.1617 -0.8253
  632SOL    HW211756   2.837   0.815   1.401  0.7117 -0.3972 -0.2390
  633SOL     OW11757   2.258   8.270   1.409 -0.2958 -0.4537  0.2630
  633SOL    HW111758   2.273   8.328   1.489 -1.7933 -0.2956  0.4485
  633SOL    HW211759   2.245   8.327   1.328  1.5278 -0.6197 -0.1651
  634SOL     OW11760   3.777   2.367   2.545  0.3705  0.0013  0.1040
  634SOL    HW111761   3.876   2.381   2.538  0.4460 -1.0893 -1.2687
  634SOL    HW211762   3.730   2.454   2.529  1.0938  0.4215  0.2466
  635SOL     OW11763   3.630   4.241   1.733  0.5167 -0.0111  0.0942
  635SOL    HW111764   3.568   4.319   1.739  0.6535  0.2251 -1.5008
  635SOL    HW211765   3.720   4.266   1.767  1.1124  1.1217 -2.2602
  636SOL     OW11766   4.659   3.314   1.710  0.2019 -0.1766  0.2253
  636SOL    HW111767   4.703   3.314   1.800  1.7031 -0.2290 -0.4950
  636SOL    HW211768   4.593   3.388   1.705 -0.6881 -0.8366  1.7514
  637SOL     OW11769   4.076   2.907   0.698 -0.2931  0.1009  0.3508
  637SOL    HW111770   3.994   2.851   0.713  0.6241 -0.9887  1.3885
  637SOL    HW211771   4.110   2.940   0.786  1.8913 -1.6471  0.2006
  638SOL     OW11772   3.584   4.050   1.484 -0.1444  0.0242  0.3939
  638SOL    HW111773   3.597   4.063   1.583 -2.7091  0.7833  0.6812
  638SOL    HW211774   3.597   4.137   1.437  0.9239 -0.3048  0.0693
  639SOL     OW11775   2.087   8.955   2.168  0.3197  0.3068 -0.2724
  639SOL    HW111776   2.164   9.006   2.206  0.0572 -0.2126  0.9609
  639SOL    HW211777   2.008   9.016   2.158  0.0522  0.1841  1.0540
  640SOL     OW11778   4.348   4.324   2.593 -0.5993 -0.1940 -0.2113
  640SOL    HW111779   4.337   4.228   2.621  0.8618 -0.4068 -0.3448
  640SOL    HW211780   4.414   4.330   2.519  1.1558  1.1699  1.4085
  641SOL     OW11781   2.499   0.586   1.372 -0.0464 -0.4442  0.0088
  641SOL    HW111782   2.547   0.665   1.333 -2.6729  1.0252 -0.3446
  641SOL    HW211783   2.485   0.517   1.302  3.8058 -2.0671  0.7170
  642SOL     OW11784   4.409   1.011   1.139  0.3193 -0.0969 -0.2338
  642SOL    HW111785   4.437   0.931   1.087 -0.6996  0.1028 -1.1094
  642SOL    HW211786   4.337   1.059   1.089 -0.6240  0.1396  1.3421
  643SOL     OW11787   3.167   8.097   2.079 -0.3103  0.0356 -0.1182
  643SOL    HW111788   3.187   8.134   2.170  2.4396  0.0081 -0.6468
  643SOL    HW211789   3.166   7.997   2.084 -1.5895  0.0552  0.1401
  644SOL     OW11790   4.730   2.990   0.348  0.4545  0.6551 -0.2547
  644SOL    HW111791   4.792   3.059   0.309  1.1281  0.3823  0.3094
  644SOL    HW211792   4.767   2.959   0.436 -1.4051  1.7961  0.9739
  645SOL     OW11793   1.779   2.567   2.312 -0.1967  0.4889  0.0979
  645SOL    HW111794   1.783   2.467   2.313  0.6181  0.4743 -2.1669
  645SOL    HW211795   1.685   2.596   2.294 -0.1087  0.1013 -0.9967
  646SOL     OW11796   4.148   3.718   2.240 -0.4261  0.5196  0.5070
  646SOL    HW111797   4.157   3.661   2.321 -0.5864  0.3591  0.4111
  646SOL    HW211798   4.077   3.681   2.180  0.9066 -0.3781 -0.5510
  647SOL     OW11799   3.581   0.352   1.696  0.3670  0.4928  0.5272
  647SOL    HW111800   3.596   0.271   1.752 -0.8092 -0.3143 -0.2829
  647SOL    HW211801   3.579   0.325   1.599  0.2736  1.5351  0.2342
  648SOL     OW11802   3.350   1.559   2.617 -0.0299  0.0905 -0.4080
  648SOL    HW111803   3.351   1.463   2.647  0.0845  0.8718  2.1918
  648SOL    HW211804   3.276   1.573   2.552 -0.6101 -1.5859 -0.1318
  649SOL     OW11805   3.711   5.071   2.332  0.2566  0.8310 -0.2100
  649SOL    HW111806   3.730   5.114   2.243  1.6427  2.5148  0.8673
  649SOL    HW211807   3.797   5.051   2.378 -0.4561  0.0716  0.8080
  650SOL     OW11808   3.451   2.139   1.224  0.2023  0.1870  0.1377
  650SOL    HW111809   3.430   2.115   1.129 -2.0760 -2.0489  1.1397
  650SOL    HW211810   3.549   2.154   1.234  0.1707  3.0840 -3.0842
  651SOL     OW11811   2.188   5.343   0.596  0.2160 -0.0309 -0.2738
  651SOL    HW111812   2.143   5.424   0.632  1.1942  0.7469 -0.7582
  651SOL    HW211813   2.248   5.304   0.666 -0.2426 -0.3257 -0.0458
  652SOL     OW11814   4.656   1.443   1.342  0.1298 -0.1625 -0.1361
  652SOL    HW111815   4.589   1.375   1.310 -0.7977  0.1858  1.0073
  652SOL    HW211816   4.671   1.431   1.440  0.9108  0.4851 -0.1714
  653SOL     OW11817   3.272   3.590   0.929  0.3114  0.1246 -0.9666
  653SOL    HW111818   3.352   3.534   0.948  0.4742  0.2696 -1.2269
  653SOL    HW211819   3.258   3.654   1.005  0.1436 -0.2436 -0.6854
  654SOL     OW11820   4.155   0.140   0.367  0.2200 -0.1844 -0.2021
  654SOL    HW111821   4.247   0.169   0.393  0.3592  0.0520 -0.9506
  654SOL    HW211822   4.111   0.212   0.315 -0.1086 -0.5972 -0.4977
  655SOL     OW11823   4.604   4.231   1.179  0.5804 -0.3702  1.1006
  655SOL    HW111824   4.568   4.176   1.104  0.3669  0.3435  0.6701
  655SOL    HW211825   4.694   4.197   1.207  0.9669 -0.2082  0.0530
  656SOL     OW11826   4.671   2.674   2.583  0.0619  0.3699  0.0432
  656SOL    HW111827   4.643   2.665   2.679  1.6249 -0.1185  0.4612
  656SOL    HW211828   4.739   2.747   2.575 -0.9254  1.1983 -0.8862
  657SOL     OW11829   2.506   7.853   1.348  0.1151 -1.2067 -0.2231
  657SOL    HW111830   2.431   7.919   1.343  0.7082 -0.5840 -1.0615
  657SOL    HW211831   2.485   7.784   1.417 -0.3601  0.0514  0.8947
  658SOL     OW11832   2.705   3.338   2.161 -0.0578 -0.2155  0.1667
  658SOL    HW111833   2.667   3.421   2.202 -0.4095  0.4419 -1.4765
  658SOL    HW211834   2.721   3.270   2.233 -3.1634 -0.0704  1.0462
  659SOL     OW11835   3.227   5.615   2.428 -0.0592  0.4590  0.2922
  659SOL    HW111836   3.239   5.557   2.509  1.0871 -0.1844 -0.3314
  659SOL    HW211837   3.291   5.586   2.356 -1.0335  1.0476 -0.8309
  660SOL     OW11838   3.749   2.845   0.262 -0.0460  0.2001  0.1209
  660SOL    HW111839   3.686   2.771   0.285  0.4884 -0.4049 -0.3790
  660SOL    HW211840   3.763   2.847   0.163  0.0539  0.8815  0.1470
  661SOL     OW11841   3.630   3.764   1.245  0.1517 -0.3517 -0.2171
  661SOL    HW111842   3.600   3.787   1.338  0.8920 -1.7216  0.3822
  661SOL    HW211843   3.584   3.824   1.179 -0.5548  0.4848  1.0135
  662SOL     OW11844   2.562   4.892   1.755 -0.2313 -0.9990  0.1712
  662SOL    HW111845   2.533   4.854   1.843 -2.3254 -0.0767 -0.1035
  662SOL    HW211846   2.537   4.988   1.749 -1.8540 -1.5173 -2.1739
  663SOL     OW11847   2.931   3.349   2.011 -0.4486  0.3675 -0.2936
  663SOL    HW111848   2.956   3.431   1.960  0.9383  0.2628  0.1984
  663SOL    HW211849   2.838   3.359   2.047 -0.4334  1.5552 -0.5566
  664SOL     OW11850   4.071   4.164   2.232  0.2480 -0.0290 -0.0581
  664SOL    HW111851   3.972   4.147   2.231  0.2656 -0.1725  0.7887
  664SOL    HW211852   4.089   4.253   2.274  0.5255 -0.2964  0.3832
  665SOL     OW11853   2.614   6.732   0.611 -0.2542  0.1142 -0.4236
  665SOL    HW111854   2.699   6.782   0.596  0.2755 -0.1288  1.6532
  665SOL    HW211855   2.544   6.766   0.547  1.6970 -0.5333 -2.9929
  666SOL     OW11856   2.187   4.823   1.355  0.1159  0.4091  0.1555
  666SOL    HW111857   2.260   4.862   1.411  1.2580 -1.0573 -0.2799
  666SOL    HW211858   2.199   4.853   1.260  0.2455  0.0563  0.0588
  667SOL     OW11859   2.398   7.145   2.447 -0.3247 -0.9942 -0.3482
  667SOL    HW111860   2.488   7.108   2.425 -0.3453 -0.8054 -0.7492
  667SOL    HW211861   2.407   7.240   2.478 -0.5531 -0.4138 -2.0240
  668SOL     OW11862   3.143   1.165   1.400  0.1882  0.2644 -0.4824
  668SOL    HW111863   3.076   1.133   1.466  0.8728 -0.9893 -0.3901
  668SOL    HW211864   3.096   1.204   1.320 -0.6351  1.1619  0.4200
  669SOL     OW11865   2.254   7.221   0.682 -0.8147  0.2442 -0.6707
  669SOL    HW111866   2.162   7.181   0.686 -0.0012 -1.7000 -0.9421
  669SOL    HW211867   2.288   7.235   0.775 -1.3972  1.0383 -0.5676
  670SOL     OW11868   2.039   1.694   1.424 -0.9643  0.1725 -0.1647
  670SOL    HW111869   1.990   1.667   1.506 -0.1820 -0.6148  0.0502
  670SOL    HW211870   1.999   1.779   1.388 -2.2798 -0.3000  0.1560
  671SOL     OW11871   2.452   3.223   1.199  0.2250  1.0158 -0.0017
  671SOL    HW111872   2.540   3.263   1.173  0.6733 -0.8054 -1.4318
  671SOL    HW211873   2.463   3.167   1.280  0.8180 -0.7477 -1.2751
  672SOL     OW11874   3.982   0.476   0.570 -0.8448  0.4780  0.5027
  672SOL    HW111875   3.947   0.486   0.477 -0.5601  0.6675  0.4149
  672SOL    HW211876   4.081   0.466   0.567 -0.7967  0.8565  0.8106
  673SOL     OW11877   5.422   4.275   1.066  0.3211 -0.1561  0.7497
  673SOL    HW111878   5.442   4.198   1.005 -0.6491  0.1963 -0.0345
  673SOL    HW211879   5.412   4.241   1.160 -1.1636 -1.1732  0.2546
  674SOL     OW11880   3.453   7.813   0.275 -0.2648  0.7883 -0.0994
  674SOL    HW111881   3.503   7.864   0.206 -1.3189  1.1234 -0.6385
  674SOL    HW211882   3.428   7.723   0.239  3.4195 -0.9883  1.5929
  675SOL     OW11883   2.728   2.944   1.793  0.1405 -0.2922 -0.3336
  675SOL    HW111884   2.639   2.991   1.790 -0.5121 -1.3178  1.7074
  675SOL    HW211885   2.787   2.990   1.859  0.0672 -1.3516  0.4875
  676SOL     OW11886   2.600   1.947   0.456  1.2179 -0.1135  0.5092
  676SOL    HW111887   2.679   1.902   0.414 -0.7989 -1.3778 -2.1270
  676SOL    HW211888   2.614   2.047   0.455  1.9628 -0.2074 -1.7221
  677SOL     OW11889   3.852   9.243   0.311 -0.2626 -0.7305 -0.2255
  677SOL    HW111890   3.843   9.310   0.238  0.8840 -0.4614 -0.1341
  677SOL    HW211891   3.918   9.172   0.284 -0.5222 -1.1337  0.1783
  678SOL     OW11892   3.596   3.642   0.350 -0.0938 -0.4354  0.1055
  678SOL    HW111893   3.647   3.623   0.266  1.9231  1.4393  0.8285
  678SOL    HW211894   3.607   3.565   0.413  0.7172 -0.6518 -0.2864
  679SOL     OW11895   4.626   3.651   2.017 -0.1554 -0.1216  0.5430
  679SOL    HW111896   4.722   3.629   1.999 -0.0770  0.4556  0.2494
  679SOL    HW211897   4.618   3.748   2.041 -0.8654  0.1987 -0.9449
  680SOL     OW11898   2.934   8.779   1.712  0.0202  0.4300  0.8595
  680SOL    HW111899   2.975   8.739   1.793  1.6819  0.1682 -0.0866
  680SOL    HW211900   2.998   8.843   1.670 -0.5189 -0.0129 -0.6804
  681SOL     OW11901   3.190   1.176   2.409 -0.4617  0.5452  0.6394
  681SOL    HW111902   3.278   1.220   2.392 -0.3581 -0.3648 -1.3153
  681SOL    HW211903   3.125   1.244   2.443  0.8057  1.3517  1.4990
  682SOL     OW11904   2.223   7.007   2.604  0.3580 -0.1187 -0.3078
  682SOL    HW111905   2.232   6.908   2.591  0.4811 -0.1727  0.1879
  682SOL    HW211906   2.294   7.055   2.552  2.5440 -0.4563  2.2628
  683SOL     OW11907   2.459   5.778   1.302 -0.3006 -0.6435 -0.6916
  683SOL    HW111908   2.519   5.709   1.343  1.1514 -0.1101 -1.8568
  683SOL    HW211909   2.402   5.736   1.231  1.2144 -0.5201 -2.0226
  684SOL     OW11910   2.065   3.306   2.597  0.2112 -0.7169 -0.2725
  684SOL    HW111911   2.047   3.212   2.569  2.4269 -1.3115  0.2405
  684SOL    HW211912   1.979   3.351   2.620 -0.8335 -2.7006 -0.2363
  685SOL     OW11913   4.820   3.466   2.792  0.2314 -0.1401  0.4730
  685SOL    HW111914   4.794   3.563   2.789 -3.4268 -1.0408  0.5188
  685SOL    HW211915   4.765   3.419   2.860  1.0057 -2.5384 -0.5033
  686SOL     OW11916   5.124   1.791   0.867  0.4123  0.3577 -0.3181
  686SOL    HW111917   5.215   1.787   0.907 -0.0006  0.3408  0.6224
  686SOL    HW211918   5.074   1.708   0.890  0.3130  0.1603 -1.2183
  687SOL     OW11919   3.516   3.542   1.159  0.3248 -0.3105  0.1077
  687SOL    HW111920   3.561   3.624   1.196  0.2556 -0.1830 -0.0919
  687SOL    HW211921   3.584   3.483   1.116  0.3107 -0.1564 -0.1229
  688SOL     OW11922   3.182   1.420   1.867  0.1677 -0.4993  0.2286
  688SOL    HW111923   3.153   1.395   1.960  2.7163 -1.7294  0.7460
  688SOL    HW211924   3.203   1.518   1.864 -0.3875 -0.3595  0.8290
  689SOL     OW11925   1.887   5.947   1.011  0.4797  0.5713 -0.5556
  689SOL    HW111926   1.917   5.997   1.093 -2.9829 -1.2446  1.9415
  689SOL    HW211927   1.843   6.011   0.948  0.0359  1.4478  0.6154
  690SOL     OW11928   3.201   4.493   1.082 -0.1844  0.7232 -0.3372
  690SOL    HW111929   3.189   4.426   1.155  0.6454  1.2729  0.3104
  690SOL    HW211930   3.183   4.449   0.993  1.7192 -0.7206 -0.0322
  691SOL     OW11931   3.919   2.202   1.052 -0.5837  0.1354  0.2238
  691SOL    HW111932   3.990   2.239   1.112 -1.1429  0.0135  0.9680
  691SOL    HW211933   3.959   2.179   0.963 -0.0274  1.5668  0.0922
  692SOL     OW11934   2.258   9.166   2.765  0.9018  0.2786  0.3592
  692SOL    HW111935   2.170   9.186   2.807  1.3298  0.2074  1.2920
  692SOL    HW211936   2.249   9.086   2.706 -0.0739  1.3166 -0.9457
  693SOL     OW11937   2.722   7.563   0.039  0.1001 -0.0277 -0.1650
  693SOL    HW111938   2.627   7.561   0.070  0.5007  0.0936  1.0903
  693SOL    HW211939   2.759   7.655   0.053 -0.1809  0.4476 -2.4468
  694SOL     OW11940   3.438   0.334   1.198  0.4908 -0.0899  0.4967
  694SOL    HW111941   3.437   0.364   1.294  1.0652  1.9389 -0.1042
  694SOL    HW211942   3.530   0.303   1.173  0.1254 -1.5046  0.8387
  695SOL     OW11943   3.314   7.820   0.960 -0.4533 -0.4859  0.0368
  695SOL    HW111944   3.401   7.798   1.003 -0.2678  1.8959  0.9360
  695SOL    HW211945   3.330   7.842   0.864 -0.5033 -3.0567 -0.6003
  696SOL     OW11946   3.024   5.334   1.630  0.2171  0.2184 -0.0260
  696SOL    HW111947   2.966   5.330   1.711  1.5893  2.5296  1.1204
  696SOL    HW211948   3.114   5.298   1.652  1.0540  2.2289 -0.0647
  697SOL     OW11949   2.818   5.946   1.115 -0.9939 -0.2720 -0.2980
  697SOL    HW111950   2.837   5.964   1.212 -3.4825  0.7555  0.0567
  697SOL    HW211951   2.883   5.879   1.080  0.4742 -0.0398  1.8621
  698SOL     OW11952   3.789   9.538   1.636  0.1114  0.1184 -0.0563
  698SOL    HW111953   3.711   9.500   1.587  0.7009 -1.0183 -0.1209
  698SOL    HW211954   3.783   9.514   1.733  0.7954 -0.6560 -0.2006
  699SOL     OW11955   4.298   3.230   0.371  0.1708  0.4990  0.1451
  699SOL    HW111956   4.294   3.326   0.396 -1.3777  1.2809 -2.8347
  699SOL    HW211957   4.210   3.187   0.389 -0.2239  0.5138 -1.6247
  700SOL     OW11958   3.266   7.524   1.154 -0.5687 -0.8059 -0.0011
  700SOL    HW111959   3.177   7.513   1.109 -0.9258  2.5529 -0.2160
  700SOL    HW211960   3.252   7.530   1.253 -0.3983 -1.7155  0.0891
  701SOL     OW11961   2.736   9.757   1.381  0.7957  0.4795 -0.2689
  701SOL    HW111962   2.662   9.779   1.444  0.8413  0.3963 -0.1836
  701SOL    HW211963   2.701   9.753   1.288  0.4859 -0.5357 -0.1191
  702SOL     OW11964   3.142   8.762   0.561 -0.0734  0.2248 -0.2282
  702SOL    HW111965   3.147   8.777   0.462 -1.0152 -2.5451 -0.7312
  702SOL    HW211966   3.169   8.846   0.609 -0.5853  1.9186 -2.8207
  703SOL     OW11967   4.271   4.592   1.895 -0.4546 -0.1507 -0.1280
  703SOL    HW111968   4.258   4.690   1.909 -0.0184 -0.1621  0.3721
  703SOL    HW211969   4.187   4.544   1.922 -0.8497  0.1265 -0.8599
  704SOL     OW11970   2.591   8.362   0.831  0.1330  0.3621  0.3283
  704SOL    HW111971   2.629   8.417   0.757  1.2701 -0.3401  0.3722
  704SOL    HW211972   2.628   8.269   0.825  1.4831  0.7138  2.7157
  705SOL     OW11973   2.148   8.016   0.049 -0.3212 -0.0024  0.1759
  705SOL    HW111974   2.141   7.974   0.140 -0.9654  0.1471  0.1993
  705SOL    HW211975   2.128   7.947  -0.020 -1.0480  0.1714  0.2017
  706SOL     OW11976   2.190   2.993   1.346  0.2866  0.0513  0.0463
  706SOL    HW111977   2.176   3.075   1.401 -0.7528  0.0974 -0.2778
  706SOL    HW211978   2.149   3.006   1.255 -1.4359 -1.4698  0.5711
  707SOL     OW11979   2.997   1.527   1.034 -0.4450 -0.3634  0.3468
  707SOL    HW111980   3.084   1.568   1.007  0.4107 -1.4748  1.3788
  707SOL    HW211981   2.926   1.555   0.969  0.6524  0.6056 -0.4656
  708SOL     OW11982   2.055   6.652   1.167  0.4057 -0.3001  0.3119
  708SOL    HW111983   2.063   6.702   1.080 -1.1516 -3.4922 -1.7569
  708SOL    HW211984   1.978   6.688   1.218  0.1034  0.3032 -0.5503
  709SOL     OW11985   2.303   5.259   0.210  0.1921  0.3584 -0.1646
  709SOL    HW111986   2.252   5.188   0.258 -1.1746  2.6882  1.9957
  709SOL    HW211987   2.344   5.221   0.127  0.2310 -3.1097  1.3573
  710SOL     OW11988   4.771   3.538   0.503 -0.4795  0.2194  0.4482
  710SOL    HW111989   4.838   3.612   0.507  0.7881 -0.9551  1.1469
  710SOL    HW211990   4.709   3.554   0.426 -1.0352  2.6871  1.3608
  711SOL     OW11991   4.958   2.642   0.474 -0.1604 -0.5328  0.4253
  711SOL    HW111992   4.974   2.622   0.570  1.0468 -1.9297 -0.0492
  711SOL    HW211993   4.899   2.571   0.435 -0.5340 -0.0455  0.1090
  712SOL     OW11994   4.964   3.538   2.015  0.1120 -0.2403 -0.6424
  712SOL    HW111995   5.020   3.524   2.097 -0.6656  1.3295  0.1834
  712SOL    HW211996   4.993   3.622   1.969  0.6019 -1.1630 -2.0385
  713SOL     OW11997   2.780   9.940   2.024 -0.4213  0.1173 -0.1826
  713SOL    HW111998   2.864   9.981   1.988 -0.8255  2.2960  1.3077
  713SOL    HW211999   2.795   9.842   2.039  1.3774  0.2045 -1.3275
  714SOL     OW12000   2.034   7.603   0.812 -0.3715 -0.1597  0.1485
  714SOL    HW112001   2.057   7.697   0.837  0.4182 -0.1127 -0.7190
  714SOL    HW212002   2.064   7.585   0.718 -0.6869 -1.2189  0.2392
  715SOL     OW12003   4.517   4.374   2.387  0.2112  0.1759  0.2193
  715SOL    HW112004   4.555   4.302   2.329 -0.8614  0.1759 -0.4873
  715SOL    HW212005   4.580   4.452   2.388  0.8229 -0.3101  0.0593
  716SOL     OW12006   3.584   1.608   0.026 -0.0423 -0.0564 -0.0820
  716SOL    HW112007   3.596   1.697   0.070 -0.7265 -0.8474  1.7561
  716SOL    HW212008   3.543   1.621  -0.064 -0.2272  1.4757  0.2038
  717SOL     OW12009   4.098   8.513   0.794  0.7191  0.2814  0.2006
  717SOL    HW112010   4.190   8.475   0.782  0.0908 -1.0724 -0.5447
  717SOL    HW212011   4.062   8.484   0.883 -0.4481 -2.4623 -1.0976
  718SOL     OW12012   3.957   4.792   2.148 -0.2363 -0.6628 -0.0338
  718SOL    HW112013   3.880   4.835   2.100 -0.8502 -0.0717  1.4487
  718SOL    HW212014   4.040   4.847   2.133  0.0064 -1.5084 -1.9480
  719SOL     OW12015   3.774   3.565   2.397  0.1873 -0.9216  0.4928
  719SOL    HW112016   3.724   3.581   2.311  0.7256 -1.0647  0.1487
  719SOL    HW212017   3.751   3.475   2.433 -0.6383 -0.5511  0.9130
  720SOL     OW12018   4.064   1.985   2.614  0.1855  0.0239  0.4531
  720SOL    HW112019   3.999   1.951   2.545  0.9588 -1.3531  0.3925
  720SOL    HW212020   4.013   2.021   2.692 -0.6610 -1.4777  0.6155
  721SOL     OW12021   1.780   2.060   1.801 -0.3467  0.3602 -0.1408
  721SOL    HW112022   1.745   2.141   1.754 -0.9639 -0.4887 -1.1857
  721SOL    HW212023   1.837   2.088   1.878 -1.8476  1.7904  0.5036
  722SOL     OW12024   2.465   3.450   2.379  0.0411 -0.5046 -0.0181
  722SOL    HW112025   2.418   3.377   2.329  1.6783 -1.7364  0.1745
  722SOL    HW212026   2.477   3.529   2.320 -2.1351 -0.2210 -0.1027
  723SOL     OW12027   5.089   3.331   1.763 -0.6203 -0.1644  0.1322
  723SOL    HW112028   5.033   3.321   1.845 -3.1559 -0.2036 -1.5505
  723SOL    HW212029   5.099   3.429   1.741  0.5058 -0.1303  0.7756
  724SOL     OW12030   3.450   0.959   0.974  0.5390 -0.0035 -0.4066
  724SOL    HW112031   3.408   1.034   1.026  1.7909  0.1541  0.4061
  724SOL    HW212032   3.426   0.968   0.877  0.3309  1.2107 -0.2531
  725SOL     OW12033   2.708   5.584   1.032  0.5436  0.7418  0.0176
  725SOL    HW112034   2.650   5.648   0.982 -0.2285  0.7430  0.8992
  725SOL    HW212035   2.651   5.525   1.089  0.8894 -2.8873 -3.1145
  726SOL     OW12036   3.470   0.102   2.041  0.1033 -0.1983 -0.0705
  726SOL    HW112037   3.531   0.025   2.058 -1.4280 -1.2989  0.5889
  726SOL    HW212038   3.513   0.187   2.072  2.1304 -0.6808 -1.5569
  727SOL     OW12039   2.285   8.817   1.683 -0.1506 -0.0544 -0.6545
  727SOL    HW112040   2.284   8.906   1.728  1.5217  0.9252 -2.4887
  727SOL    HW212041   2.379   8.789   1.666 -0.6287 -2.4109  0.2648
  728SOL     OW12042   4.781   2.760   1.550 -0.3431  0.2611  0.1966
  728SOL    HW112043   4.786   2.795   1.643 -1.8762  0.0535  0.3754
  728SOL    HW212044   4.844   2.811   1.491  0.0431  0.9190  1.1748
  729SOL     OW12045   3.595   9.782   2.630 -0.8140 -0.5008  0.6621
  729SOL    HW112046   3.539   9.865   2.637 -0.1581  0.3157 -2.6779
  729SOL    HW212047   3.683   9.798   2.675 -0.0204  1.2935 -1.4468
  730SOL     OW12048   4.300   0.291   2.140 -0.4562  0.3072  0.2216
  730SOL    HW112049   4.279   0.336   2.227 -0.3976  0.2733  0.2538
  730SOL    HW212050   4.259   0.200   2.138 -2.1287  1.0567 -0.5919
  731SOL     OW12051   2.429   3.946   1.878 -0.0218  0.3828 -0.6074
  731SOL    HW112052   2.457   3.961   1.973  2.2676  0.6890 -1.3015
  731SOL    HW212053   2.406   4.033   1.836 -2.5810  0.0893  0.0879
  732SOL     OW12054   3.535   8.336   2.621 -0.2377 -0.0273  0.1341
  732SOL    HW112055   3.606   8.304   2.557 -1.0849 -0.1379 -0.7532
  732SOL    HW212056   3.471   8.262   2.640 -0.8981  0.4721 -0.1341
  733SOL     OW12057   2.729   7.535   1.675  0.0500  0.4887  0.4316
  733SOL    HW112058   2.807   7.572   1.726 -0.9102  1.7978  0.9746
  733SOL    HW212059   2.645   7.547   1.728 -0.5920 -0.5792 -0.3072
  734SOL     OW12060   1.992   3.908   2.621  0.5548  0.2128 -0.0659
  734SOL    HW112061   1.929   3.979   2.590 -0.0871 -0.5778 -0.5914
  734SOL    HW212062   2.085   3.930   2.591  0.3326  0.7216 -0.3972
  735SOL     OW12063   4.648   0.789   1.513 -0.4389  0.3982 -0.0570
  735SOL    HW112064   4.694   0.800   1.425 -0.1953 -0.5060 -0.0529
  735SOL    HW212065   4.554   0.823   1.506 -1.1757 -1.7709 -1.3667
  736SOL     OW12066   2.656   4.921   0.705  0.0143 -0.3345 -0.0722
  736SOL    HW112067   2.618   4.841   0.751 -3.1758 -0.7252 -3.1632
  736SOL    HW212068   2.630   5.004   0.754 -1.6611 -0.8497 -0.0745
  737SOL     OW12069   2.622   8.747   2.685  0.7289  0.2515 -0.0812
  737SOL    HW112070   2.614   8.738   2.585  0.2289  2.6354 -0.2855
  737SOL    HW212071   2.542   8.708   2.729  0.9885 -0.8805 -0.5992
  738SOL     OW12072   3.701   3.175   0.740 -0.0595  0.1601  0.3086
  738SOL    HW112073   3.683   3.103   0.672  1.1099 -0.0653  0.2206
  738SOL    HW212074   3.656   3.152   0.826 -0.5995 -0.1305 -0.0476
  739SOL     OW12075   2.115   8.462   0.930  0.1716  0.8125 -0.2761
  739SOL    HW112076   2.110   8.562   0.928  0.4002  0.8907  1.5462
  739SOL    HW212077   2.195   8.431   0.879  0.3344  1.5919 -0.4950
  740SOL     OW12078   3.389   5.481   0.068 -0.1997 -0.1433  0.0487
  740SOL    HW112079   3.456   5.425   0.117 -1.5659 -2.2507 -0.4255
  740SOL    HW212080   3.330   5.527   0.135 -0.2509 -0.7476  0.4256
  741SOL     OW12081   4.248   4.111   0.828  0.1063 -0.2919 -0.4561
  741SOL    HW112082   4.310   4.089   0.753  0.0225  0.4988 -0.7572
  741SOL    HW212083   4.178   4.175   0.797  0.6328  0.7815  0.5370
  742SOL     OW12084   3.350   4.639   1.661 -0.1625 -0.1307 -0.4499
  742SOL    HW112085   3.348   4.680   1.569  1.0426 -1.1708 -0.9529
  742SOL    HW212086   3.342   4.711   1.729 -2.3883  0.5388 -1.3855
  743SOL     OW12087   2.996   9.727   0.539  0.1706  0.1064 -0.1328
  743SOL    HW112088   2.978   9.672   0.620  1.1058 -0.3151 -0.2048
  743SOL    HW212089   2.918   9.788   0.521 -0.3723 -0.3717  0.6096
  744SOL     OW12090   3.542   4.222   2.258  0.8375 -0.4411  0.0529
  744SOL    HW112091   3.506   4.218   2.165  1.3019  0.9879 -0.2056
  744SOL    HW212092   3.467   4.223   2.323  0.4323  0.7494 -0.4099
  745SOL     OW12093   4.913   3.771   1.518  0.6186  0.3512 -0.3668
  745SOL    HW112094   4.944   3.822   1.438  0.5590  0.1561 -0.5156
  745SOL    HW212095   4.969   3.689   1.528  1.5421  1.0858  0.6095
  746SOL     OW12096   4.286   9.304   1.095  0.1765 -1.1868 -0.0383
  746SOL    HW112097   4.289   9.204   1.093 -0.1157 -1.1991 -0.0148
  746SOL    HW212098   4.246   9.334   1.182  0.5379 -1.0428  0.0777
  747SOL     OW12099   3.628   9.776   0.643  0.3936 -0.0233 -0.2457
  747SOL    HW112100   3.651   9.820   0.556  0.0989  0.8217  0.1005
  747SOL    HW212101   3.708   9.726   0.678  1.0353  1.0702 -0.1411
  748SOL     OW12102   4.193   4.973   2.196  0.7044  0.2021 -0.0604
  748SOL    HW112103   4.244   4.888   2.209 -0.1244  0.0156  2.1152
  748SOL    HW212104   4.203   5.031   2.277  1.9615  2.5713 -1.8544
  749SOL     OW12105   4.656   4.475   0.935  0.2764 -0.3942 -0.3676
  749SOL    HW112106   4.609   4.493   1.021  1.5904 -0.5850  0.3992
  749SOL    HW212107   4.616   4.394   0.891 -0.4765 -0.2201 -0.0061
  750SOL     OW12108   2.766   2.172   0.501 -0.0996 -0.5962  0.5736
  750SOL    HW112109   2.836   2.186   0.431 -0.2247 -0.7685  0.4151
  750SOL    HW212110   2.809   2.174   0.592  0.0149 -0.0526  0.5121
  751SOL     OW12111   2.926   3.173   1.333  0.0622  0.1384 -0.0913
  751SOL    HW112112   2.918   3.190   1.235  1.2268  0.8031 -0.0770
  751SOL    HW212113   2.945   3.258   1.381  4.2850 -0.8545  0.1621
  752SOL     OW12114   4.157   2.137   2.319  0.1017 -0.0617 -0.3416
  752SOL    HW112115   4.061   2.164   2.316  0.2131  0.5859  1.1530
  752SOL    HW212116   4.166   2.042   2.289 -0.7804  0.4098 -2.1146
  753SOL     OW12117   4.618   3.594   0.244 -0.1498  0.8349  0.2397
  753SOL    HW112118   4.525   3.604   0.209  0.2781  3.7170 -0.1925
  753SOL    HW212119   4.659   3.512   0.205 -2.3107 -0.1763  0.0062
  754SOL     OW12120   3.550   0.606   2.284 -0.1352  0.5523  0.1786
  754SOL    HW112121   3.614   0.622   2.209 -0.2526  0.8717  0.1483
  754SOL    HW212122   3.599   0.609   2.371 -0.2757  1.7396  0.2193
  755SOL     OW12123   2.708   9.482   2.334 -0.1220  0.3360  0.8351
  755SOL    HW112124   2.746   9.399   2.375 -1.0091 -0.6130 -0.2364
  755SOL    HW212125   2.711   9.475   2.234 -0.6951  1.3726  0.7354
  756SOL     OW12126   4.059   1.096   2.614 -0.4151  0.1789  0.5074
  756SOL    HW112127   4.109   1.136   2.537  0.7391 -0.0558  1.1278
  756SOL    HW212128   3.973   1.146   2.628 -0.2934  0.6727 -0.4723
  757SOL     OW12129   4.028   3.906   0.453  0.1461  0.1148  0.3229
  757SOL    HW112130   4.022   3.900   0.552 -1.6844 -1.2726  0.1514
  757SOL    HW212131   3.938   3.928   0.415 -0.0417 -3.1437 -1.2583
  758SOL     OW12132   4.252   9.615   0.080  1.3856 -0.2931  0.1264
  758SOL    HW112133   4.210   9.527   0.057  0.0189  0.5677 -0.7505
  758SOL    HW212134   4.221   9.644   0.171 -1.2835  1.1042 -1.1681
  759SOL     OW12135   3.165   9.004   2.517 -0.5511  0.5460  0.6767
  759SOL    HW112136   3.140   8.948   2.597 -0.6294  1.4849  1.3123
  759SOL    HW212137   3.097   8.992   2.445  0.3012 -1.4674  0.1673
  760SOL     OW12138   2.686   3.024   1.355  0.2077  0.2261 -0.8460
  760SOL    HW112139   2.732   2.944   1.392 -0.7543  0.0037 -0.1156
  760SOL    HW212140   2.754   3.089   1.320  1.0573 -0.0880  0.2184
  761SOL     OW12141   3.675   9.182   1.275 -0.1795  0.2775 -0.1683
  761SOL    HW112142   3.683   9.233   1.360 -1.4270  0.6017 -0.2438
  761SOL    HW212143   3.704   9.241   1.199 -1.8120  0.9602 -0.2789
  762SOL     OW12144   3.483   0.111   2.515 -0.2425  0.0697 -0.0244
  762SOL    HW112145   3.416   0.042   2.544  0.0484  0.1614  0.8952
  762SOL    HW212146   3.503   0.172   2.592  2.0238 -0.8780  0.1725
  763SOL     OW12147   2.602   1.928   0.853  0.0465 -0.4973  0.2197
  763SOL    HW112148   2.626   2.017   0.892 -2.1414 -0.5412  1.7654
  763SOL    HW212149   2.569   1.941   0.759 -0.7261  0.3994  0.5976
  764SOL     OW12150   4.425   2.668   2.194  0.4305  0.1887  0.2286
  764SOL    HW112151   4.433   2.676   2.293 -0.1235 -0.8939  0.3619
  764SOL    HW212152   4.329   2.659   2.168  0.2315  3.8311 -0.6777
  765SOL     OW12153   2.082   8.185   0.925 -0.3632  0.1278  0.3606
  765SOL    HW112154   2.145   8.263   0.929 -0.9524  0.5952  0.6267
  765SOL    HW212155   1.996   8.210   0.969 -1.6089  0.3091 -2.0869
  766SOL     OW12156   3.174   4.234   0.004  0.5149 -0.0268 -0.0731
  766SOL    HW112157   3.111   4.310  -0.013  1.5445  1.3210  1.8952
  766SOL    HW212158   3.260   4.250  -0.045  0.3438 -0.4644 -0.5183
  767SOL     OW12159   1.812   3.348   2.723 -0.0129  0.3702 -0.1277
  767SOL    HW112160   1.760   3.264   2.710 -1.8897  1.3231  1.0404
  767SOL    HW212161   1.873   3.337   2.802  2.5096 -1.1474 -2.1795
  768SOL     OW12162   3.557   1.909   2.331 -0.3096  0.3079 -0.1862
  768SOL    HW112163   3.595   1.919   2.423 -3.3505 -0.6708  1.2150
  768SOL    HW212164   3.461   1.936   2.330  0.1474  2.1759 -3.5443
  769SOL     OW12165   3.868   5.106   2.083 -0.1999 -0.1808 -0.2518
  769SOL    HW112166   3.948   5.139   2.133  1.3346 -3.6853 -0.2489
  769SOL    HW212167   3.871   5.141   1.989  0.3429  1.2110  0.2755
  770SOL     OW12168   2.622   3.669   1.222 -0.2526  0.5874 -0.5834
  770SOL    HW112169   2.624   3.648   1.320  0.5667 -0.6490 -0.8640
  770SOL    HW212170   2.529   3.695   1.197 -1.2033 -2.1413 -0.0849
  771SOL     OW12171   2.829   4.005   0.092 -0.2500  0.0536  0.0418
  771SOL    HW112172   2.908   4.020   0.152  0.2412 -1.1457 -0.2819
  771SOL    HW212173   2.750   3.979   0.147 -0.0776 -0.0164  0.2586
  772SOL     OW12174   2.763   5.545   1.827 -0.0216  0.4913  0.0790
  772SOL    HW112175   2.672   5.511   1.849  0.7955 -1.8613  0.0430
  772SOL    HW212176   2.756   5.622   1.764 -2.0123  1.2533  1.1823
  773SOL     OW12177   3.174   6.818   0.332  0.2925  0.2837 -0.3849
  773SOL    HW112178   3.176   6.797   0.234 -3.3535 -0.1920 -0.4394
  773SOL    HW212179   3.221   6.746   0.382 -0.6380 -1.1921 -1.5669
  774SOL     OW12180   2.507   9.034   2.799  0.3024  0.0118  0.0190
  774SOL    HW112181   2.410   9.028   2.776  0.1376  0.7249  0.5202
  774SOL    HW212182   2.557   8.965   2.747 -0.3156  0.3628 -1.0792
  775SOL     OW12183   2.186   3.570   1.328  0.4806  0.3422 -0.0085
  775SOL    HW112184   2.219   3.487   1.283 -1.1037 -1.2446  1.6357
  775SOL    HW212185   2.235   3.583   1.414  0.3311  0.8139  0.0100
  776SOL     OW12186   3.655   1.869   2.075 -0.7912 -0.5316 -0.3841
  776SOL    HW112187   3.751   1.893   2.067 -0.7573  0.1501  1.6726
  776SOL    HW212188   3.627   1.877   2.171 -2.8383 -0.9064 -0.9306
  777SOL     OW12189   2.410   2.074   1.461 -0.0181  0.2168 -1.0428
  777SOL    HW112190   2.329   2.058   1.404  0.4765 -0.6560 -1.5110
  777SOL    HW212191   2.381   2.090   1.556 -0.8698  1.9987 -1.5699
  778SOL     OW12192   4.267   0.068   0.754 -0.0289  0.3167 -0.4311
  778SOL    HW112193   4.209  -0.013   0.756 -0.4504  0.6260  1.2282
  778SOL    HW212194   4.290   0.095   0.848  2.9039  0.1295 -1.0314
  779SOL     OW12195   2.692   7.872   1.966 -0.2702  0.0620  0.0518
  779SOL    HW112196   2.673   7.958   1.919 -3.6884 -0.7489 -0.1804
  779SOL    HW212197   2.747   7.812   1.906  0.8425  1.4750 -0.3595
  780SOL     OW12198   2.520   9.799   1.166 -0.4238  0.0025 -0.6171
  780SOL    HW112199   2.476   9.779   1.253 -0.5414  2.5371 -0.0540
  780SOL    HW212200   2.523   9.716   1.110 -1.8891 -1.2513  1.1104
  781SOL     OW12201   2.785   1.692   0.940  0.2339 -0.3457  0.5055
  781SOL    HW112202   2.750   1.627   0.873  1.9690 -0.0972 -0.6765
  781SOL    HW212203   2.715   1.710   1.009 -1.6261 -0.5443 -1.2795
  782SOL     OW12204   2.396   2.457   2.119 -0.2433 -0.2065 -0.5788
  782SOL    HW112205   2.336   2.386   2.082  0.0686  0.1309 -1.7727
  782SOL    HW212206   2.483   2.455   2.070 -0.6539  1.7572 -1.4402
  783SOL     OW12207   5.521   4.085   0.924  0.0049  0.2027 -0.0301
  783SOL    HW112208   5.476   3.996   0.929  0.8143 -0.2136 -0.0643
  783SOL    HW212209   5.588   4.086   0.850 -0.3854  1.0231 -0.3835
  784SOL     OW12210   3.807   8.434   2.228 -0.0816  0.0786 -0.0100
  784SOL    HW112211   3.743   8.482   2.287  0.4830  1.4162 -0.4464
  784SOL    HW212212   3.891   8.415   2.279  0.1280  0.5814 -0.1635
  785SOL     OW12213   4.191   4.567   2.613  0.0407  0.7853 -1.0028
  785SOL    HW112214   4.107   4.546   2.563 -0.2607  0.3661 -0.3268
  785SOL    HW212215   4.255   4.490   2.603 -0.0369  0.6821 -0.7146
  786SOL     OW12216   3.676   8.274   0.524  0.6981  0.6701  0.0034
  786SOL    HW112217   3.769   8.301   0.551  1.4949 -0.1930 -1.8139
  786SOL    HW212218   3.614   8.351   0.538  2.0832  1.9460 -0.7274
  787SOL     OW12219   2.701   2.218   1.446 -0.7942  0.0591  0.5655
  787SOL    HW112220   2.716   2.141   1.383 -1.1504 -0.0925  0.6671
  787SOL    HW212221   2.605   2.244   1.445 -0.2797  2.0225 -1.2213
  788SOL     OW12222   4.018   1.328   0.911  0.1253  0.4139 -0.8597
  788SOL    HW112223   4.058   1.403   0.964  0.6958  0.5591 -1.5001
  788SOL    HW212224   4.071   1.244   0.926 -0.9930 -0.0820  0.5114
  789SOL     OW12225   2.352   2.244   2.758  0.3379  0.2703  0.1596
  789SOL    HW112226   2.394   2.158   2.730  1.6698  0.0211  2.7535
  789SOL    HW212227   2.423   2.315   2.767 -0.5102  1.1935 -0.3241
  790SOL     OW12228   3.535   8.576   1.515  0.1568 -0.4880  0.6180
  790SOL    HW112229   3.556   8.567   1.418  1.0525 -2.0599  0.9507
  790SOL    HW212230   3.495   8.666   1.532  1.0299  0.2187 -1.0140
  791SOL     OW12231   2.568   4.493   0.903 -0.0495  0.0789  0.0662
  791SOL    HW112232   2.522   4.465   0.987  0.5735 -0.0661  0.3648
  791SOL    HW212233   2.526   4.447   0.825 -0.4624  0.0127  0.3268
  792SOL     OW12234   3.175   1.676   0.874 -0.1223  0.2895  0.7936
  792SOL    HW112235   3.258   1.627   0.848 -0.4311  0.0138  0.3189
  792SOL    HW212236   3.133   1.717   0.793  0.0580  1.2307  1.1604
  793SOL     OW12237   3.929   4.771   0.915 -0.2615 -0.0478 -0.3826
  793SOL    HW112238   3.997   4.827   0.961 -0.1454  0.7359 -1.4915
  793SOL    HW212239   3.950   4.766   0.817 -2.1723  0.7741 -0.8586
  794SOL     OW12240   3.521   7.866   1.965 -0.6747 -0.4067 -0.3941
  794SOL    HW112241   3.582   7.825   1.897  2.7270 -2.1456  3.5498
  794SOL    HW212242   3.533   7.965   1.965  2.0913 -0.7178  0.2086
  795SOL     OW12243   3.244   3.677   1.352  0.1173 -0.2000 -1.1055
  795SOL    HW112244   3.155   3.680   1.397 -0.3905 -1.8753 -1.9356
  795SOL    HW212245   3.266   3.582   1.329  1.1756  0.4213 -2.7364
  796SOL     OW12246   4.000   9.943   0.295  0.0557 -0.2173  0.1984
  796SOL    HW112247   4.068   9.871   0.310  0.2601  0.0206  0.4092
  796SOL    HW212248   4.039  10.031   0.320  0.5859  0.2634 -2.1809
  797SOL     OW12249   2.765   8.403   1.314 -0.0897 -0.5233  0.1001
  797SOL    HW112250   2.774   8.306   1.291  1.0750 -0.5582  0.6814
  797SOL    HW212251   2.761   8.456   1.229 -3.8058 -1.3099 -0.2879
  798SOL     OW12252   3.562   2.907   0.643 -0.2406 -0.2566  0.1175
  798SOL    HW112253   3.563   2.826   0.583  1.3516  1.0037 -1.6275
  798SOL    HW212254   3.472   2.948   0.641  0.0266  0.2912 -2.2048
  799SOL     OW12255   1.806   3.569   2.070 -0.1462 -0.1050  0.6870
  799SOL    HW112256   1.832   3.478   2.037 -2.3750 -1.2994  2.0429
  799SOL    HW212257   1.731   3.604   2.014 -1.0385 -0.2594  1.7686
  800SOL     OW12258   3.759   1.262   0.923  0.3509 -0.0132 -0.5469
  800SOL    HW112259   3.701   1.343   0.910 -0.5715 -0.1483  2.3827
  800SOL    HW212260   3.854   1.291   0.935  0.2543  0.5110 -1.0150
  801SOL     OW12261   2.966   2.215   2.501  0.3838 -0.1688  0.1547
  801SOL    HW112262   2.947   2.310   2.527 -0.1285 -0.7930  2.1306
  801SOL    HW212263   2.951   2.204   2.402  1.6446  2.0850 -0.3337
  802SOL     OW12264   3.411   5.561   2.648 -0.5501 -0.4391  0.3977
  802SOL    HW112265   3.407   5.655   2.683 -0.7905 -0.9098  1.6683
  802SOL    HW212266   3.414   5.497   2.725 -0.2232 -1.4716 -0.4583
  803SOL     OW12267   2.215   8.184   2.574 -0.2501  0.3721  0.0289
  803SOL    HW112268   2.146   8.122   2.537 -1.5189  1.0040  1.2628
  803SOL    HW212269   2.236   8.157   2.668  0.1929  0.9884  0.1106
  804SOL     OW12270   3.636   0.165   0.838 -0.2648 -0.5068 -0.6136
  804SOL    HW112271   3.546   0.180   0.878  0.6387 -1.7812  2.0584
  804SOL    HW212272   3.662   0.244   0.783 -2.5546  0.3376 -0.5314
  805SOL     OW12273   3.939   2.636   2.664  0.8727  0.2772 -0.6814
  805SOL    HW112274   4.009   2.565   2.660  1.4359  0.8603 -1.3387
  805SOL    HW212275   3.887   2.637   2.579  0.8857  0.6668 -0.6860
  806SOL     OW12276   2.784   0.341   0.618  0.5332 -0.7029  0.2864
  806SOL    HW112277   2.785   0.372   0.523 -0.0865  1.0434  0.8484
  806SOL    HW212278   2.801   0.242   0.620 -0.0096 -0.8600 -1.6716
  807SOL     OW12279   2.835   2.490   1.459 -0.6700 -0.1414 -0.7519
  807SOL    HW112280   2.832   2.528   1.551  2.6629  0.7830 -0.9523
  807SOL    HW212281   2.820   2.391   1.462  0.3694 -0.2545  0.8827
  808SOL     OW12282   1.937   6.271   1.898  0.1711  0.1324  0.3634
  808SOL    HW112283   1.984   6.234   1.978 -2.4335 -2.5800  0.7351
  808SOL    HW212284   1.960   6.217   1.817  0.6119  1.1311 -0.1876
  809SOL     OW12285   3.605   4.796   0.324 -0.1536 -0.5169  0.1556
  809SOL    HW112286   3.535   4.828   0.260  0.3285  1.4841  0.5737
  809SOL    HW212287   3.682   4.758   0.272 -0.3283 -0.1109 -0.4149
  810SOL     OW12288   2.452   4.085   0.629  0.5003 -0.3525 -0.3708
  810SOL    HW112289   2.469   4.071   0.531  0.3857  1.0420 -0.5963
  810SOL    HW212290   2.473   4.000   0.678  0.5700 -1.0651 -1.5968
  811SOL     OW12291   3.877   3.954   1.520  0.2172 -0.1860 -0.3028
  811SOL    HW112292   3.816   4.007   1.462  0.7358  1.2705  0.4491
  811SOL    HW212293   3.965   4.001   1.527  0.7035 -1.1794  0.3403
  812SOL     OW12294   2.480   6.857   2.307  0.0074 -0.5686  0.1853
  812SOL    HW112295   2.505   6.908   2.225 -1.5405  1.7172  1.0910
  812SOL    HW212296   2.544   6.879   2.380  0.7855 -1.8283 -0.1057
  813SOL     OW12297   3.554   3.557   0.707  0.6598  0.0984  0.0242
  813SOL    HW112298   3.620   3.502   0.655  0.8283  2.0313 -1.8698
  813SOL    HW212299   3.589   3.571   0.799  1.2978 -1.7178  0.0842
  814SOL     OW12300   3.964   2.605   0.210 -0.4314  0.2022 -0.5600
  814SOL    HW112301   3.881   2.626   0.262 -0.4396  1.5712 -1.1003
  814SOL    HW212302   4.018   2.689   0.199 -0.0780 -0.2231 -2.1221
  815SOL     OW12303   3.177   6.066   1.751 -0.5272  0.0574 -0.6345
  815SOL    HW112304   3.159   6.143   1.691 -0.1195  0.2962 -0.4541
  815SOL    HW212305   3.091   6.022   1.777 -0.7820  0.6570 -0.4704
  816SOL     OW12306   4.413   3.288   0.122 -0.2742  0.1025  0.4533
  816SOL    HW112307   4.354   3.232   0.180 -1.3289 -1.2154 -1.7902
  816SOL    HW212308   4.377   3.381   0.116 -1.5188 -0.4074 -0.0286
  817SOL     OW12309   2.420   3.750   0.929 -0.0054  0.2486  0.3447
  817SOL    HW112310   2.476   3.669   0.913 -1.6188 -0.7924 -0.1346
  817SOL    HW212311   2.388   3.751   1.024  0.4600  0.6138  0.4995
  818SOL     OW12312   2.525   5.905   1.566  0.1393  0.6085 -0.3315
  818SOL    HW112313   2.465   5.867   1.636 -0.1721 -1.3994 -1.6561
  818SOL    HW212314   2.485   5.889   1.475  2.0190  0.4576 -1.1531
  819SOL     OW12315   4.352   2.803   2.821  0.5810  0.0714 -0.0930
  819SOL    HW112316   4.414   2.880   2.810  1.8472 -1.0627 -1.0776
  819SOL    HW212317   4.405   2.719   2.833 -0.7732 -0.6159  1.2906
  820SOL     OW12318   4.234   2.647   1.172 -0.2077 -0.5910  0.3236
  820SOL    HW112319   4.310   2.704   1.204  1.1702 -1.6164 -1.0270
  820SOL    HW212320   4.158   2.706   1.145  1.0561  0.6210 -0.6920
  821SOL     OW12321   3.654   3.580   1.594  0.3132 -0.0973 -0.1167
  821SOL    HW112322   3.595   3.648   1.551 -0.0143  0.4456  1.1708
  821SOL    HW212323   3.738   3.623   1.626 -0.4074 -0.0469  1.7565
  822SOL     OW12324   2.425   0.132   0.061  0.0894  1.1392 -0.1789
  822SOL    HW112325   2.521   0.124   0.085 -0.4169 -0.1769  1.5262
  822SOL    HW212326   2.416   0.140  -0.038  1.9159  0.7635 -0.3930
  823SOL     OW12327   3.513   2.675   0.456 -0.1500 -0.0464  0.2032
  823SOL    HW112328   3.546   2.595   0.408 -2.1751  0.4212 -2.0962
  823SOL    HW212329   3.468   2.647   0.541 -2.7187 -1.5875 -1.6019
  824SOL     OW12330   3.784   4.393   2.085  0.2051  0.2677  0.0809
  824SOL    HW112331   3.785   4.293   2.090  2.3595  0.2690  0.3504
  824SOL    HW212332   3.696   4.428   2.118 -1.4134 -1.6156 -2.1335
  825SOL     OW12333   2.714   0.423   0.373 -0.1281  0.0884  0.1829
  825SOL    HW112334   2.619   0.406   0.400 -0.0280 -0.9304 -0.0844
  825SOL    HW212335   2.727   0.396   0.277  0.3638  0.5011  0.1281
  826SOL     OW12336   3.383   3.801   0.239  0.2278 -0.7016 -0.4653
  826SOL    HW112337   3.366   3.752   0.153  0.1147 -1.8643  0.1992
  826SOL    HW212338   3.433   3.741   0.301  0.8906  0.3753  0.0353
  827SOL     OW12339   4.699   1.385   1.600  0.1103  0.7312  0.5034
  827SOL    HW112340   4.747   1.298   1.612  1.8763  1.4166 -1.3507
  827SOL    HW212341   4.712   1.442   1.682 -0.7235 -0.5816  1.5606
  828SOL     OW12342   1.942   3.143   0.366 -0.6162 -0.6014  1.2394
  828SOL    HW112343   1.855   3.186   0.342 -0.5267 -0.5826  0.9453
  828SOL    HW212344   1.987   3.196   0.438  1.2001  1.8757 -1.6185
  829SOL     OW12345   3.740   0.691   0.497 -0.1221 -0.2868 -0.2075
  829SOL    HW112346   3.781   0.621   0.438  0.2310  0.2910 -0.6521
  829SOL    HW212347   3.645   0.706   0.470  0.1617  0.2730 -0.8980
  830SOL     OW12348   4.657   2.299   2.472  0.1998  0.2869  0.4269
  830SOL    HW112349   4.684   2.219   2.525  1.3422  1.4274  1.5915
  830SOL    HW212350   4.739   2.341   2.431 -0.2557  1.5197  0.7699
  831SOL     OW12351   3.392   1.502   0.522  0.1082  0.2651 -0.0418
  831SOL    HW112352   3.462   1.486   0.452 -0.5747 -1.7227 -0.3135
  831SOL    HW212353   3.319   1.559   0.484  1.0005  1.3637 -0.1219
  832SOL     OW12354   7.028   9.584   1.409 -0.3227  0.1854 -0.7002
  832SOL    HW112355   7.083   9.599   1.491 -0.6336  0.3996 -0.5318
  832SOL    HW212356   6.944   9.638   1.414 -0.8348 -0.6063 -0.6799
  833SOL     OW12357   2.719   5.562   0.430  0.2416  0.3447 -0.2525
  833SOL    HW112358   2.639   5.511   0.400 -0.3902  2.0144 -1.4711
  833SOL    HW212359   2.780   5.501   0.483 -0.9741 -1.3633 -0.7842
  834SOL     OW12360   2.475   5.256   2.582  0.3554  0.2537 -0.3517
  834SOL    HW112361   2.504   5.351   2.592 -1.0836  0.7261 -0.4428
  834SOL    HW212362   2.515   5.218   2.499  0.3859  1.0083 -0.6906
  835SOL     OW12363   1.995   2.838   0.444 -0.3403 -0.3342  0.7171
  835SOL    HW112364   2.009   2.936   0.461  1.4909 -0.5614  0.6779
  835SOL    HW212365   2.074   2.787   0.480 -0.9327 -1.7195  0.0775
  836SOL     OW12366   2.353   2.978   0.249 -0.1013 -0.2203  0.3163
  836SOL    HW112367   2.348   3.031   0.164  0.5822 -0.4379  0.1403
  836SOL    HW212368   2.302   2.893   0.238 -0.5666  0.0517  0.3462
  837SOL     OW12369   4.532   1.384   0.069 -0.0398 -0.1868 -0.1014
  837SOL    HW112370   4.513   1.289   0.091 -0.5580 -0.3364 -1.1530
  837SOL    HW212371   4.511   1.442   0.147  1.2656 -1.0456  0.8947
  838SOL     OW12372   3.913   8.435   1.395  0.0884  0.6736 -0.5995
  838SOL    HW112373   4.004   8.429   1.355 -0.1508  0.4642 -1.1098
  838SOL    HW212374   3.859   8.504   1.347 -0.5954 -0.4199 -1.4223
  839SOL     OW12375   2.850   8.554   1.618 -0.0215  0.4401 -0.6011
  839SOL    HW112376   2.865   8.641   1.666  0.8088  0.7037 -1.3201
  839SOL    HW212377   2.899   8.556   1.531  1.2118 -1.3271  0.0339
  840SOL     OW12378   2.175   1.450   1.361 -0.0588  0.2380  0.0413
  840SOL    HW112379   2.197   1.414   1.271 -1.5395 -1.4650  0.3389
  840SOL    HW212380   2.117   1.531   1.352  0.3063  0.4376 -0.5355
  841SOL     OW12381   2.700   8.116   0.850  0.4050 -0.0161 -0.2825
  841SOL    HW112382   2.718   8.059   0.769  0.7836 -0.2590 -0.0236
  841SOL    HW212383   2.649   8.063   0.917 -0.9378  0.5372 -0.8370
  842SOL     OW12384   2.271   3.382   0.111  0.2408 -0.2912 -0.1352
  842SOL    HW112385   2.218   3.467   0.108 -0.0498 -0.3816  1.8162
  842SOL    HW212386   2.362   3.401   0.150 -0.8377 -1.3368  3.0804
  843SOL     OW12387   2.517   8.411   0.405 -0.5266 -0.3159  0.4852
  843SOL    HW112388   2.570   8.328   0.424 -0.8774 -0.4941  0.6749
  843SOL    HW212389   2.531   8.438   0.309  0.6785  0.1893  0.7863
  844SOL     OW12390   4.343   9.174   0.038  0.3549 -0.3771 -0.1867
  844SOL    HW112391   4.296   9.263   0.039  0.3600 -0.2212 -4.4437
  844SOL    HW212392   4.440   9.188   0.057  0.3929  0.5824 -1.0103
  845SOL     OW12393   4.505   3.131   0.507 -0.4534 -0.4006  0.4231
  845SOL    HW112394   4.560   3.094   0.432 -0.3246 -0.4367  0.5342
  845SOL    HW212395   4.415   3.158   0.473  1.2023  4.0419 -0.7781
  846SOL     OW12396   3.860   8.171   0.994  0.3100  0.1191  0.3569
  846SOL    HW112397   3.932   8.240   1.008  1.3298 -1.4523  3.1516
  846SOL    HW212398   3.880   8.120   0.910  1.9690  0.3136  0.6069
  847SOL     OW12399   2.371   3.120   2.826 -0.4789  0.6638 -0.3681
  847SOL    HW112400   2.468   3.109   2.852 -0.8163  0.5109  0.8915
  847SOL    HW212401   2.356   3.212   2.792 -0.2351  1.2631  1.0871
  848SOL     OW12402   3.239   3.248   0.418  0.1540  0.2553  0.1032
  848SOL    HW112403   3.213   3.223   0.325 -0.5982 -2.0712  0.9020
  848SOL    HW212404   3.157   3.256   0.475  0.7911 -1.5302  1.3146
  849SOL     OW12405   2.544   2.604   0.789 -0.7682 -0.0598  0.1363
  849SOL    HW112406   2.558   2.523   0.845  1.0311  0.2589  0.1672
  849SOL    HW212407   2.590   2.682   0.832 -0.4701  0.4590 -1.1164
  850SOL     OW12408   2.332   3.396   2.608 -0.8620  0.4484  0.2873
  850SOL    HW112409   2.362   3.409   2.513  0.5892 -0.4648  0.5988
  850SOL    HW212410   2.250   3.338   2.610 -1.0901  0.7452 -0.4317
  851SOL     OW12411   2.632   7.394   2.277  0.1063  0.1338 -0.7550
  851SOL    HW112412   2.587   7.384   2.366 -1.3100 -1.0723 -1.5805
  851SOL    HW212413   2.680   7.482   2.274 -0.8378  0.7322  0.7591
  852SOL     OW12414   2.872   2.213   1.075  0.7130 -0.5581 -0.7278
  852SOL    HW112415   2.844   2.301   1.038  2.8796  0.1344 -0.7874
  852SOL    HW212416   2.793   2.167   1.115 -0.8885  0.3777 -2.7653
  853SOL     OW12417   3.929   9.805   0.871 -0.6108  0.6408  0.0106
  853SOL    HW112418   3.966   9.764   0.955  1.1525  2.3686  0.1222
  853SOL    HW212419   3.829   9.810   0.878 -0.6555 -1.1827  1.0771
  854SOL     OW12420   3.323   3.543   2.237 -0.0424 -0.3708 -0.0337
  854SOL    HW112421   3.285   3.568   2.147  0.5150 -1.9953 -0.7309
  854SOL    HW212422   3.420   3.524   2.227 -0.4518 -2.7901  0.4925
  855SOL     OW12423   3.821   4.708   0.185 -0.0574 -0.0676 -0.3972
  855SOL    HW112424   3.914   4.743   0.183  0.1247 -0.5008  0.6343
  855SOL    HW212425   3.782   4.713   0.093  1.7001 -1.8848 -1.2662
  856SOL     OW12426   3.371   0.512   1.402 -0.3029 -0.3858 -0.0165
  856SOL    HW112427   3.283   0.513   1.353 -0.7992  1.1386  0.8614
  856SOL    HW212428   3.358   0.471   1.493 -0.0613 -0.2919  0.0601
  857SOL     OW12429   3.476   3.921   0.473 -0.0548  0.1512  0.1700
  857SOL    HW112430   3.470   4.020   0.459 -2.9674 -0.0100  0.0474
  857SOL    HW212431   3.466   3.874   0.386  0.0459 -0.2995  0.3967
  858SOL     OW12432   2.654   7.336   2.791  0.5088  0.4964 -0.2974
  858SOL    HW112433   2.695   7.421   2.823  1.0242  1.1935 -2.6883
  858SOL    HW212434   2.723   7.263   2.792  0.4863  0.4813  0.2682
  859SOL     OW12435   2.493   7.802   2.150  0.1474 -0.3874 -0.2139
  859SOL    HW112436   2.554   7.837   2.079  0.5881 -2.1994 -0.7524
  859SOL    HW212437   2.460   7.711   2.123 -0.1946 -0.8087  1.6084
  860SOL     OW12438   4.908   4.174   1.924 -0.3801 -0.6533 -0.0679
  860SOL    HW112439   4.844   4.242   1.960  0.9941  1.5490 -1.6522
  860SOL    HW212440   4.884   4.154   1.829  1.4490  0.4293 -0.7718
  861SOL     OW12441   3.052   4.737   2.097 -0.1965  0.0959  0.2571
  861SOL    HW112442   2.981   4.686   2.146  0.1616 -1.3683 -0.7089
  861SOL    HW212443   3.134   4.744   2.155 -0.1422 -0.6961  0.2816
  862SOL     OW12444   3.328   3.655   0.009 -0.0575 -0.6338  0.1931
  862SOL    HW112445   3.412   3.601   0.013  0.7522  0.4957 -1.0944
  862SOL    HW212446   3.257   3.602  -0.036  0.5686 -0.8335 -0.5753
  863SOL     OW12447   3.054   6.361   2.690  0.5389  0.4164 -0.1523
  863SOL    HW112448   3.022   6.271   2.717  2.8534 -0.5030 -0.3924
  863SOL    HW212449   3.146   6.354   2.651  1.0654  2.9564  0.5212
  864SOL     OW12450   2.687   3.498   0.623 -0.4020  0.0857 -0.5164
  864SOL    HW112451   2.715   3.541   0.537 -2.1040  3.8878  0.7206
  864SOL    HW212452   2.602   3.447   0.609  0.8167 -1.7120 -1.6476
  865SOL     OW12453   2.510   3.754   0.514 -0.4071 -0.1865 -0.4019
  865SOL    HW112454   2.556   3.743   0.602  0.0530 -0.2313 -0.6452
  865SOL    HW212455   2.441   3.682   0.504 -1.3457  0.5784  0.4634
  866SOL     OW12456   3.219   2.230   2.205  0.3064  0.2651  0.3259
  866SOL    HW112457   3.141   2.284   2.173  0.1615 -1.2742 -2.0229
  866SOL    HW212458   3.301   2.257   2.154  0.5039 -0.7859  0.0710
  867SOL     OW12459   3.332   8.360   2.219 -0.0884  0.1509 -0.2382
  867SOL    HW112460   3.356   8.447   2.175 -0.3199  0.2479 -0.1720
  867SOL    HW212461   3.234   8.359   2.239 -0.3798 -0.7485 -1.6243
  868SOL     OW12462   3.351   3.628   0.542 -0.1965  0.4106  0.3263
  868SOL    HW112463   3.430   3.598   0.595  0.4791  0.1439 -0.8233
  868SOL    HW212464   3.325   3.721   0.570  1.4794  1.1081 -0.3579
  869SOL     OW12465   1.837   2.744   1.815  0.1973  0.6829 -0.0088
  869SOL    HW112466   1.908   2.694   1.765  0.7533 -1.1641  2.5523
  869SOL    HW212467   1.771   2.680   1.854 -1.0709  2.1839  0.4089
  870SOL     OW12468   3.328   0.510   0.183  0.1585 -0.6365  0.7859
  870SOL    HW112469   3.247   0.452   0.200  0.5461 -1.9400 -1.7167
  870SOL    HW212470   3.324   0.547   0.091  2.4183 -0.6787  0.6463
  871SOL     OW12471   3.222   1.745   1.614  0.7277  0.0357  0.6380
  871SOL    HW112472   3.160   1.820   1.634  0.7856 -0.5276  3.0946
  871SOL    HW212473   3.191   1.697   1.532 -0.2188  1.7311 -0.0172
  872SOL     OW12474   2.678   3.027   1.029  0.0027  0.1399  0.3556
  872SOL    HW112475   2.698   2.935   0.997  2.6585  1.2264 -1.3262
  872SOL    HW212476   2.678   3.028   1.129  1.1658 -1.4389  0.3945
  873SOL     OW12477   2.548   4.459   0.263 -0.9721 -0.3170  0.1670
  873SOL    HW112478   2.510   4.540   0.307 -2.7476  0.4811 -2.7256
  873SOL    HW212479   2.585   4.484   0.173 -2.4598 -2.8562 -1.2198
  874SOL     OW12480   4.145   3.807   2.585  0.4587 -0.0845 -0.4544
  874SOL    HW112481   4.109   3.898   2.606  2.1317  0.6101 -0.5109
  874SOL    HW212482   4.072   3.739   2.591 -0.6477  1.1699  0.2790
  875SOL     OW12483   2.837   6.508   2.586 -0.1558 -0.2885  0.6264
  875SOL    HW112484   2.900   6.442   2.628 -0.2814 -0.4246  0.6031
  875SOL    HW212485   2.794   6.563   2.658  1.3212  1.0320  0.5412
  876SOL     OW12486   2.178   9.570   1.681  0.0773  0.3899 -0.2702
  876SOL    HW112487   2.266   9.542   1.719 -0.4219  0.9436  1.3406
  876SOL    HW212488   2.181   9.667   1.657 -0.2063  0.4967  0.1250
  877SOL     OW12489   3.750   4.882   1.102 -0.2363  0.7165 -0.1165
  877SOL    HW112490   3.664   4.922   1.069 -2.1340 -0.8255  2.7290
  877SOL    HW212491   3.793   4.830   1.028 -3.0170 -0.5344 -0.9198
  878SOL     OW12492   4.005   0.839   2.567 -0.0120  0.0992 -0.4205
  878SOL    HW112493   4.071   0.812   2.497  0.2302  1.0806 -0.5772
  878SOL    HW212494   4.025   0.932   2.599 -1.1825  0.3374 -0.3257
  879SOL     OW12495   4.067   4.259   0.647  0.1745 -0.4770  0.2219
  879SOL    HW112496   4.012   4.331   0.689  0.3933  0.8563 -1.7299
  879SOL    HW212497   4.007   4.183   0.621 -0.3331 -0.1964  0.5495
  880SOL     OW12498   4.614   2.377   2.764  0.4524 -0.2370  1.1279
  880SOL    HW112499   4.624   2.363   2.666 -2.1469 -0.2112  0.8109
  880SOL    HW212500   4.693   2.340   2.812  1.2106 -1.2847 -0.8791
  881SOL     OW12501   3.644   3.091   0.999  0.2475  0.5947 -0.0830
  881SOL    HW112502   3.663   3.154   1.074  1.1917 -0.0193  0.2095
  881SOL    HW212503   3.729   3.046   0.972 -0.5494 -1.0943  0.1980
  882SOL     OW12504   3.671   2.479   0.094 -0.1702 -0.3125 -0.1088
  882SOL    HW112505   3.730   2.478   0.174 -2.3023  1.7257  1.5672
  882SOL    HW212506   3.577   2.458   0.122 -0.8357 -0.2209 -2.1879
  883SOL     OW12507   2.666   0.489   2.086 -0.8023  0.1064  0.1803
  883SOL    HW112508   2.680   0.588   2.078  1.2527 -0.1315  0.6476
  883SOL    HW212509   2.637   0.466   2.179  2.1071 -0.0694  1.0948
  884SOL     OW12510   3.772   3.893   0.319 -0.0381  0.1814  0.3685
  884SOL    HW112511   3.698   3.874   0.385  0.2106  0.1792  0.6460
  884SOL    HW212512   3.805   3.806   0.281 -2.4030  0.3248 -2.2156
  885SOL     OW12513   2.966   3.180   0.406 -0.4825 -0.2716 -0.2853
  885SOL    HW112514   2.914   3.178   0.491 -2.6817 -0.6338 -1.5812
  885SOL    HW212515   2.977   3.086   0.372 -1.6765  0.0261 -1.5650
  886SOL     OW12516   2.811   4.950   1.590  0.0897 -0.8712 -0.0019
  886SOL    HW112517   2.874   4.877   1.566 -0.2864 -1.7579  1.6022
  886SOL    HW212518   2.753   4.920   1.666  0.0021  1.1262  0.7628
  887SOL     OW12519   2.590   3.527   0.897 -0.2648  0.5526 -0.2819
  887SOL    HW112520   2.610   3.494   0.805 -0.2469  1.1686 -0.5077
  887SOL    HW212521   2.599   3.453   0.962 -0.5070  0.0534 -0.8104
  888SOL     OW12522   3.220   9.960   1.536 -0.0952 -0.5441  0.4530
  888SOL    HW112523   3.229  10.034   1.469  1.4582 -0.1801  1.0470
  888SOL    HW212524   3.124   9.951   1.563 -0.5412  0.1524 -0.8604
  889SOL     OW12525   3.058   8.170   0.754  0.1003 -0.4173 -0.0642
  889SOL    HW112526   3.111   8.099   0.708 -1.1396 -0.8608 -0.8474
  889SOL    HW212527   2.988   8.204   0.691 -1.1312 -0.4793  1.2654
  890SOL     OW12528   3.774   4.314   0.724 -0.4626 -0.0670  0.1724
  890SOL    HW112529   3.728   4.395   0.688  0.1298 -0.3330 -1.1912
  890SOL    HW212530   3.771   4.241   0.656  2.1839 -0.0246 -0.0437
  891SOL     OW12531   2.223   1.412   1.627 -0.2291 -0.5390  0.0388
  891SOL    HW112532   2.295   1.348   1.603 -0.3139 -1.1810  1.4355
  891SOL    HW212533   2.178   1.445   1.544  1.1098 -0.7660 -0.7968
  892SOL     OW12534   2.811   2.809   0.221 -0.1562  0.1211  0.2585
  892SOL    HW112535   2.728   2.821   0.275 -0.6911  1.2722 -0.7908
  892SOL    HW212536   2.887   2.857   0.265 -0.3915  0.3141  0.4578
  893SOL     OW12537   2.994   4.348   1.613  0.4008  0.4590  0.0037
  893SOL    HW112538   3.088   4.314   1.610 -0.5916 -2.4206 -0.3594
  893SOL    HW212539   2.948   4.328   1.526 -0.5234  1.9034  0.1457
  894SOL     OW12540   2.530   7.788   0.342  0.1823  0.4390 -0.1334
  894SOL    HW112541   2.444   7.774   0.391  1.6583 -1.7478  1.9341
  894SOL    HW212542   2.530   7.879   0.299 -2.5790  1.0063  0.9921
  895SOL     OW12543   2.692   5.368   1.223  0.3560 -0.5729 -0.4162
  895SOL    HW112544   2.732   5.298   1.282 -0.4101 -0.4906  0.2152
  895SOL    HW212545   2.725   5.357   1.130  1.0261 -1.1475 -0.1135
  896SOL     OW12546   4.477   4.680   2.656  0.4777 -0.4571 -0.0826
  896SOL    HW112547   4.378   4.697   2.663  0.8894  1.5523  1.3862
  896SOL    HW212548   4.525   4.767   2.654  2.3586 -1.4358  1.4363
  897SOL     OW12549   2.361   8.643   2.232  0.5951  0.2809  0.0206
  897SOL    HW112550   2.269   8.660   2.198  0.6489 -0.4149 -0.4953
  897SOL    HW212551   2.428   8.658   2.159  0.6671 -1.7030 -0.3482
  898SOL     OW12552   4.149   9.426   1.318 -0.2731 -0.3683  0.6457
  898SOL    HW112553   4.092   9.508   1.321 -0.3251 -0.4281  1.2260
  898SOL    HW212554   4.130   9.369   1.398 -0.0218 -0.8050  0.3972
  899SOL     OW12555   3.433   5.094   1.293  0.1726 -0.0882 -0.2749
  899SOL    HW112556   3.529   5.076   1.317 -0.0059 -1.0309 -0.2696
  899SOL    HW212557   3.381   5.115   1.375  0.3893  0.5428 -0.2895
  900SOL     OW12558   2.163   2.323   0.484  0.2190 -0.2211 -0.3513
  900SOL    HW112559   2.123   2.412   0.459 -1.3272 -0.0357  2.6255
  900SOL    HW212560   2.262   2.333   0.494  0.3414  0.6442 -2.1934
  901SOL     OW12561   2.890   7.208   0.291 -0.1405  0.1730 -0.2068
  901SOL    HW112562   2.802   7.231   0.333  1.2583  2.9524  1.3054
  901SOL    HW212563   2.937   7.139   0.347  0.2850  1.4704  1.0614
  902SOL     OW12564   3.628   8.866   0.772 -0.4484  0.0330  0.6140
  902SOL    HW112565   3.663   8.949   0.728 -0.2532 -0.3081  0.1367
  902SOL    HW212566   3.675   8.786   0.736  1.6538 -0.0533  3.3409
  903SOL     OW12567   3.031   2.012   1.022  0.1631 -0.0062  0.9273
  903SOL    HW112568   2.981   1.971   0.945  1.5343  1.6114 -0.8603
  903SOL    HW212569   2.979   2.090   1.057  1.6221  2.0240 -1.2950
  904SOL     OW12570   3.363   8.810   1.781  0.2231 -0.1508  0.2204
  904SOL    HW112571   3.454   8.842   1.806 -0.1097  0.2757  0.9084
  904SOL    HW212572   3.356   8.802   1.682  0.1624  2.3723  0.0019
  905SOL     OW12573   2.301   2.593   2.678 -0.1642 -0.1828  0.5166
  905SOL    HW112574   2.216   2.542   2.692 -0.2330 -0.5034 -0.9369
  905SOL    HW212575   2.366   2.572   2.750  0.2045 -3.2036 -0.6436
  906SOL     OW12576   2.656   6.452   0.290  0.2203 -0.7511 -0.8224
  906SOL    HW112577   2.707   6.366   0.289  1.2788 -0.1378 -1.4816
  906SOL    HW212578   2.626   6.472   0.383  0.5317 -1.5092 -0.5527
  907SOL     OW12579   2.020   4.551   1.142 -0.9681 -0.3439  0.1734
  907SOL    HW112580   1.978   4.626   1.193 -1.4215 -0.0909 -0.5792
  907SOL    HW212581   2.003   4.465   1.191 -1.1416 -0.0661  0.6093
  908SOL     OW12582   2.800   9.358   0.041 -0.4017  0.3090  0.1078
  908SOL    HW112583   2.712   9.368   0.089 -0.7147  0.9540 -0.5871
  908SOL    HW212584   2.869   9.414   0.087 -0.7239  0.9981 -0.2369
  909SOL     OW12585   2.322   3.254   2.276  0.3772  0.5696 -0.2259
  909SOL    HW112586   2.345   3.163   2.310 -1.3840 -0.0263 -0.6212
  909SOL    HW212587   2.347   3.261   2.179 -1.8615 -0.3854 -0.9024
  910SOL     OW12588   2.885   4.583   0.574  0.3334 -0.0186 -0.3995
  910SOL    HW112589   2.962   4.580   0.511  0.1269  0.5265 -0.6821
  910SOL    HW212590   2.799   4.582   0.523  0.1712  1.3157 -0.1721
  911SOL     OW12591   3.838   5.030   0.810 -0.4959  0.2348 -0.0561
  911SOL    HW112592   3.769   5.022   0.738 -1.5274  1.1086  0.8187
  911SOL    HW212593   3.893   4.946   0.814 -0.5454  0.1153 -1.7287
  912SOL     OW12594   4.866   4.220   1.299 -0.7132 -0.0010 -0.0769
  912SOL    HW112595   4.854   4.318   1.282 -0.5798 -0.4027 -2.7698
  912SOL    HW212596   4.948   4.205   1.354  1.2613  1.2407 -2.5733
  913SOL     OW12597   2.707   3.976   2.682  0.1387 -0.1905 -0.1102
  913SOL    HW112598   2.735   3.901   2.622 -1.3893 -0.4664 -0.4953
  913SOL    HW212599   2.760   3.971   2.767  1.4318 -0.5307 -0.9134
  914SOL     OW12600   2.371   2.968   2.329 -0.1602  0.1162 -0.7037
  914SOL    HW112601   2.299   2.906   2.361  0.3287  0.7423  1.7647
  914SOL    HW212602   2.449   2.914   2.298 -1.4170 -0.5578 -2.7838
  915SOL     OW12603   1.844   4.185   2.654  0.0748  0.8056 -0.2189
  915SOL    HW112604   1.817   4.190   2.750  0.2409  0.3569 -0.1465
  915SOL    HW212605   1.936   4.223   2.643 -0.6278  2.4565 -0.4864
  916SOL     OW12606   2.045   7.906   0.586 -0.7527 -0.4309  0.2898
  916SOL    HW112607   2.076   7.873   0.676  0.3941 -0.6248 -0.1593
  916SOL    HW212608   2.034   8.005   0.589 -1.0986 -0.4816  0.7548
  917SOL     OW12609   3.320   7.703   2.837 -1.0580  0.7575 -0.4051
  917SOL    HW112610   3.336   7.713   2.739 -1.0549  0.7599 -0.4042
  917SOL    HW212611   3.268   7.782   2.870 -3.2279 -0.4244 -0.8690
  918SOL     OW12612   2.892   6.211   1.031  0.0105  0.0326 -0.1398
  918SOL    HW112613   2.842   6.246   0.952  3.1043  2.5680 -1.1027
  918SOL    HW212614   2.876   6.113   1.039 -1.5679 -0.0170 -3.0211
  919SOL     OW12615   2.928   4.637   0.894 -0.0145 -0.6813  0.2592
  919SOL    HW112616   2.933   4.624   0.795 -0.2364 -1.1792  0.3118
  919SOL    HW212617   2.905   4.550   0.938  0.4974 -0.5572  0.7834
  920SOL     OW12618   1.623   5.090   2.825 -0.3112 -0.1775 -0.7610
  920SOL    HW112619   1.621   5.190   2.828 -2.4402 -0.2214 -0.3413
  920SOL    HW212620   1.676   5.056   2.904  2.1378  0.6336 -2.0011
  921SOL     OW12621   2.569   8.718   1.644  0.4740  0.0204  0.2946
  921SOL    HW112622   2.647   8.746   1.588  1.1415 -0.4936  0.9556
  921SOL    HW212623   2.600   8.699   1.737 -0.4387 -0.2130  0.5596
  922SOL     OW12624   2.438   5.108   1.440  0.1977  0.5926 -0.3485
  922SOL    HW112625   2.535   5.131   1.434 -0.0731  1.3817 -1.9359
  922SOL    HW212626   2.428   5.020   1.487  1.6835  0.4501 -0.2694
  923SOL     OW12627   2.017   3.346   2.275 -0.6409  0.5390  0.1199
  923SOL    HW112628   2.019   3.430   2.328 -0.9034  1.2812 -1.0152
  923SOL    HW212629   2.105   3.299   2.283 -1.0190  0.1371  1.9776
  924SOL     OW12630   2.528   6.918   1.424 -0.0535  0.1089 -0.3801
  924SOL    HW112631   2.568   6.934   1.334 -0.2568 -4.2201 -1.3539
  924SOL    HW212632   2.599   6.893   1.489 -0.0869  1.8167  0.3396
  925SOL     OW12633   3.301   0.135   1.352 -0.0233 -0.4625 -0.0221
  925SOL    HW112634   3.355   0.189   1.288  0.6673 -1.9458 -0.7067
  925SOL    HW212635   3.231   0.085   1.303 -0.8635  0.0438  0.6497
  926SOL     OW12636   2.910   6.004   1.852 -0.1441 -0.2139  0.0388
  926SOL    HW112637   2.818   6.014   1.813  0.0179  1.3149  0.0250
  926SOL    HW212638   2.903   5.962   1.943 -0.8471 -0.1823  0.0033
  927SOL     OW12639   5.144   3.635   1.680  0.1956 -0.1290  0.2978
  927SOL    HW112640   5.217   3.599   1.738 -0.5657 -2.9455 -0.4597
  927SOL    HW212641   5.169   3.625   1.584 -1.2443 -1.2315  0.0277
  928SOL     OW12642   2.944   6.333   1.922 -0.9245 -0.1916 -0.0717
  928SOL    HW112643   2.951   6.410   1.859  1.2113 -2.0460 -2.1959
  928SOL    HW212644   2.946   6.247   1.870 -1.2808 -1.7298  2.3753
  929SOL     OW12645   3.641   4.807   2.147 -0.2145 -0.2000  0.2447
  929SOL    HW112646   3.569   4.870   2.118 -2.0416 -3.1485 -1.9802
  929SOL    HW212647   3.678   4.836   2.235 -3.5039  1.9273  0.9955
  930SOL     OW12648   4.260   3.960   2.228 -0.2710  0.1577  0.2996
  930SOL    HW112649   4.196   4.034   2.249  0.4729  1.3799 -1.5185
  930SOL    HW212650   4.214   3.872   2.233 -2.0039  0.9950 -0.6573
  931SOL     OW12651   3.839   9.418   1.912 -0.4299  0.6446  0.4440
  931SOL    HW112652   3.915   9.417   1.977  0.5151  0.5873 -0.6624
  931SOL    HW212653   3.766   9.359   1.947  0.9255 -1.0662  0.4567
  932SOL     OW12654   4.742   1.416   0.540 -0.6003 -0.1310 -0.3498
  932SOL    HW112655   4.838   1.386   0.537 -0.4984  0.2949 -1.5312
  932SOL    HW212656   4.685   1.340   0.569  0.0303 -0.5435 -0.1676
  933SOL     OW12657   1.878   6.753   1.438  0.3992 -0.3015 -0.0781
  933SOL    HW112658   1.807   6.736   1.506  1.9470 -0.9623  1.4226
  933SOL    HW212659   1.842   6.734   1.346 -0.8177 -2.4140  0.7933
  934SOL     OW12660   2.846   2.612   0.591  0.6674  0.3596  0.5812
  934SOL    HW112661   2.809   2.561   0.514 -0.2330 -0.5954  1.6232
  934SOL    HW212662   2.879   2.548   0.661  0.6396  1.2013  1.3837
  935SOL     OW12663   1.985   5.000   1.695 -0.1063  0.8816 -0.4252
  935SOL    HW112664   1.911   4.967   1.637 -1.1631  0.9874  0.8478
  935SOL    HW212665   1.999   4.936   1.771 -0.2332  1.8907  0.4576
  936SOL     OW12666   2.237   0.127   2.229  0.5233 -0.6710 -0.6734
  936SOL    HW112667   2.275   0.075   2.153  1.9556  1.4399 -1.4517
  936SOL    HW212668   2.299   0.121   2.308 -0.2232 -1.6382 -0.1533
  937SOL     OW12669   3.415   8.126   1.924 -0.0815  0.8329 -0.4144
  937SOL    HW112670   3.334   8.105   1.979 -0.5512  1.1476 -0.9694
  937SOL    HW212671   3.419   8.224   1.906  1.7749  1.1685  1.6562
  938SOL     OW12672   2.854   8.056   0.123  0.8288 -0.4210 -0.1424
  938SOL    HW112673   2.883   8.114   0.046 -2.0988  2.4653  0.8112
  938SOL    HW212674   2.902   8.086   0.206  1.0528 -0.9388 -0.0829
  939SOL     OW12675   2.137   1.837   1.801  0.2880 -0.2203 -0.2273
  939SOL    HW112676   2.062   1.882   1.753 -0.1453 -0.5730  0.1215
  939SOL    HW212677   2.119   1.840   1.900  0.8503 -0.0884 -0.1281
  940SOL     OW12678   2.531   9.167   2.376  0.0870 -0.2741  0.5299
  940SOL    HW112679   2.568   9.195   2.465 -1.0217 -1.4807  1.3822
  940SOL    HW212680   2.596   9.105   2.331  0.8206  0.6366  0.3221
  941SOL     OW12681   2.813   4.115   2.061 -0.3875  0.5247 -0.4099
  941SOL    HW112682   2.908   4.117   2.094  0.0234  0.0681 -1.5368
  941SOL    HW212683   2.789   4.021   2.036 -1.1739  0.6249 -0.0472
  942SOL     OW12684   2.915   6.500   1.685 -0.6099 -0.3981  0.0263
  942SOL    HW112685   2.818   6.522   1.690 -1.0125 -1.2073 -3.2465
  942SOL    HW212686   2.969   6.583   1.695 -1.6233  0.1200  1.3284
  943SOL     OW12687   2.412   7.667   0.107  0.6683  0.6661 -0.2909
  943SOL    HW112688   2.427   7.696   0.201 -1.3900  0.4385  0.1420
  943SOL    HW212689   2.379   7.572   0.107 -0.3009  0.9894 -1.1538
  944SOL     OW12690   2.406   8.900   1.120 -0.3105 -0.3824  0.1002
  944SOL    HW112691   2.428   8.818   1.173  1.0381  0.0683  0.2587
  944SOL    HW212692   2.384   8.873   1.026 -1.3217 -1.0512  0.5193
  945SOL     OW12693   4.004   2.143   2.009  0.5708 -0.1388  0.6161
  945SOL    HW112694   3.913   2.183   2.012  0.6342  0.0925 -0.4585
  945SOL    HW212695   4.004   2.056   2.059 -0.4760 -0.6311 -0.2259
  946SOL     OW12696   3.449   5.579   0.378 -0.1759 -0.2074 -0.0773
  946SOL    HW112697   3.411   5.646   0.441 -0.2618 -0.2238 -0.1118
  946SOL    HW212698   3.503   5.626   0.308 -0.7425 -0.1303 -0.4589
  947SOL     OW12699   3.016   5.118   0.982  0.6370  0.1291  0.0832
  947SOL    HW112700   3.013   5.023   0.952  2.0798  1.9577 -6.8166
  947SOL    HW212701   3.109   5.142   1.009  0.8390  0.1579 -0.6174
  948SOL     OW12702   2.538   7.242   1.891  0.0472  0.2278 -0.1205
  948SOL    HW112703   2.442   7.218   1.902 -0.5053  1.0283 -2.7825
  948SOL    HW212704   2.595   7.181   1.946 -1.9047 -0.8471  0.7489
  949SOL     OW12705   3.332   0.443   1.727  0.4090  0.0745  0.4924
  949SOL    HW112706   3.281   0.358   1.740 -0.1499  0.4468  0.7774
  949SOL    HW212707   3.430   0.423   1.721  0.2357 -0.6474 -0.0222
  950SOL     OW12708   2.740   6.955   1.635 -0.1566 -0.3820 -0.0108
  950SOL    HW112709   2.743   7.052   1.610  0.7567 -0.5970 -0.7673
  950SOL    HW212710   2.690   6.945   1.721  0.3379  0.8329  0.4401
  951SOL     OW12711   2.878   2.661   1.210 -0.0418 -0.2039 -0.0097
  951SOL    HW112712   2.851   2.617   1.296 -0.0763  1.7379  0.9990
  951SOL    HW212713   2.930   2.745   1.230 -1.6422  1.2777 -1.8682
  952SOL     OW12714   2.304   1.116   2.773 -0.0547  0.0423  0.4369
  952SOL    HW112715   2.312   1.129   2.674  0.0763 -1.6930  0.2060
  952SOL    HW212716   2.320   1.203   2.819  2.1152  0.4404 -0.9678
  953SOL     OW12717   2.606   0.522   0.708  0.6652 -0.1170  0.1713
  953SOL    HW112718   2.667   0.444   0.694 -0.0077 -0.6784  0.3264
  953SOL    HW212719   2.595   0.537   0.806 -1.1928 -1.4177  0.1847
  954SOL     OW12720   9.399   2.258   0.584  0.1853  0.0615  0.3175
  954SOL    HW112721   9.332   2.185   0.593  0.2584  0.1091  1.2535
  954SOL    HW212722   9.359   2.333   0.529 -0.1064 -0.4054 -0.1124
  955SOL     OW12723   1.738   3.927   0.131 -0.1088  0.1470 -0.6759
  955SOL    HW112724   1.674   3.965   0.064 -0.2943  1.8114  0.4219
  955SOL    HW212725   1.793   4.001   0.171 -1.5403 -0.4557  2.6110
  956SOL     OW12726   3.222   1.419   0.139  0.3875 -0.0295 -0.5164
  956SOL    HW112727   3.212   1.508   0.093 -3.1736  0.4106  1.0126
  956SOL    HW212728   3.296   1.425   0.206 -0.3900  2.1008  0.2119
  957SOL     OW12729   2.305   6.102   0.815  0.3044  0.2669 -0.0773
  957SOL    HW112730   2.260   6.191   0.819 -1.6060 -0.6814  0.0087
  957SOL    HW212731   2.371   6.102   0.740 -0.4937  1.3857 -0.8048
  958SOL     OW12732   2.066   5.664   1.503  0.4164 -0.0910 -0.4518
  958SOL    HW112733   2.021   5.741   1.457 -1.9523 -1.0524  0.1693
  958SOL    HW212734   2.073   5.683   1.601  2.1806  0.4208 -0.6692
  959SOL     OW12735   3.554   1.272   2.640 -0.1627 -0.0137 -0.2118
  959SOL    HW112736   3.456   1.255   2.645  0.1001 -1.5657 -0.2546
  959SOL    HW212737   3.570   1.369   2.620 -1.6822  0.1804 -0.5161
  960SOL     OW12738   4.605   4.451   2.770  0.1649  0.5877 -0.3593
  960SOL    HW112739   4.568   4.515   2.704  0.8350  1.4027  0.0345
  960SOL    HW212740   4.674   4.498   2.826  0.5492 -0.4348  0.0354
  961SOL     OW12741   2.444   1.458   1.049  0.1709 -0.3162 -0.0691
  961SOL    HW112742   2.350   1.423   1.060  0.6007 -1.6957 -0.7174
  961SOL    HW212743   2.451   1.505   0.961 -0.7220  2.4899  1.3008
  962SOL     OW12744   2.494   3.554   0.244 -0.5050  0.1728 -0.8975
  962SOL    HW112745   2.580   3.562   0.295 -1.7214 -1.3035  1.4699
  962SOL    HW212746   2.465   3.645   0.215  1.7866  0.7074 -1.6627
  963SOL     OW12747   3.977   4.954   1.464 -0.3515  0.1938  0.1157
  963SOL    HW112748   3.950   4.968   1.559 -1.0840 -2.1218  0.2761
  963SOL    HW212749   3.932   4.873   1.428  2.7028 -1.0417 -1.1031
  964SOL     OW12750   4.680   3.336   0.127 -0.6091 -0.6875 -0.2890
  964SOL    HW112751   4.731   3.263   0.172 -1.6784 -1.3833 -0.1852
  964SOL    HW212752   4.586   3.305   0.109 -0.2385 -0.4044 -2.9268
  965SOL     OW12753   4.261   3.891   0.036 -0.1984  0.8163  0.1194
  965SOL    HW112754   4.251   3.849  -0.054  1.0933 -0.2083  0.4245
  965SOL    HW212755   4.195   3.965   0.046 -0.7130  0.5999 -1.4631
  966SOL     OW12756   3.765   0.344   2.400  0.0745  0.1121  0.7378
  966SOL    HW112757   3.741   0.429   2.445 -1.6144 -0.5095  1.0434
  966SOL    HW212758   3.847   0.357   2.344 -1.3592  2.4766 -0.8700
  967SOL     OW12759   3.872   2.346   1.795 -0.0063 -0.1858  0.2853
  967SOL    HW112760   3.774   2.331   1.778  0.0768 -1.4277  0.8825
  967SOL    HW212761   3.923   2.328   1.711 -0.3452  1.0045 -0.1789
  968SOL     OW12762   2.663   3.259   2.690 -0.2917  0.4733 -0.0842
  968SOL    HW112763   2.611   3.201   2.627  0.9337  0.3104 -0.9665
  968SOL    HW212764   2.702   3.203   2.763 -1.9936  0.7102  1.0348
  969SOL     OW12765   4.503   3.843   0.890  0.1955  0.7225  0.7563
  969SOL    HW112766   4.443   3.765   0.909 -0.6639  1.2489  0.2734
  969SOL    HW212767   4.452   3.911   0.837  1.7075  0.4981 -1.0299
  970SOL     OW12768   4.587   2.895   0.616  0.2844  0.8476 -0.2134
  970SOL    HW112769   4.540   2.853   0.538 -1.3514  3.2412 -0.5896
  970SOL    HW212770   4.569   2.993   0.616  4.1336  1.6342  0.5357
  971SOL     OW12771   2.091   7.319   0.178  0.5935  0.2428  0.2656
  971SOL    HW112772   2.023   7.260   0.219  1.8776 -0.0601  2.0024
  971SOL    HW212773   2.126   7.277   0.094  0.3107 -0.6878  0.6161
  972SOL     OW12774   4.159   1.139   1.084 -0.3261 -0.1142 -0.1074
  972SOL    HW112775   4.163   1.175   1.177 -0.1216 -1.8261  0.5625
  972SOL    HW212776   4.099   1.059   1.082 -0.8060  0.2644 -1.5845
  973SOL     OW12777   2.911   8.516   1.917  0.4167  0.0440  0.0765
  973SOL    HW112778   2.941   8.423   1.897  2.2097  0.9085 -1.4014
  973SOL    HW212779   2.964   8.551   1.994 -0.3655 -0.1998  0.7314
  974SOL     OW12780   2.130   6.855   1.517 -0.3587  0.6236  1.3090
  974SOL    HW112781   2.034   6.844   1.489 -0.5044 -0.4457  2.2252
  974SOL    HW212782   2.170   6.765   1.535  1.2537  0.9411 -0.4713
  975SOL     OW12783   2.257   2.034   0.889  0.5483  0.2976 -0.0218
  975SOL    HW112784   2.278   1.940   0.861 -1.6697  0.1289 -1.2466
  975SOL    HW212785   2.314   2.098   0.839 -0.5010 -0.2295 -1.9418
  976SOL     OW12786   3.233   4.782   2.321 -0.2636  0.6127  0.1552
  976SOL    HW112787   3.305   4.745   2.379  1.2635  2.9883 -0.1766
  976SOL    HW212788   3.144   4.767   2.365  0.8434  2.2453  3.0629
  977SOL     OW12789   4.724   2.735   1.826  0.1625 -0.4674 -0.0754
  977SOL    HW112790   4.681   2.778   1.905  0.6164  1.6827 -0.9549
  977SOL    HW212791   4.655   2.713   1.758 -0.2493 -2.4634  0.9428
  978SOL     OW12792   2.875   2.451   2.535  0.2467  0.2149  0.1188
  978SOL    HW112793   2.786   2.491   2.556 -0.1885 -0.3423 -0.6407
  978SOL    HW212794   2.924   2.509   2.470 -0.4294 -0.5206 -1.0680
  979SOL     OW12795   4.308   0.141   1.488 -0.4249 -1.0583  0.3550
  979SOL    HW112796   4.218   0.099   1.477 -0.4704 -1.1533  1.0979
  979SOL    HW212797   4.378   0.080   1.450 -0.7464 -0.6218 -0.9584
  980SOL     OW12798   3.143   4.331   1.296  0.0107 -0.4742  0.3113
  980SOL    HW112799   3.191   4.282   1.369 -0.4542 -0.0699  0.8891
  980SOL    HW212800   3.045   4.326   1.312 -0.0265  0.8657  0.4971
  981SOL     OW12801   3.083   2.470   2.754 -0.7528  0.6188  0.6604
  981SOL    HW112802   3.051   2.491   2.662 -1.5335  0.6767  0.9435
  981SOL    HW212803   3.014   2.498   2.821  0.4900  2.1405  1.3731
  982SOL     OW12804   2.858   2.973   2.652 -0.6394  0.2465 -0.0119
  982SOL    HW112805   2.771   3.015   2.627 -0.2735 -0.2379 -2.1893
  982SOL    HW212806   2.896   2.925   2.573  0.1505 -2.1049  1.7336
  983SOL     OW12807   2.302   9.818   1.604  0.0980  0.3084 -0.2617
  983SOL    HW112808   2.266   9.905   1.568  0.3242  1.4315  2.1598
  983SOL    HW212809   2.399   9.829   1.624  0.4577 -0.9592 -1.2590
  984SOL     OW12810   4.133   8.780   2.589 -0.3660  0.4167 -0.2992
  984SOL    HW112811   4.086   8.706   2.638  0.2283  0.9970  1.1821
  984SOL    HW212812   4.170   8.846   2.655  2.1497  0.2049 -1.4296
  985SOL     OW12813   2.407   0.358   0.345  0.1076  0.3059 -0.3275
  985SOL    HW112814   2.377   0.263   0.339  0.0996  0.3241 -0.5929
  985SOL    HW212815   2.373   0.408   0.265 -0.8999  0.8197  0.4109
  986SOL     OW12816   4.761   2.887   0.872 -1.1128  0.3770  0.4213
  986SOL    HW112817   4.777   2.795   0.909 -0.9253  0.9552  1.8038
  986SOL    HW212818   4.707   2.880   0.788  2.1964 -1.2755 -1.6566
  987SOL     OW12819   3.455   2.401   0.218  0.3564 -0.0459  0.2557
  987SOL    HW112820   3.395   2.479   0.201  0.0487 -0.3797 -0.1709
  987SOL    HW212821   3.416   2.344   0.291  0.3412 -0.0610  0.2358
  988SOL     OW12822   2.600   2.629   2.417  0.5833  0.9492 -0.0355
  988SOL    HW112823   2.512   2.582   2.421  1.8816 -1.5304  0.7549
  988SOL    HW212824   2.634   2.643   2.510  2.4860 -1.0868 -0.3684
  989SOL     OW12825   2.876   8.288   0.594  0.8259  0.7639 -0.5890
  989SOL    HW112826   2.883   8.356   0.521 -0.9682  0.3116 -1.2314
  989SOL    HW212827   2.780   8.260   0.604  1.3017 -0.4614  0.7692
  990SOL     OW12828   3.979   9.008   0.195 -0.5740  0.3404 -0.6594
  990SOL    HW112829   4.009   8.914   0.181 -0.1934  0.1709  1.2131
  990SOL    HW212830   4.004   9.063   0.115  1.7899 -0.5230 -0.5549
  991SOL     OW12831   4.825   3.102   2.559 -0.7147 -0.0080  0.5487
  991SOL    HW112832   4.827   3.193   2.600  0.0293  0.3813 -0.3618
  991SOL    HW212833   4.732   3.065   2.565 -0.7990  0.3892  1.8265
  992SOL     OW12834   3.975   2.487   0.573  0.3474  0.2045 -0.3006
  992SOL    HW112835   4.062   2.535   0.571  1.1268 -1.0984  0.8987
  992SOL    HW212836   3.980   2.406   0.515 -1.1247  1.7677 -2.7196
  993SOL     OW12837   3.242   7.029   0.979  0.1190 -0.1694  0.1318
  993SOL    HW112838   3.285   7.115   0.951 -0.0496  0.4021  1.6201
  993SOL    HW212839   3.302   6.952   0.953  0.0699  0.3519 -1.5838
  994SOL     OW12840   3.506   2.983   2.180 -0.2517  0.0052  1.1746
  994SOL    HW112841   3.539   3.077   2.196 -0.7514  0.3942 -0.0144
  994SOL    HW212842   3.581   2.928   2.143 -0.5260  0.5097 -0.1608
  995SOL     OW12843   2.547   1.144   1.026  0.1466  0.1595  0.2523
  995SOL    HW112844   2.547   1.243   1.031  1.4492  0.3011 -1.8069
  995SOL    HW212845   2.492   1.114   0.947  0.3627 -0.7323  0.4269
  996SOL     OW12846   3.343   6.462   0.117  0.2524 -0.1004 -0.1131
  996SOL    HW112847   3.248   6.440   0.139 -0.6952  1.3940 -2.4688
  996SOL    HW212848   3.378   6.395   0.052 -0.1183  0.8861 -1.3554
  997SOL     OW12849   3.092   9.093   0.166  0.3624 -0.2324  0.4319
  997SOL    HW112850   2.992   9.090   0.167  0.3625 -0.2311  1.7407
  997SOL    HW212851   3.124   9.151   0.091 -0.6189 -0.2127  0.0293
  998SOL     OW12852   2.845   9.348   1.360 -0.3745 -0.0137 -0.2078
  998SOL    HW112853   2.848   9.424   1.426 -4.7881  1.2971 -1.3566
  998SOL    HW212854   2.770   9.287   1.384  0.2659 -1.5274 -1.9611
  999SOL     OW12855   1.938   7.507   0.516 -0.5239 -0.7758 -0.0262
  999SOL    HW112856   1.915   7.591   0.466  1.9398  0.2661  0.4919
  999SOL    HW212857   2.037   7.494   0.515 -0.6839 -2.4299  1.8764
 1000SOL     OW12858   4.772   2.492   0.326 -0.1294 -0.4704 -0.2911
 1000SOL    HW112859   4.747   2.395   0.317  0.0219 -0.7197  1.7496
 1000SOL    HW212860   4.795   2.529   0.236 -1.2442 -2.0428 -1.2354
 1001SOL     OW12861   4.394   3.609   1.568 -0.5284  0.0653 -0.6991
 1001SOL    HW112862   4.435   3.552   1.639  0.0936  1.1566 -0.1841
 1001SOL    HW212863   4.463   3.671   1.531 -1.0740  0.1202 -1.6380
 1002SOL     OW12864   3.258   5.204   1.700 -0.1093 -0.2430  0.4083
 1002SOL    HW112865   3.230   5.137   1.769 -0.6978  0.6060  1.0021
 1002SOL    HW212866   3.353   5.230   1.716 -0.4237  0.4015  1.2832
 1003SOL     OW12867   3.000   5.773   2.418 -0.1307  0.2143 -0.0275
 1003SOL    HW112868   3.096   5.744   2.415 -0.6567 -1.4708 -0.7509
 1003SOL    HW212869   2.956   5.731   2.498 -0.7696 -0.5964 -0.8045
 1004SOL     OW12870   2.924   0.125   0.398 -0.1999  0.2295 -0.3227
 1004SOL    HW112871   2.945   0.095   0.305  1.8524  0.1877  0.1318
 1004SOL    HW212872   2.874   0.054   0.446  1.5344 -1.0728 -0.3897
 1005SOL     OW12873   2.461   3.328   0.619 -0.0335  0.9864 -0.0813
 1005SOL    HW112874   2.475   3.277   0.703 -1.7012  0.2173 -0.2398
 1005SOL    HW212875   2.435   3.265   0.545 -0.4546  1.8611 -0.6951
 1006SOL     OW12876   2.506   8.474   1.051  0.0971 -0.2342 -0.1039
 1006SOL    HW112877   2.539   8.420   0.973  2.9364 -0.3448  1.1270
 1006SOL    HW212878   2.574   8.542   1.076 -2.1158  1.8560  0.3754
 1007SOL     OW12879   3.378   3.299   0.664 -0.7303  0.2173  0.0448
 1007SOL    HW112880   3.332   3.317   0.577  1.1480 -0.6072 -1.1682
 1007SOL    HW212881   3.443   3.374   0.683 -0.7334  0.1163  0.4561
 1008SOL     OW12882   2.514   8.696   1.256  0.0818  0.4892  0.9178
 1008SOL    HW112883   2.602   8.740   1.272 -0.1827  0.9038  1.2465
 1008SOL    HW212884   2.507   8.613   1.311  0.0923  0.6920  1.2277
 1009SOL     OW12885   2.578   0.784   2.104 -0.2736 -0.1833 -0.1283
 1009SOL    HW112886   2.665   0.817   2.066 -0.9168 -0.8803 -2.2856
 1009SOL    HW212887   2.514   0.861   2.111  0.2710  0.1949  0.7940
 1010SOL     OW12888   2.545   1.006   2.739 -0.1877  0.5471  0.0713
 1010SOL    HW112889   2.455   1.041   2.766 -0.7841 -0.6998 -0.3010
 1010SOL    HW212890   2.576   1.055   2.658 -0.0749  1.6675  0.7658
 1011SOL     OW12891   2.663   0.197   1.136 -0.0403 -0.1540 -0.4341
 1011SOL    HW112892   2.591   0.265   1.127 -0.3504 -0.3896  0.2884
 1011SOL    HW212893   2.632   0.110   1.098 -0.0146 -0.1644 -0.4314
 1012SOL     OW12894   5.095   1.586   1.261  0.1450  0.3049 -0.5522
 1012SOL    HW112895   5.105   1.681   1.230 -1.2815  0.8860  0.6882
 1012SOL    HW212896   4.999   1.559   1.255  0.6793 -1.3796 -1.7542
 1013SOL     OW12897   5.017   3.764   1.903  0.4936  0.1367 -0.1655
 1013SOL    HW112898   4.937   3.823   1.890 -0.6822 -1.4095 -0.0618
 1013SOL    HW212899   5.079   3.776   1.826 -0.9750 -0.4099 -1.4672
 1014SOL     OW12900   2.336   8.230   0.065  0.0676 -0.2054 -0.7649
 1014SOL    HW112901   2.384   8.220   0.152 -0.6379  1.7001 -0.1460
 1014SOL    HW212902   2.243   8.194   0.075  0.2049 -0.6163 -0.9401
 1015SOL     OW12903   2.241   3.014   0.632 -0.5477 -0.0209  0.3267
 1015SOL    HW112904   2.177   3.062   0.693  0.3977  2.2074 -0.3733
 1015SOL    HW212905   2.230   2.916   0.643 -2.4395  0.3368  1.9504
 1016SOL     OW12906   6.767   9.535   1.154  0.1245  0.8489  0.0068
 1016SOL    HW112907   6.724   9.487   1.078 -1.1363 -0.3418  1.4473
 1016SOL    HW212908   6.839   9.478   1.193  0.8200  1.4874 -0.3374
 1017SOL     OW12909   4.272   3.962   1.448  0.4045  0.2037  0.0991
 1017SOL    HW112910   4.253   3.906   1.528 -2.4337 -0.8452 -1.2482
 1017SOL    HW212911   4.302   4.053   1.477 -0.7208 -0.1248  2.3758
 1018SOL     OW12912   4.343   4.679   1.628  0.1749 -0.6629  0.4399
 1018SOL    HW112913   4.363   4.644   1.720  1.3754 -2.3664 -0.4378
 1018SOL    HW212914   4.294   4.766   1.635  0.3038 -0.7456  2.6850
 1019SOL     OW12915   3.350   3.256   2.314 -0.3985  0.0790 -0.0160
 1019SOL    HW112916   3.304   3.194   2.251  0.3308  0.9445 -1.4186
 1019SOL    HW212917   3.336   3.350   2.285  1.9414  0.3829 -0.2833
 1020SOL     OW12918   3.129   0.062   0.985 -0.1163 -0.0303  0.5549
 1020SOL    HW112919   3.129  -0.010   0.915  1.3505 -0.6021  1.1305
 1020SOL    HW212920   3.211   0.118   0.976 -0.5369  0.6708  1.0331
 1021SOL     OW12921   2.511   4.109   1.032 -0.0115 -0.0826 -0.0910
 1021SOL    HW112922   2.436   4.051   1.001  0.7079 -1.5539  0.9115
 1021SOL    HW212923   2.474   4.198   1.061 -1.0298  0.2521 -2.2777
 1022SOL     OW12924   3.832   2.787   1.263  0.9575 -0.2347  0.2790
 1022SOL    HW112925   3.793   2.769   1.353 -1.1296 -1.5036 -0.8220
 1022SOL    HW212926   3.818   2.707   1.204 -1.1479  1.8923 -2.2785
 1023SOL     OW12927   2.758   4.795   2.353  0.0436  0.2693  0.1263
 1023SOL    HW112928   2.687   4.732   2.320 -1.2493  1.5147  0.4620
 1023SOL    HW212929   2.759   4.877   2.295 -0.3776  1.2648  1.5017
 1024SOL     OW12930   4.256   3.006   1.859 -0.1753 -0.1123 -0.5290
 1024SOL    HW112931   4.271   3.066   1.938 -1.6604 -0.1725 -0.1881
 1024SOL    HW212932   4.341   2.998   1.807  0.1033  2.1849 -0.5038
 1025SOL     OW12933   2.604   6.353   1.808 -0.2295  0.3237 -0.0085
 1025SOL    HW112934   2.628   6.440   1.765 -0.0627  0.0403 -0.4864
 1025SOL    HW212935   2.505   6.342   1.810 -0.2055 -0.1067 -1.1906
 1026SOL     OW12936   3.896   2.945   2.564  0.5656  0.5462  0.3581
 1026SOL    HW112937   3.977   2.967   2.619  1.8778 -1.9700 -0.4708
 1026SOL    HW212938   3.925   2.931   2.469 -0.9733  0.2984 -0.0740
 1027SOL     OW12939   2.746   1.658   0.234 -0.3526  0.8770  0.1705
 1027SOL    HW112940   2.681   1.608   0.290 -0.3264 -0.1297 -0.6742
 1027SOL    HW212941   2.730   1.637   0.137  2.0043 -0.3673  0.0186
 1028SOL     OW12942   2.112   3.739   0.381 -1.1292  0.3790 -0.5315
 1028SOL    HW112943   2.184   3.675   0.407 -0.9859  0.5047 -0.6192
 1028SOL    HW212944   2.049   3.693   0.318  0.7423  1.2641 -3.1349
 1029SOL     OW12945   4.268   9.345   0.277 -0.3370 -0.0345  0.5483
 1029SOL    HW112946   4.291   9.441   0.291  0.7257 -0.2934  0.6514
 1029SOL    HW212947   4.194   9.337   0.211  0.2103  0.8122 -0.1736
 1030SOL     OW12948   2.800   5.341   0.599  0.0683 -0.2545 -0.3746
 1030SOL    HW112949   2.822   5.270   0.532  0.6385 -0.4898  0.0574
 1030SOL    HW212950   2.812   5.305   0.691  0.9215  0.5658 -0.1510
 1031SOL     OW12951   2.588   6.080   2.235  0.0623  0.2799  0.4493
 1031SOL    HW112952   2.585   6.006   2.169  0.9538  0.4530  0.1985
 1031SOL    HW212953   2.671   6.071   2.291  0.6833  1.6157 -0.2227
 1032SOL     OW12954   4.218   3.817   1.942 -0.2944  0.2382 -0.4335
 1032SOL    HW112955   4.134   3.854   1.982 -0.3092 -0.5740  0.2935
 1032SOL    HW212956   4.297   3.866   1.981 -0.2996 -0.6397  0.7190
 1033SOL     OW12957   3.425   7.807   1.387 -0.4554 -0.1843  0.2628
 1033SOL    HW112958   3.343   7.837   1.338  0.6832  0.0245 -1.5496
 1033SOL    HW212959   3.410   7.818   1.485 -2.9761 -1.0777  0.0362
 1034SOL     OW12960   3.273   5.023   1.507  0.5204 -0.2645  0.1809
 1034SOL    HW112961   3.247   5.094   1.573 -1.4312 -2.3327  1.7356
 1034SOL    HW212962   3.200   5.014   1.439  1.3470  0.0932 -0.7477
 1035SOL     OW12963   4.133   4.311   0.382  0.8250  0.0068  0.3269
 1035SOL    HW112964   4.092   4.304   0.472  1.6381 -0.4984  0.6667
 1035SOL    HW212965   4.207   4.244   0.373  0.4699 -0.2529 -0.8659
 1036SOL     OW12966   2.425   2.072   2.356 -0.1827 -1.1009 -0.5022
 1036SOL    HW112967   2.486   2.131   2.410 -0.7741  0.0420 -1.0565
 1036SOL    HW212968   2.405   1.989   2.408 -2.3834  0.8607  1.9402
 1037SOL     OW12969   4.340   4.863   0.617 -0.2289  0.6099 -0.0404
 1037SOL    HW112970   4.427   4.813   0.618 -0.6142 -0.1282  2.7813
 1037SOL    HW212971   4.353   4.952   0.660 -1.2344 -0.2697  2.1684
 1038SOL     OW12972   3.010   9.443   0.235 -1.0310 -0.5524  0.1783
 1038SOL    HW112973   2.929   9.496   0.263 -1.8503 -1.6608 -0.0567
 1038SOL    HW212974   3.021   9.365   0.297  0.4985  0.1718  0.8652
 1039SOL     OW12975   3.192   4.719   0.662  0.3327 -0.2314  0.3835
 1039SOL    HW112976   3.284   4.708   0.698  0.8614  1.8905 -0.2871
 1039SOL    HW212977   3.167   4.637   0.610  2.8166  0.1890 -1.5376
 1040SOL     OW12978   2.265   8.385   1.160 -0.0276 -0.4971  0.4463
 1040SOL    HW112979   2.189   8.435   1.119 -1.0312 -1.3794  1.1953
 1040SOL    HW212980   2.351   8.418   1.122 -0.5851  2.5086  1.6516
 1041SOL     OW12981   2.758   9.913   0.470 -0.2128  0.0460 -0.4324
 1041SOL    HW112982   2.671   9.908   0.421 -1.2025  2.8492  0.9549
 1041SOL    HW212983   2.756   9.852   0.549 -0.9996  0.2900 -0.2645
 1042SOL     OW12984   3.592   0.639   1.330 -0.4395  0.2446  0.4509
 1042SOL    HW112985   3.516   0.586   1.368  0.3962 -0.8319  0.6479
 1042SOL    HW212986   3.600   0.620   1.232  1.9231 -2.6012  1.1328
 1043SOL     OW12987   3.404   0.975   2.810  0.2643 -0.5522  0.2195
 1043SOL    HW112988   3.432   1.053   2.867 -1.2590 -0.4671  0.8863
 1043SOL    HW212989   3.334   1.005   2.746  1.3639 -0.8530 -1.1389
 1044SOL     OW12990   3.918   1.886   2.411 -0.3051  0.0202 -0.2592
 1044SOL    HW112991   3.922   1.792   2.444  0.3072  0.2330  0.2816
 1044SOL    HW212992   3.838   1.932   2.451 -0.1091 -0.0088  0.1662
 1045SOL     OW12993   3.272   0.725   2.555  0.5804 -0.2141  0.3801
 1045SOL    HW112994   3.367   0.755   2.554  0.7252 -0.5710  2.2422
 1045SOL    HW212995   3.218   0.785   2.497  2.1480 -0.7625 -1.6883
 1046SOL     OW12996   4.603   2.642   2.839 -0.2510 -0.0975  0.5267
 1046SOL    HW112997   4.697   2.644   2.873  0.4829 -0.1155 -1.4616
 1046SOL    HW212998   4.578   2.548   2.816  0.9489  0.4599 -3.4586
 1047SOL     OW12999   4.494   2.949   1.716  0.2935 -0.3954  0.4604
 1047SOL    HW113000   4.475   2.864   1.667 -0.5207  0.8028 -1.3770
 1047SOL    HW213001   4.553   3.007   1.660 -1.1958  1.2867  0.5884
 1048SOL     OW13002   1.992   3.304   0.105 -0.1693 -0.5560  0.6443
 1048SOL    HW113003   1.964   3.240   0.177  0.9373  0.6895  2.2364
 1048SOL    HW213004   2.092   3.305   0.100 -0.0946  2.3031  1.8563
 1049SOL     OW13005   1.794   1.929   0.115  0.0739 -0.6918 -0.1952
 1049SOL    HW113006   1.823   1.881   0.198 -0.4874  0.1375  0.4854
 1049SOL    HW213007   1.854   2.007   0.100  0.9779 -1.5793 -1.2972
 1050SOL     OW13008   1.642   4.172   2.471 -0.5774 -0.7754 -0.2185
 1050SOL    HW113009   1.707   4.182   2.546 -1.1563 -0.6385  0.2702
 1050SOL    HW213010   1.559   4.223   2.492 -0.7668 -0.7878 -0.9273
 1051SOL     OW13011   2.603   2.982   0.375  0.1568  0.2708  0.2828
 1051SOL    HW113012   2.623   3.068   0.328 -0.7188  0.7639  0.7981
 1051SOL    HW213013   2.512   2.951   0.351  0.2675 -0.2411  0.5093
 1052SOL     OW13014   2.893   7.549   2.595  0.1011 -0.0668  0.0760
 1052SOL    HW113015   2.830   7.626   2.589 -0.2777 -0.1942  2.0775
 1052SOL    HW213016   2.912   7.528   2.691  0.7611 -2.0158 -0.4431
 1053SOL     OW13017   3.289   0.181   1.794  0.1741  0.4376 -1.5010
 1053SOL    HW113018   3.298   0.099   1.738 -2.1395 -0.2457 -0.9496
 1053SOL    HW213019   3.317   0.160   1.888  2.0908  1.0166 -1.9335
 1054SOL     OW13020   3.893   0.979   0.548 -0.1008 -0.4063  0.1375
 1054SOL    HW113021   3.812   1.000   0.602 -1.0995 -1.8797 -0.7440
 1054SOL    HW213022   3.900   0.880   0.536  2.5519 -0.3913  1.2986
 1055SOL     OW13023   2.324   2.593   1.881 -0.0940  0.0111 -0.4779
 1055SOL    HW113024   2.312   2.572   1.978  2.0540  0.1616 -0.1561
 1055SOL    HW213025   2.357   2.687   1.872  0.8420 -0.3820 -1.2651
 1056SOL     OW13026   2.665   6.070   1.766  0.5953  0.6087  0.5557
 1056SOL    HW113027   2.646   6.164   1.795 -1.3094  0.4420 -0.1025
 1056SOL    HW213028   2.613   6.049   1.683  1.3246 -0.8917  0.4609
 1057SOL     OW13029   2.159   5.382   2.764 -0.3440 -0.3464 -0.3386
 1057SOL    HW113030   2.246   5.432   2.763 -0.7366  0.4402 -4.0518
 1057SOL    HW213031   2.093   5.430   2.821  1.7773 -1.2670  3.0263
 1058SOL     OW13032   3.647   1.069   2.331  0.4993 -0.2566  0.5802
 1058SOL    HW113033   3.738   1.056   2.292  0.2396  0.1051 -0.1678
 1058SOL    HW213034   3.611   1.158   2.302 -0.4516 -0.7772  0.1193
 1059SOL     OW13035   2.945   3.401   0.257 -0.1130 -0.3207  0.3410
 1059SOL    HW113036   2.961   3.315   0.305 -1.5317  0.9879  3.3501
 1059SOL    HW213037   3.002   3.473   0.297 -1.1541  0.7596 -0.0622
 1060SOL     OW13038   2.619   2.458   1.293  0.0631 -0.3998  0.0976
 1060SOL    HW113039   2.717   2.463   1.311  0.1701 -1.0148 -0.3152
 1060SOL    HW213040   2.587   2.547   1.259  0.3210  0.0356  0.9898
 1061SOL     OW13041   4.054   2.787   1.861 -0.0121 -0.3907 -0.4733
 1061SOL    HW113042   4.107   2.872   1.868 -0.3762  0.0672 -2.8246
 1061SOL    HW213043   3.966   2.807   1.818 -1.5053 -1.4187  1.9780
 1062SOL     OW13044   4.545   0.836   0.946 -0.2633  0.0747 -0.6881
 1062SOL    HW113045   4.504   0.757   0.900  2.3072 -1.5532 -0.2989
 1062SOL    HW213046   4.556   0.911   0.881 -2.1533 -0.0914 -1.2191
 1063SOL     OW13047   4.147   9.642   0.334  0.3613  0.0370 -0.3597
 1063SOL    HW113048   4.048   9.639   0.320  0.5143  0.1844 -1.5711
 1063SOL    HW213049   4.169   9.615   0.428 -0.7219 -1.4198 -0.5157
 1064SOL     OW13050   3.100   3.268   0.820 -0.1775 -0.0813  0.2381
 1064SOL    HW113051   3.184   3.300   0.776 -0.8214  1.1895 -0.1110
 1064SOL    HW213052   3.025   3.268   0.753 -0.9732  1.0566  1.1097
 1065SOL     OW13053   3.484   3.967   0.756  0.1039 -0.3628 -0.0007
 1065SOL    HW113054   3.505   4.065   0.758 -1.2026 -0.0751  2.6821
 1065SOL    HW213055   3.450   3.941   0.666 -0.1898  1.8121 -0.5332
 1066SOL     OW13056   3.185   8.369   1.397 -0.0417  0.3720 -0.4412
 1066SOL    HW113057   3.277   8.380   1.436 -0.3583  1.1127  0.1143
 1066SOL    HW213058   3.182   8.286   1.342  1.2155  0.8013 -1.1894
 1067SOL     OW13059   3.097   7.466   2.786  0.1219 -0.1467  0.1825
 1067SOL    HW113060   3.161   7.470   2.710  0.9699  0.6582  0.9233
 1067SOL    HW213061   3.125   7.531   2.857  0.1119 -1.8235  1.7766
 1068SOL     OW13062   2.935   0.465   0.842  0.5338  0.7935  0.8900
 1068SOL    HW113063   2.889   0.423   0.764  1.6769 -1.3922  1.3780
 1068SOL    HW213064   2.873   0.468   0.920  0.0692  1.0888  0.5106
 1069SOL     OW13065   2.352   0.520   0.124  0.5159 -0.0581  0.4951
 1069SOL    HW113066   2.404   0.595   0.083 -0.6948 -0.2332 -1.3943
 1069SOL    HW213067   2.306   0.468   0.052 -2.7881  0.4574  2.1539
 1070SOL     OW13068   2.320   5.404   0.950 -0.6800 -0.1406  0.2665
 1070SOL    HW113069   2.381   5.405   0.871 -0.7898 -0.2477  0.1793
 1070SOL    HW213070   2.315   5.311   0.987 -1.7332 -0.3767 -0.4631
 1071SOL     OW13071   3.939   1.887   2.141 -0.3289 -0.6404  0.2029
 1071SOL    HW113072   4.032   1.889   2.106 -0.9015  3.5034 -1.2995
 1071SOL    HW213073   3.941   1.876   2.241  1.8962  1.7472  0.4674
 1072SOL     OW13074   2.410   8.947   2.013 -0.2096  0.1502  0.3078
 1072SOL    HW113075   2.384   8.994   2.098 -1.3876 -1.2172  0.7293
 1072SOL    HW213076   2.333   8.951   1.949  1.0328  2.0697 -1.1203
 1073SOL     OW13077   5.025   3.966   1.344  0.6163  0.2708  0.1230
 1073SOL    HW113078   4.950   3.997   1.286 -0.3850 -1.6707  0.3222
 1073SOL    HW213079   5.062   4.043   1.395 -0.5742  1.4439 -0.7477
 1074SOL     OW13080   3.451   7.628   0.534 -0.4787  0.1344 -0.4176
 1074SOL    HW113081   3.472   7.650   0.439 -0.7282  0.7110 -0.3430
 1074SOL    HW213082   3.449   7.529   0.546  1.7908  0.0577 -0.5121
 1075SOL     OW13083   3.105   5.545   2.704 -0.0762  0.6375 -0.4845
 1075SOL    HW113084   3.180   5.518   2.765 -0.1889 -0.2871 -0.7560
 1075SOL    HW213085   3.030   5.582   2.759  0.2605  0.8231 -0.1462
 1076SOL     OW13086   4.169   3.300   1.623  0.2267 -0.4763 -0.1717
 1076SOL    HW113087   4.248   3.286   1.683 -1.4264 -0.5827  2.0425
 1076SOL    HW213088   4.194   3.361   1.548  2.3153 -0.2745  0.6663
 1077SOL     OW13089   3.548   9.675   1.732  0.4987 -0.3959 -0.0520
 1077SOL    HW113090   3.523   9.758   1.682  0.6687 -0.6322 -0.5364
 1077SOL    HW213091   3.559   9.599   1.667 -1.3500 -1.2095  0.5478
 1078SOL     OW13092   2.907   3.746   1.128 -0.0383 -0.3378  0.1204
 1078SOL    HW113093   2.808   3.754   1.133  0.1057  2.3014 -0.4728
 1078SOL    HW213094   2.940   3.691   1.205 -1.7419  1.1433  1.9520
 1079SOL     OW13095   2.406   8.385   2.172 -0.0892 -0.0742  0.1298
 1079SOL    HW113096   2.367   8.472   2.205 -0.0156  0.1504 -0.3754
 1079SOL    HW213097   2.399   8.316   2.244  2.0601  0.9996  1.4333
 1080SOL     OW13098   2.287   3.982   0.923  1.0384 -0.0095 -0.3021
 1080SOL    HW113099   2.325   3.892   0.903  2.0872  0.6641 -1.3701
 1080SOL    HW213100   2.248   4.021   0.840 -0.7277 -0.0827  0.4701
 1081SOL     OW13101   3.924   9.018   0.973  0.4408 -0.1612 -0.3090
 1081SOL    HW113102   3.909   9.111   1.005 -1.9998 -0.6251 -0.0172
 1081SOL    HW213103   3.935   9.018   0.874 -1.7175  0.2202 -0.5647
 1082SOL     OW13104   3.445   0.417   0.769  0.1369  0.1752 -0.2201
 1082SOL    HW113105   3.427   0.499   0.715  1.2702 -1.0665 -2.5809
 1082SOL    HW213106   3.541   0.389   0.756 -0.0380 -1.1108  1.1107
 1083SOL     OW13107   2.765   5.962   2.419 -0.0987  0.2164  0.4790
 1083SOL    HW113108   2.851   5.999   2.382  0.4220 -1.3529  0.0681
 1083SOL    HW213109   2.733   5.888   2.360 -0.9165 -0.2425  1.4855
 1084SOL     OW13110   3.009   4.370   2.417 -0.0873 -0.0268  0.8194
 1084SOL    HW113111   2.925   4.345   2.369 -0.1765  0.1756  0.8697
 1084SOL    HW213112   3.012   4.322   2.505 -1.0136  1.3235  1.6125
 1085SOL     OW13113   2.559   0.109   2.002 -0.1381 -0.4463  0.2904
 1085SOL    HW113114   2.621   0.057   1.943  0.2910  0.5751 -0.1815
 1085SOL    HW213115   2.606   0.135   2.086 -0.8729 -2.2338  1.2559
 1086SOL     OW13116   3.596   3.743   2.532  0.3281  0.1247  0.2798
 1086SOL    HW113117   3.660   3.772   2.603  0.1497 -2.4986  1.5646
 1086SOL    HW213118   3.637   3.670   2.478 -1.0292 -0.5746  0.1841
 1087SOL     OW13119   2.395   1.423   2.556 -0.7261 -0.1567 -0.3758
 1087SOL    HW113120   2.394   1.330   2.519  1.9145 -0.4790  0.2725
 1087SOL    HW213121   2.412   1.420   2.655 -0.9769  1.0022 -0.2843
 1088SOL     OW13122   3.811   8.545   1.153 -0.2650 -0.3659 -0.1823
 1088SOL    HW113123   3.818   8.645   1.149 -0.4548 -0.3709 -0.7114
 1088SOL    HW213124   3.716   8.519   1.167 -0.1628 -0.4665  0.3458
 1089SOL     OW13125   3.558   9.517   2.118  0.3292  0.6779  1.0684
 1089SOL    HW113126   3.520   9.536   2.208 -0.1478 -0.9806  1.2374
 1089SOL    HW213127   3.483   9.516   2.051  0.7487  2.4300  0.5592
 1090SOL     OW13128   3.884   1.194   1.820 -0.1884 -0.2078 -0.2456
 1090SOL    HW113129   3.818   1.268   1.808  0.2910 -0.0335 -1.8981
 1090SOL    HW213130   3.845   1.124   1.879 -1.3183  0.5384 -0.0885
 1091SOL     OW13131   3.982   4.704   1.877 -0.1853  0.0357 -0.6783
 1091SOL    HW113132   3.985   4.618   1.826 -1.0465  0.2266 -1.0647
 1091SOL    HW213133   3.973   4.685   1.974  0.0197 -0.3193 -0.7290
 1092SOL     OW13134   2.984   8.550   1.367  0.2891 -0.7055  0.0655
 1092SOL    HW113135   3.059   8.485   1.364  1.3857  0.5117  0.5076
 1092SOL    HW213136   2.897   8.503   1.352  1.1871 -2.0477 -0.9765
 1093SOL     OW13137   3.708   3.263   2.434  0.2568  0.1284 -0.3566
 1093SOL    HW113138   3.637   3.230   2.497  2.2118 -0.2727  1.6807
 1093SOL    HW213139   3.782   3.196   2.429  1.1152  1.1331 -1.4593
 1094SOL     OW13140   4.181   2.365   2.011 -0.3471 -0.3601 -0.4069
 1094SOL    HW113141   4.104   2.311   1.976 -0.9702  0.1959  0.1026
 1094SOL    HW213142   4.231   2.311   2.079 -0.4047 -0.6382 -0.5812
 1095SOL     OW13143   2.472   1.087   0.226  0.7137 -0.0139 -0.2152
 1095SOL    HW113144   2.511   1.024   0.159  2.1973 -0.6364  1.2064
 1095SOL    HW213145   2.416   1.036   0.291 -1.3164  0.6818 -1.3581
 1096SOL     OW13146   2.385   7.228   0.436  0.0084 -0.5997  0.2907
 1096SOL    HW113147   2.345   7.235   0.528  0.9590 -1.8618  0.8149
 1096SOL    HW213148   2.327   7.277   0.371 -0.7648  0.1791  1.5336
 1097SOL     OW13149   3.678   3.375   0.511  0.0014 -0.1408  0.4582
 1097SOL    HW113150   3.718   3.309   0.576 -0.5164 -0.8575  0.0607
 1097SOL    HW213151   3.676   3.334   0.420  0.8475  0.9201 -0.0412
 1098SOL     OW13152   3.311   3.846   2.608 -0.2131 -0.1120  0.0805
 1098SOL    HW113153   3.244   3.886   2.670 -0.8268  0.4013 -0.8950
 1098SOL    HW213154   3.378   3.794   2.660 -2.0034 -1.5743  1.0028
 1099SOL     OW13155   3.910   2.971   0.979  0.5822  0.3021 -0.4385
 1099SOL    HW113156   3.886   2.897   0.916  0.1915 -1.7007  1.9980
 1099SOL    HW213157   4.009   2.972   0.994  0.6907  0.8602 -1.1166
 1100SOL     OW13158   2.533   4.224   2.809 -0.1031  0.0030  0.1529
 1100SOL    HW113159   2.632   4.230   2.802 -0.3074  0.8916 -2.3966
 1100SOL    HW213160   2.504   4.260   2.898  1.7623  0.6349  0.5362
 1101SOL     OW13161   1.900   2.308   1.499 -0.0090  0.0202  0.0283
 1101SOL    HW113162   1.847   2.372   1.444 -0.3112 -0.4453 -0.2307
 1101SOL    HW213163   1.933   2.233   1.441  1.8642  0.8712 -0.0392
 1102SOL     OW13164   1.776   1.928   1.069  0.0868 -0.4554 -0.0307
 1102SOL    HW113165   1.767   1.832   1.042 -2.6813 -0.5150  0.9573
 1102SOL    HW213166   1.777   1.985   0.986 -2.5175 -1.0532 -0.5169
 1103SOL     OW13167   4.267   0.616   2.005  0.5393 -0.1828 -0.1554
 1103SOL    HW113168   4.290   0.538   2.065  0.8416 -0.1184 -0.1850
 1103SOL    HW213169   4.260   0.584   1.911  0.5901 -0.1881 -0.1576
 1104SOL     OW13170   2.005   2.524   1.315 -0.2479  0.5067 -0.3573
 1104SOL    HW113171   2.040   2.618   1.315  1.5401 -0.1247  1.8747
 1104SOL    HW213172   2.074   2.462   1.352 -2.4707 -1.2774  0.9699
 1105SOL     OW13173   2.777   4.122   0.904  0.5151  0.1759  0.6368
 1105SOL    HW113174   2.693   4.135   0.956  0.2129 -1.1310  0.4856
 1105SOL    HW213175   2.823   4.039   0.935 -0.5373 -1.6080 -2.2992
 1106SOL     OW13176   2.064   8.165   0.659  0.5503  0.2085  0.4715
 1106SOL    HW113177   2.078   8.174   0.758  0.6572  1.8095  0.3225
 1106SOL    HW213178   2.084   8.252   0.614  1.0280 -0.6588 -1.0356
 1107SOL     OW13179   2.290   5.623   1.113  0.6996  0.2080 -0.4384
 1107SOL    HW113180   2.245   5.703   1.073 -0.0078  0.3715  0.6718
 1107SOL    HW213181   2.273   5.543   1.055  0.8253  0.7148 -1.1804
 1108SOL     OW13182   2.993   2.384   2.142  0.0964 -0.3830 -0.0838
 1108SOL    HW113183   2.898   2.357   2.128  0.1549 -0.2701 -0.7330
 1108SOL    HW213184   3.028   2.427   2.059  0.7742 -0.6021  0.0793
 1109SOL     OW13185   2.653   4.650   0.057  0.0069  0.4484 -0.1280
 1109SOL    HW113186   2.598   4.684  -0.019 -0.3020 -0.2488 -0.2272
 1109SOL    HW213187   2.750   4.670   0.041 -0.0466  0.2143 -0.7612
 1110SOL     OW13188   3.792   3.043   1.331  0.0875  0.2623 -0.1457
 1110SOL    HW113189   3.823   2.978   1.262  1.1408  1.3376 -0.7062
 1110SOL    HW213190   3.866   3.108   1.351 -1.0257  1.4223  0.2533
 1111SOL     OW13191   2.644   9.572   1.077  0.0410  0.0893  0.3633
 1111SOL    HW113192   2.734   9.536   1.053  0.1237  0.6889 -0.2400
 1111SOL    HW213193   2.577   9.497   1.076  0.1395 -0.0076 -1.2415
 1112SOL     OW13194   4.633   4.354   1.693  0.5155  0.2165  0.0767
 1112SOL    HW113195   4.604   4.393   1.605 -1.7024  2.6007  1.7839
 1112SOL    HW213196   4.699   4.281   1.677 -0.9795 -0.4059 -3.6384
 1113SOL     OW13197   4.239   4.988   1.538 -0.0097 -0.2932  1.2695
 1113SOL    HW113198   4.155   4.961   1.491  0.1778 -1.4807  1.5947
 1113SOL    HW213199   4.228   4.975   1.636  0.4952 -0.3126  1.3267
 1114SOL     OW13200   4.269   0.966   1.641 -0.8737  0.1272  0.3584
 1114SOL    HW113201   4.250   0.959   1.739 -2.5488  1.6071  0.1676
 1114SOL    HW213202   4.203   1.029   1.599 -1.0630 -1.5781 -1.9681
 1115SOL     OW13203   2.877   7.271   2.547  0.0559  0.0596 -0.1604
 1115SOL    HW113204   2.943   7.260   2.621  0.0641 -0.0695 -0.1865
 1115SOL    HW213205   2.871   7.368   2.522 -1.0654  0.2981  1.0228
 1116SOL     OW13206   2.594   3.897   0.788  0.5752  0.5586  0.1200
 1116SOL    HW113207   2.563   3.852   0.872  0.6338  0.9460  0.3460
 1116SOL    HW213208   2.694   3.892   0.782  0.8057  2.9752  1.4560
 1117SOL     OW13209   4.151   2.196   0.855 -0.4983  0.5425  0.7065
 1117SOL    HW113210   4.195   2.269   0.908 -0.6167  0.9115  0.3040
 1117SOL    HW213211   4.078   2.236   0.798  0.0516  0.2553 -0.2192
 1118SOL     OW13212   2.384   5.165   1.139  0.7566  0.5243 -0.2890
 1118SOL    HW113213   2.309   5.099   1.131  0.4522  0.8686 -0.2666
 1118SOL    HW213214   2.414   5.170   1.234 -0.6386  1.9834  0.0858
 1119SOL     OW13215   2.548   9.937   1.641  0.0437  0.1295 -0.6145
 1119SOL    HW113216   2.634   9.893   1.669 -0.5077 -0.3892  0.2673
 1119SOL    HW213217   2.560  10.036   1.640  0.9777  0.0175 -1.5648
 1120SOL     OW13218   3.144   3.606   0.345  0.3070 -0.2165 -0.6116
 1120SOL    HW113219   3.232   3.612   0.391 -0.0733  1.5855 -0.0986
 1120SOL    HW213220   3.074   3.651   0.401 -0.9730 -1.7943 -0.9280
 1121SOL     OW13221   3.326   4.120   2.441  0.1921  0.4627  0.3689
 1121SOL    HW113222   3.314   4.021   2.450 -0.4422  0.5177  0.1407
 1121SOL    HW213223   3.246   4.167   2.480  0.3647  0.8748  0.2258
 1122SOL     OW13224   2.151   4.231   0.047 -0.1137 -0.0249  0.1381
 1122SOL    HW113225   2.235   4.203   0.093  0.2045 -0.0343 -0.4439
 1122SOL    HW213226   2.169   4.245  -0.051 -1.2501 -2.1887 -0.4282
 1123SOL     OW13227   3.841   4.481   1.247  0.4835  0.0960 -0.0892
 1123SOL    HW113228   3.932   4.442   1.234 -0.5552 -1.8870 -1.7662
 1123SOL    HW213229   3.807   4.516   1.159  0.0222  1.6801  0.7195
 1124SOL     OW13230   2.019   3.026   1.101 -0.3338 -0.0814  0.2565
 1124SOL    HW113231   2.095   3.001   1.041 -1.1408 -0.6139 -0.5461
 1124SOL    HW213232   2.014   3.126   1.108  0.7084 -0.0527  0.6629
 1125SOL     OW13233   3.681   1.473   0.401 -0.1471 -0.6284 -0.1426
 1125SOL    HW113234   3.745   1.540   0.363  0.1370 -0.9730 -0.2738
 1125SOL    HW213235   3.732   1.397   0.440 -0.4925 -1.4038 -1.1726
 1126SOL     OW13236   4.654   2.111   1.456  0.0682 -0.3911 -0.7312
 1126SOL    HW113237   4.601   2.028   1.469 -1.3255  0.6801  0.5537
 1126SOL    HW213238   4.628   2.179   1.524  1.9733  0.7228 -1.0669
 1127SOL     OW13239   1.764   4.078   1.713 -0.3395 -0.7174  0.3634
 1127SOL    HW113240   1.760   4.124   1.624 -1.3562 -0.2047  0.6688
 1127SOL    HW213241   1.826   4.128   1.773 -0.3933 -0.5158  0.2513
 1128SOL     OW13242   2.303   8.411   1.678  0.4342  0.3131  0.1868
 1128SOL    HW113243   2.236   8.476   1.645 -0.0608 -0.9791 -1.4299
 1128SOL    HW213244   2.382   8.409   1.616  0.9325  0.1426  0.8106
 1129SOL     OW13245   4.456   4.112   1.007  0.0965  0.3642 -0.5051
 1129SOL    HW113246   4.404   4.165   0.940 -0.1497  0.7526 -0.0077
 1129SOL    HW213247   4.406   4.029   1.030 -0.3125  0.7505 -0.0074
 1130SOL     OW13248   2.744   6.269   1.480  0.5593  0.0377  0.5152
 1130SOL    HW113249   2.783   6.311   1.561  0.3417  1.2664 -0.0034
 1130SOL    HW213250   2.775   6.318   1.398 -0.6776 -0.0408 -0.0170
 1131SOL     OW13251   2.968   7.373   1.087  0.3579 -0.0233 -0.0592
 1131SOL    HW113252   2.899   7.392   1.156  1.1569  0.2077  0.6847
 1131SOL    HW213253   2.932   7.394   0.996 -0.2200  1.0082  0.4026
 1132SOL     OW13254   2.219   0.048   1.131  0.4876  0.2383  0.1145
 1132SOL    HW113255   2.301   0.097   1.101  1.3032 -0.3076  1.4343
 1132SOL    HW213256   2.221  -0.045   1.095  0.6364  0.1067  0.4657
 1133SOL     OW13257   1.979   2.146   2.754  0.7018 -0.1895 -0.1532
 1133SOL    HW113258   1.888   2.184   2.735  1.1504  2.0609  1.9475
 1133SOL    HW213259   2.049   2.210   2.723  1.6251 -2.0346 -2.0190
 1134SOL     OW13260   2.941   1.863   0.234 -0.1881 -0.9512 -0.2249
 1134SOL    HW113261   2.904   1.914   0.156 -0.3008 -0.4966  0.1187
 1134SOL    HW213262   2.879   1.787   0.256 -0.1935 -1.0352 -0.5320
 1135SOL     OW13263   1.636   3.415   0.553  0.1661  0.1098 -0.1452
 1135SOL    HW113264   1.568   3.480   0.519  0.6491  0.6776 -0.0339
 1135SOL    HW213265   1.727   3.456   0.546  0.5205 -0.7249 -0.4914
 1136SOL     OW13266   3.531   4.847   0.801 -0.4061  0.8429  0.2156
 1136SOL    HW113267   3.512   4.872   0.896  1.0487  1.4989  0.3432
 1136SOL    HW213268   3.499   4.920   0.740 -1.9479  0.1214  0.1454
 1137SOL     OW13269   3.132   2.298   1.114 -0.3564 -0.1334 -0.4023
 1137SOL    HW113270   3.040   2.295   1.074 -0.3962 -0.0185 -0.3198
 1137SOL    HW213271   3.172   2.388   1.101 -1.4044  0.7324  2.0779
 1138SOL     OW13272   2.827   8.736   0.530 -0.0393  0.6574  0.7489
 1138SOL    HW113273   2.859   8.803   0.463 -1.7192 -2.5851 -3.5632
 1138SOL    HW213274   2.905   8.694   0.576  1.2763  1.5260 -0.6677
 1139SOL     OW13275   2.615   4.139   2.480 -0.0949  0.2023  0.0367
 1139SOL    HW113276   2.678   4.084   2.535 -0.9100 -0.6798  0.0887
 1139SOL    HW213277   2.540   4.171   2.538 -0.4904 -0.0018 -0.3597
 1140SOL     OW13278   3.178   8.735   1.325 -0.0503 -0.1876  0.0817
 1140SOL    HW113279   3.148   8.812   1.268  0.8371 -0.8368 -1.3013
 1140SOL    HW213280   3.101   8.674   1.343 -0.0701 -0.6332 -1.4850
 1141SOL     OW13281   4.563   2.615   0.458  0.2413  0.4805  0.3075
 1141SOL    HW113282   4.567   2.586   0.553  0.7811 -1.5583 -0.3242
 1141SOL    HW213283   4.645   2.585   0.410  0.3039  2.1151 -0.6523
 1142SOL     OW13284   3.118   7.881   1.914 -0.3459  0.1675  0.0013
 1142SOL    HW113285   3.118   7.970   1.868 -0.8121  0.0559 -0.2195
 1142SOL    HW213286   3.025   7.845   1.916 -0.2034 -0.1824  0.3498
 1143SOL     OW13287   2.403   0.759   1.765  0.5560 -0.4599  0.1285
 1143SOL    HW113288   2.371   0.664   1.769  1.7642 -0.8596  0.5735
 1143SOL    HW213289   2.382   0.805   1.850  1.6427 -0.8902  0.6430
 1144SOL     OW13290   4.890   3.184   0.244  0.5174 -0.1305  0.1304
 1144SOL    HW113291   4.919   3.240   0.321 -1.2415  2.2315 -0.8663
 1144SOL    HW213292   4.942   3.211   0.162 -1.1404  0.8971 -0.6110
 1145SOL     OW13293   4.705   4.360   1.949  0.2835 -0.1923 -0.2005
 1145SOL    HW113294   4.740   4.453   1.951 -1.0522  0.2868  3.9696
 1145SOL    HW213295   4.667   4.341   1.858  0.7218  3.2373 -1.1613
 1146SOL     OW13296   2.455   6.650   1.497 -0.0300  0.6388  0.6265
 1146SOL    HW113297   2.409   6.628   1.583  0.7815 -0.1723  0.8617
 1146SOL    HW213298   2.426   6.741   1.466 -0.8495  0.6480  1.3958
 1147SOL     OW13299   2.662   3.016   0.643 -0.4124  0.1307 -0.7088
 1147SOL    HW113300   2.659   3.003   0.544 -1.6519  1.1085 -0.8062
 1147SOL    HW213301   2.572   3.044   0.676  0.3295  1.1358  0.5036
 1148SOL     OW13302   2.035   5.078   2.458  0.6925  0.0638 -0.1213
 1148SOL    HW113303   2.046   5.177   2.456  2.3192 -0.0615  1.3890
 1148SOL    HW213304   2.125   5.034   2.461  0.0918 -1.5680 -3.4240
 1149SOL     OW13305   2.273   5.930   2.418  0.0136 -0.0787 -0.7514
 1149SOL    HW113306   2.203   5.912   2.488  0.6622 -2.4306 -0.6702
 1149SOL    HW213307   2.310   6.022   2.431 -2.4995  0.9343 -0.3175
 1150SOL     OW13308   2.182   5.387   1.907  0.6361 -0.3559 -0.4069
 1150SOL    HW113309   2.170   5.298   1.863  1.8620 -1.0799  0.6763
 1150SOL    HW213310   2.246   5.378   1.984  0.1932  1.3083  0.1881
 1151SOL     OW13311   4.269   3.838   0.317 -0.3258  0.4055  0.5661
 1151SOL    HW113312   4.176   3.868   0.338 -2.3912 -4.8082 -0.2918
 1151SOL    HW213313   4.280   3.833   0.217  1.1726  1.8169  0.6525
 1152SOL     OW13314   4.460   3.515   1.816 -0.7174  0.5511 -0.4580
 1152SOL    HW113315   4.509   3.579   1.876 -3.2916  0.8980  1.3437
 1152SOL    HW213316   4.365   3.506   1.846 -0.4592 -4.1759 -0.5905
 1153SOL     OW13317   2.695   1.110   1.313 -0.1699 -0.1418  0.2170
 1153SOL    HW113318   2.731   1.188   1.365 -0.2038  1.9746 -2.7735
 1153SOL    HW213319   2.766   1.078   1.249 -2.3227  1.8607 -3.3240
 1154SOL     OW13320   3.982   4.583   0.663 -0.3808  0.0815 -0.1115
 1154SOL    HW113321   3.893   4.577   0.618 -0.3932  0.1733 -0.0987
 1154SOL    HW213322   4.054   4.560   0.598 -0.5080 -1.3229  0.2313
 1155SOL     OW13323   2.543   7.902   0.979  0.5088  0.4987  0.2282
 1155SOL    HW113324   2.568   7.808   1.001  1.3240 -0.0625 -2.8402
 1155SOL    HW213325   2.450   7.920   1.010  0.6494 -1.0377  1.5997
 1156SOL     OW13326   2.163   1.362   1.083  0.4882 -0.3587  0.2913
 1156SOL    HW113327   2.181   1.327   0.991 -0.8498  0.2891 -0.2429
 1156SOL    HW213328   2.074   1.408   1.083  2.5855  3.8628  0.7137
 1157SOL     OW13329   2.449   7.718   2.472  0.4124 -0.1398 -0.0803
 1157SOL    HW113330   2.495   7.630   2.482  0.8508  0.2651  1.6934
 1157SOL    HW213331   2.474   7.758   2.383  1.7399 -0.9335 -0.0881
 1158SOL     OW13332   2.531   9.740   1.920 -0.0906  0.0226 -0.2520
 1158SOL    HW113333   2.596   9.709   1.990 -0.9723 -1.8202 -0.2283
 1158SOL    HW213334   2.465   9.803   1.962  0.4714  0.3352  0.1710
 1159SOL     OW13335   4.467   1.515   0.336  0.3144 -0.1740 -0.1573
 1159SOL    HW113336   4.567   1.513   0.325  0.2801 -0.5316 -0.4136
 1159SOL    HW213337   4.432   1.601   0.297  0.4702 -0.2708 -0.5155
 1160SOL     OW13338   3.878   1.302   0.162  0.0665 -0.2408  0.0286
 1160SOL    HW113339   3.841   1.242   0.092  2.2170 -0.2393 -1.1476
 1160SOL    HW213340   3.879   1.397   0.129 -1.1575  0.1133  0.9876
 1161SOL     OW13341   1.766   3.246   0.743  0.3671 -0.4878  0.4812
 1161SOL    HW113342   1.750   3.286   0.834  0.4673 -2.0998  1.2204
 1161SOL    HW213343   1.715   3.298   0.675  1.0651  1.3444  1.3215
 1162SOL     OW13344   2.105   3.968   0.651  0.0533  0.1522  0.0855
 1162SOL    HW113345   2.140   3.947   0.560 -1.1046  0.2194 -0.3790
 1162SOL    HW213346   2.034   3.901   0.675  0.5340 -0.0277  1.0514
 1163SOL     OW13347   2.586   0.823   1.265  0.3486  0.0448  0.2958
 1163SOL    HW113348   2.536   0.908   1.282 -0.5196  0.2163 -2.8689
 1163SOL    HW213349   2.680   0.844   1.238  0.0675  0.0358 -0.7152
 1164SOL     OW13350   2.680   7.549   0.874 -0.1261  0.4465  0.3200
 1164SOL    HW113351   2.595   7.497   0.862  0.7389 -0.5284 -1.7927
 1164SOL    HW213352   2.758   7.486   0.876  0.6613  1.4293  1.0283
 1165SOL     OW13353   2.933   9.246   2.435  0.0541  0.3336  0.1985
 1165SOL    HW113354   2.940   9.186   2.355  1.2367 -0.3748  0.8310
 1165SOL    HW213355   2.889   9.197   2.510  0.9496  0.2796  0.6907
 1166SOL     OW13356   2.571   1.685   1.146 -0.2978 -0.5872 -0.9910
 1166SOL    HW113357   2.531   1.601   1.109 -1.3062 -0.3593 -0.4175
 1166SOL    HW213358   2.518   1.716   1.224  1.0816 -0.3484 -0.1284
 1167SOL     OW13359   3.105   1.844   2.435 -0.3095  0.0047 -0.2281
 1167SOL    HW113360   3.039   1.832   2.361 -1.6004  0.5601  0.8014
 1167SOL    HW213361   3.129   1.755   2.474 -0.2428 -0.2198 -0.7839
 1168SOL     OW13362   3.221   1.931   2.738 -0.0907  0.0586 -0.3263
 1168SOL    HW113363   3.281   2.011   2.729 -0.4550  0.7180  2.6038
 1168SOL    HW213364   3.131   1.961   2.772 -0.0544 -1.6519  1.3431
 1169SOL     OW13365   1.951   2.094   2.482  0.1515  0.0131  0.0246
 1169SOL    HW113366   1.929   2.001   2.453 -1.3912  0.5124 -0.4641
 1169SOL    HW213367   1.957   2.097   2.582  0.2118 -0.6105  0.0386
 1170SOL     OW13368   2.797   8.542   1.054 -0.2552 -0.0131 -0.1371
 1170SOL    HW113369   2.811   8.632   1.013 -0.0543  0.3834  0.7778
 1170SOL    HW213370   2.840   8.472   0.997 -2.1698  0.2230 -1.9427
 1171SOL     OW13371   3.497   0.589   1.030 -0.2635  0.0250  0.4732
 1171SOL    HW113372   3.489   0.546   0.940 -0.3004  1.1929 -0.0902
 1171SOL    HW213373   3.414   0.569   1.083  0.1423 -1.4272  0.6002
 1172SOL     OW13374   1.968   5.515   0.103  0.1161  0.1008 -0.2929
 1172SOL    HW113375   1.879   5.482   0.135  0.0762 -1.1280 -1.6557
 1172SOL    HW213376   2.031   5.519   0.181 -0.1417 -2.3300  0.0783
 1173SOL     OW13377   2.905   5.594   0.679  0.0256  0.2617 -0.0046
 1173SOL    HW113378   2.995   5.575   0.718 -0.4773 -1.8579  0.2123
 1173SOL    HW213379   2.857   5.507   0.663 -1.2135  1.2698 -1.9354
 1174SOL     OW13380   3.559   0.929   1.665  0.6469  0.0642 -0.2728
 1174SOL    HW113381   3.562   1.012   1.610  0.3766 -1.1198 -2.1152
 1174SOL    HW213382   3.629   0.865   1.633 -0.9557 -1.5157 -0.7335
 1175SOL     OW13383   3.178   6.033   0.931 -0.0202 -0.4897  0.1676
 1175SOL    HW113384   3.087   6.008   0.897 -0.3364 -0.7387  1.1779
 1175SOL    HW213385   3.237   5.952   0.933  0.2069 -0.3416 -0.4215
 1176SOL     OW13386   2.543   9.766   0.101 -0.5950 -0.3317 -0.2300
 1176SOL    HW113387   2.562   9.863   0.090 -1.2218 -0.1275  0.4289
 1176SOL    HW213388   2.493   9.732   0.022 -1.2731  0.1227 -0.0048
 1177SOL     OW13389   4.690   3.412   2.462  0.2381 -0.2558  0.9927
 1177SOL    HW113390   4.745   3.452   2.535 -0.5672 -0.3146  1.6389
 1177SOL    HW213391   4.595   3.405   2.492 -0.3081  0.7188 -0.4612
 1178SOL     OW13392   3.928   2.127   2.832  0.0250  0.0801  0.5366
 1178SOL    HW113393   3.835   2.154   2.806  0.2195  1.2688  1.0429
 1178SOL    HW213394   3.973   2.204   2.878  1.9201  0.1874 -1.4201
 1179SOL     OW13395   3.134   7.941   0.644 -0.6856  0.7231  0.0841
 1179SOL    HW113396   3.213   7.885   0.667 -0.5229  1.2119  0.7298
 1179SOL    HW213397   3.052   7.902   0.686 -0.6272  0.7769  0.2480
 1180SOL     OW13398   2.462   1.199   1.600  0.2629  0.6966  0.4051
 1180SOL    HW113399   2.473   1.258   1.520 -0.2381 -0.5682 -0.6176
 1180SOL    HW213400   2.438   1.106   1.570  2.0623 -0.2980  1.9166
 1181SOL     OW13401   4.052   4.440   1.997  0.2267  0.1027  0.4263
 1181SOL    HW113402   3.965   4.396   2.020  0.6317 -1.0833 -0.1985
 1181SOL    HW213403   4.116   4.430   2.073  0.8841 -1.9725 -0.3459
 1182SOL     OW13404   2.057   4.648   2.728  0.0340  0.0875 -0.5510
 1182SOL    HW113405   2.010   4.708   2.663 -0.7673  0.8281  0.6811
 1182SOL    HW213406   2.152   4.637   2.700  0.2118  1.9875 -0.8079
 1183SOL     OW13407   4.096   9.351   0.054 -0.0226  0.2213  0.4431
 1183SOL    HW113408   4.014   9.406   0.064 -1.6740 -2.1914  0.7361
 1183SOL    HW213409   4.076   9.273  -0.005  1.1548 -2.0852  2.9679
 1184SOL     OW13410   2.435   1.776   0.262  0.1822  0.1929  0.2766
 1184SOL    HW113411   2.369   1.788   0.188 -1.9275  0.0455  2.0702
 1184SOL    HW213412   2.457   1.866   0.301 -0.8193  0.0358  1.2265
 1185SOL     OW13413   2.532   7.417   2.559 -0.0200  0.4519 -0.2962
 1185SOL    HW113414   2.584   7.399   2.642  0.1977  3.3011  0.2322
 1185SOL    HW213415   2.441   7.448   2.582 -0.8980 -1.3551 -1.1943
 1186SOL     OW13416   3.310   2.914   1.437  0.2044  0.0666 -0.3375
 1186SOL    HW113417   3.404   2.948   1.440  0.1027  0.2207  1.8222
 1186SOL    HW213418   3.252   2.978   1.387  0.9113  0.7857 -0.2299
 1187SOL     OW13419   2.156   6.415   1.668  0.0697 -0.2850  0.1464
 1187SOL    HW113420   2.056   6.427   1.665  0.3082  1.6011 -1.2649
 1187SOL    HW213421   2.191   6.406   1.575  1.2700 -0.4603  0.6088
 1188SOL     OW13422   2.446   5.458   1.623 -0.1539  0.0473  0.0828
 1188SOL    HW113423   2.503   5.517   1.565 -0.9122  1.1502  0.4475
 1188SOL    HW213424   2.365   5.430   1.572  0.5291 -1.2484 -0.3194
 1189SOL     OW13425   4.092   1.140   1.530  0.4981 -0.2707 -0.5286
 1189SOL    HW113426   4.005   1.093   1.546 -0.0658  0.9776  0.1782
 1189SOL    HW213427   4.074   1.236   1.511  1.7912  0.2428  0.7539
 1190SOL     OW13428   2.230   8.611   1.515 -0.0568 -0.2789  0.1726
 1190SOL    HW113429   2.310   8.616   1.456  0.1528 -0.2633  0.4559
 1190SOL    HW213430   2.230   8.688   1.579 -0.1936 -0.3852  0.3027
 1191SOL     OW13431   2.091   7.924   2.348  0.5694 -0.3170 -0.4350
 1191SOL    HW113432   2.093   7.829   2.377  1.5222 -0.7513 -1.8657
 1191SOL    HW213433   2.140   7.934   2.261 -0.5154  1.2739 -0.8993
 1192SOL     OW13434   4.444   2.388   1.855 -0.1805 -0.1168  0.4289
 1192SOL    HW113435   4.503   2.407   1.934  0.0699 -0.1710  0.2550
 1192SOL    HW213436   4.349   2.383   1.885 -0.0723 -0.2578  0.7467
 1193SOL     OW13437   4.098   3.921   0.944 -0.1815  0.7200 -0.2009
 1193SOL    HW113438   4.103   3.913   1.044 -3.1608  1.7618  0.0703
 1193SOL    HW213439   4.165   3.988   0.912 -0.3183  1.5762  1.2665
 1194SOL     OW13440   3.885   4.214   0.973 -0.4153  0.2184  0.5633
 1194SOL    HW113441   3.840   4.269   0.902 -1.5027 -2.3761 -0.8150
 1194SOL    HW213442   3.822   4.144   1.006  1.4043 -1.1254  1.2659
 1195SOL     OW13443   4.854   2.489   2.448 -0.1412 -0.6316 -0.1497
 1195SOL    HW113444   4.921   2.548   2.403  0.3790  0.6253  2.2244
 1195SOL    HW213445   4.778   2.544   2.483 -0.6972 -1.6334  0.2475
 1196SOL     OW13446   2.294   7.794   0.518 -0.2805 -0.4970  0.0929
 1196SOL    HW113447   2.222   7.851   0.478 -2.0834 -3.2780 -0.7644
 1196SOL    HW213448   2.334   7.841   0.597 -1.7257  1.9152 -0.5717
 1197SOL     OW13449   4.222   3.536   1.891 -0.0985  0.3399  0.4461
 1197SOL    HW113450   4.146   3.474   1.875 -1.0203  1.6515 -0.3398
 1197SOL    HW213451   4.188   3.626   1.920  1.0785  1.2163 -0.7950
 1198SOL     OW13452   4.342   4.376   1.090 -0.1432 -0.6086 -0.4153
 1198SOL    HW113453   4.273   4.316   1.051 -0.1507 -1.0688  0.3004
 1198SOL    HW213454   4.417   4.322   1.127 -0.0036 -0.1673 -0.0486
 1199SOL     OW13455   2.335   6.112   2.027  0.4589 -0.1808 -0.3792
 1199SOL    HW113456   2.417   6.102   2.082  1.4314 -0.9707 -1.9360
 1199SOL    HW213457   2.261   6.148   2.084  1.1978 -1.7531  1.6379
 1200SOL     OW13458   4.716   1.569   0.772 -1.0785 -0.1865  0.0845
 1200SOL    HW113459   4.722   1.669   0.768 -0.7219 -0.1236  1.6331
 1200SOL    HW213460   4.778   1.530   0.704  1.2417  0.6600  1.6015
 1201SOL     OW13461   4.414   1.054   2.657  0.4524 -0.3093 -0.5164
 1201SOL    HW113462   4.342   1.000   2.615  1.5157 -1.0820 -1.3933
 1201SOL    HW213463   4.386   1.083   2.748 -0.0780 -2.5065  0.0501
 1202SOL     OW13464   4.075   4.113   0.072 -0.6722  0.5417 -0.6851
 1202SOL    HW113465   4.145   4.183   0.054 -0.3725  0.3174 -0.3900
 1202SOL    HW213466   4.000   4.154   0.124 -1.3285  1.0822 -2.0503
 1203SOL     OW13467   2.602   5.725   2.755 -0.1096 -0.2525  0.1858
 1203SOL    HW113468   2.688   5.698   2.798 -0.1170  0.9273  0.9395
 1203SOL    HW213469   2.619   5.801   2.692 -0.4923 -0.4875 -0.2061
 1204SOL     OW13470   2.038   1.892   1.213 -0.2127 -0.0028 -0.1580
 1204SOL    HW113471   2.080   1.819   1.160 -0.6092  0.8091 -1.6027
 1204SOL    HW213472   1.949   1.915   1.174  0.3105  1.8971 -0.3034
 1205SOL     OW13473   2.271   8.333   0.551  0.0849  0.0701  0.4507
 1205SOL    HW113474   2.353   8.384   0.524 -0.2432 -0.4761 -1.7000
 1205SOL    HW213475   2.207   8.331   0.475  0.4527 -4.2966  0.1056
 1206SOL     OW13476   3.252   0.571   2.775  0.1751  0.4370 -0.4835
 1206SOL    HW113477   3.245   0.634   2.697  2.9586 -1.2209 -2.1305
 1206SOL    HW213478   3.189   0.495   2.762 -0.9881  1.2891  0.0277
 1207SOL     OW13479   2.097   3.001   2.557 -0.3516 -0.5341 -0.2624
 1207SOL    HW113480   2.166   3.039   2.618 -1.0959 -0.8466  0.7863
 1207SOL    HW213481   2.137   2.925   2.506 -0.2050 -1.3948  1.1028
 1208SOL     OW13482   3.988   9.359   1.556  0.0330  0.5374 -0.4742
 1208SOL    HW113483   3.984   9.456   1.578  1.1829  0.1212  1.6484
 1208SOL    HW213484   3.896   9.321   1.558 -0.1179  0.9681  1.5987
 1209SOL     OW13485   3.711   2.482   0.403 -0.4068 -0.0768  0.2600
 1209SOL    HW113486   3.745   2.524   0.487 -0.3517 -1.4564  0.9490
 1209SOL    HW213487   3.719   2.383   0.410 -2.2571 -0.3153 -0.5734
 1210SOL     OW13488   2.998   8.838   0.981 -0.0628  0.2606 -0.9204
 1210SOL    HW113489   3.042   8.760   0.938  0.4843  0.3578 -0.5486
 1210SOL    HW213490   3.058   8.918   0.974 -0.9982  0.8708 -2.0773
 1211SOL     OW13491   3.176   9.250   0.528 -0.0643  0.0210  0.0263
 1211SOL    HW113492   3.254   9.265   0.467 -0.3007 -2.2990 -0.8837
 1211SOL    HW213493   3.093   9.234   0.474 -0.7401  0.2536  0.9705
 1212SOL     OW13494   3.041   6.735   2.610  0.2276 -0.5093  1.1559
 1212SOL    HW113495   2.968   6.669   2.629 -0.8649  0.7254  1.2613
 1212SOL    HW213496   3.090   6.708   2.527 -0.7868 -0.9517  0.6988
 1213SOL     OW13497   2.076   1.583   0.216  0.7731  0.4421  0.1236
 1213SOL    HW113498   2.159   1.633   0.190 -1.0270  3.5512  0.1520
 1213SOL    HW213499   2.064   1.587   0.315  0.2022  0.6447  0.0491
 1214SOL     OW13500   3.207   7.873   1.211 -0.8858 -0.1353 -0.0958
 1214SOL    HW113501   3.132   7.807   1.217  0.6335 -1.8498  0.6620
 1214SOL    HW213502   3.270   7.845   1.138 -0.8244  1.1222 -0.5365
 1215SOL     OW13503   2.011   7.312   2.117 -0.2820 -0.1092 -0.1119
 1215SOL    HW113504   1.927   7.278   2.076  0.4434  1.1529 -2.7648
 1215SOL    HW213505   2.088   7.297   2.054  1.4201 -0.8043  2.0521
 1216SOL     OW13506   3.225   9.814   1.985  0.0854 -0.1440  0.3999
 1216SOL    HW113507   3.304   9.875   1.990 -0.8669  1.1765 -0.5222
 1216SOL    HW213508   3.153   9.846   2.046 -0.4626 -0.2759 -0.1705
 1217SOL     OW13509   3.747   0.673   2.085 -0.2038  0.2335 -0.1616
 1217SOL    HW113510   3.791   0.650   1.998  2.4621  0.7017  0.9921
 1217SOL    HW213511   3.775   0.764   2.113  0.0539 -0.4237  1.8196
 1218SOL     OW13512   4.362   4.491   0.746 -0.2415  0.3954 -0.1933
 1218SOL    HW113513   4.296   4.522   0.677  0.2993 -0.1528 -0.9711
 1218SOL    HW213514   4.355   4.548   0.827 -2.0650  0.0005 -0.0450
 1219SOL     OW13515   2.337   3.168   0.441 -0.2807 -0.0896  0.0361
 1219SOL    HW113516   2.291   3.116   0.513 -1.8231  1.0262 -0.1117
 1219SOL    HW213517   2.338   3.115   0.357  1.2891 -1.2889  0.7883
 1220SOL     OW13518   4.515   2.067   0.220  0.6265  0.0746  0.3381
 1220SOL    HW113519   4.445   2.084   0.290  0.0076 -1.5044  0.1310
 1220SOL    HW213520   4.487   2.111   0.134  0.4988  0.4846  0.5861
 1221SOL     OW13521   2.620   1.010   0.558 -0.0559  0.4692  0.5535
 1221SOL    HW113522   2.563   0.928   0.548 -1.5493  1.4051  1.2754
 1221SOL    HW213523   2.714   0.982   0.577 -0.0916 -1.1093 -1.4452
 1222SOL     OW13524   2.263   7.981   1.036 -0.3750  0.0840 -0.2608
 1222SOL    HW113525   2.302   7.992   1.128  1.2711 -0.0157 -0.9217
 1222SOL    HW213526   2.212   8.064   1.012 -1.9132 -0.4087  1.2392
 1223SOL     OW13527   2.432   2.866   2.708 -0.4701 -0.4041  0.7075
 1223SOL    HW113528   2.351   2.809   2.696  0.3337 -0.8841 -3.0956
 1223SOL    HW213529   2.405   2.954   2.747 -2.9243 -0.3661 -0.9366
 1224SOL     OW13530   3.794   1.845   1.177  0.8451 -0.6676 -0.2151
 1224SOL    HW113531   3.752   1.788   1.248  0.6794 -0.2577  0.0155
 1224SOL    HW213532   3.791   1.796   1.090  1.5775 -1.4156  0.1701
 1225SOL     OW13533   1.818   1.879   2.601 -0.1991  0.3195  0.3122
 1225SOL    HW113534   1.758   1.925   2.666 -1.2462 -0.3614 -0.1623
 1225SOL    HW213535   1.859   1.799   2.645  0.2455  0.7014  0.5914
 1226SOL     OW13536   3.521   5.021   2.564 -0.4647  0.2513 -0.5410
 1226SOL    HW113537   3.548   5.042   2.470 -0.1989 -0.4540 -0.6183
 1226SOL    HW213538   3.597   5.040   2.626 -0.0185 -1.0574 -0.6796
 1227SOL     OW13539   3.222   1.697   1.883  0.0750 -0.0501  0.3765
 1227SOL    HW113540   3.234   1.778   1.939  1.5177 -0.5611  0.8136
 1227SOL    HW213541   3.243   1.719   1.788 -3.4894  1.1197 -0.2361
 1228SOL     OW13542   3.708   9.863   0.410 -0.3473 -0.6716  0.3522
 1228SOL    HW113543   3.750   9.946   0.448  0.8841 -1.6985  1.2745
 1228SOL    HW213544   3.686   9.878   0.314 -3.3046  1.9032  1.3551
 1229SOL     OW13545   2.275   5.313   1.478 -0.3370  0.0098 -0.5086
 1229SOL    HW113546   2.244   5.359   1.394  0.5559  0.4887 -0.5909
 1229SOL    HW213547   2.321   5.228   1.454 -2.8932 -1.4704 -0.2911
 1230SOL     OW13548   2.452   0.338   1.951 -0.5215 -0.0402 -1.0559
 1230SOL    HW113549   2.522   0.399   1.988 -2.5523  0.8621  1.4479
 1230SOL    HW213550   2.488   0.244   1.950  0.7246  0.4023  0.2156
 1231SOL     OW13551   3.661   5.032   2.811  0.4249 -0.7370 -0.0948
 1231SOL    HW113552   3.752   4.998   2.787  1.2551 -0.5605  2.6499
 1231SOL    HW213553   3.609   4.958   2.854  0.1800 -0.1477  0.6311
 1232SOL     OW13554   4.695   1.062   1.766 -0.2338 -0.0828 -0.4366
 1232SOL    HW113555   4.776   1.099   1.722  0.9578  0.2649  1.9435
 1232SOL    HW213556   4.715   0.969   1.798 -0.4962  0.2850  0.8257
 1233SOL     OW13557   2.604   2.409   0.984  0.4900  0.5673  0.2406
 1233SOL    HW113558   2.592   2.359   1.070  0.2888 -0.2968 -0.2799
 1233SOL    HW213559   2.697   2.445   0.979  0.4027  0.8989  0.9647
 1234SOL     OW13560   3.046   2.954   0.283 -0.4786 -0.1877  0.7709
 1234SOL    HW113561   3.069   2.984   0.190  1.5293  1.1667  1.6666
 1234SOL    HW213562   3.117   2.892   0.317 -2.6669 -3.0171  0.3793
 1235SOL     OW13563   5.031   2.260   0.850  0.6118  0.5439  0.2761
 1235SOL    HW113564   5.039   2.165   0.880  0.6007  0.5968  0.4490
 1235SOL    HW213565   5.064   2.269   0.756  0.4229  0.3336  0.1911
 1236SOL     OW13566   4.332   0.379   1.894  0.3962  0.6855  0.6597
 1236SOL    HW113567   4.407   0.341   1.840  0.0003 -1.2546  1.4270
 1236SOL    HW213568   4.330   0.334   1.984 -0.6622  1.8964  1.2490
 1237SOL     OW13569   1.975   1.193   2.729 -0.7163  0.5132 -0.3954
 1237SOL    HW113570   1.967   1.215   2.631 -1.5494  0.4639 -0.3395
 1237SOL    HW213571   1.885   1.172   2.766 -0.3611  0.2463  0.3231
 1238SOL     OW13572   4.840   3.297   1.399  0.2856  0.1663 -0.5682
 1238SOL    HW113573   4.880   3.325   1.311 -1.6067  0.8057 -1.2348
 1238SOL    HW213574   4.752   3.342   1.412  0.2436 -0.4322  1.3758
 1239SOL     OW13575   1.904   5.722   0.857 -0.0183  0.3775  0.8264
 1239SOL    HW113576   1.873   5.632   0.889 -1.1489  0.1411 -0.8726
 1239SOL    HW213577   1.886   5.790   0.928 -1.8406 -0.2507  1.0075
 1240SOL     OW13578   3.556   3.810   1.805 -0.0649 -0.3472  0.1754
 1240SOL    HW113579   3.503   3.782   1.725  0.5066 -1.5689  0.2179
 1240SOL    HW213580   3.607   3.732   1.840  1.1425  0.6231  0.6172
 1241SOL     OW13581   3.044   3.768   0.139  0.0778  0.4817  0.3907
 1241SOL    HW113582   3.079   3.703   0.071 -1.5692 -2.6391  2.4013
 1241SOL    HW213583   3.090   3.752   0.227 -2.0187  0.4460  1.4963
 1242SOL     OW13584   3.139   1.252   0.779  0.3134  0.0792 -0.3918
 1242SOL    HW113585   3.126   1.181   0.710  2.2244 -1.5613  0.9125
 1242SOL    HW213586   3.055   1.306   0.787 -0.6269 -1.0275 -2.4978
 1243SOL     OW13587   2.980   9.669   2.278 -0.3229 -0.6765 -0.1574
 1243SOL    HW113588   2.938   9.701   2.363 -0.2103 -0.4931 -0.1711
 1243SOL    HW213589   3.028   9.744   2.234 -0.0374 -0.8701 -0.1779
 1244SOL     OW13590   3.670   3.145   0.233 -0.5899 -1.0428 -0.4417
 1244SOL    HW113591   3.632   3.066   0.282  0.6720 -1.4582 -0.1135
 1244SOL    HW213592   3.682   3.122   0.136  1.6877 -1.9835  0.0273
 1245SOL     OW13593   4.535   3.971   1.759 -0.1381  0.1703  0.3031
 1245SOL    HW113594   4.526   4.015   1.670  0.6963  1.4935  0.8723
 1245SOL    HW213595   4.457   3.996   1.817 -2.1811 -2.9178 -0.9640
 1246SOL     OW13596   4.137   8.797   0.799  0.0717  0.2385 -1.1673
 1246SOL    HW113597   4.069   8.822   0.730 -0.4628  0.5452 -0.5336
 1246SOL    HW213598   4.115   8.708   0.837  0.9227 -0.3791 -2.0855
 1247SOL     OW13599   3.575   5.320   0.760 -0.2124 -0.2620  0.0739
 1247SOL    HW113600   3.629   5.386   0.708 -0.8111  0.5674  0.5051
 1247SOL    HW213601   3.629   5.288   0.838 -0.0198 -0.0946  0.0104
 1248SOL     OW13602   3.875   8.178   0.063  0.1107  0.0607  0.1998
 1248SOL    HW113603   3.878   8.218   0.155 -1.2741  0.4003  0.0990
 1248SOL    HW213604   3.934   8.097   0.061 -0.0943 -0.1402  1.4895
 1249SOL     OW13605   4.368   4.647   0.983 -0.0242  0.2429 -0.0549
 1249SOL    HW113606   4.277   4.661   1.022  0.1710  0.9433  0.1590
 1249SOL    HW213607   4.425   4.596   1.048 -0.3165 -0.3583 -0.2658
 1250SOL     OW13608   3.877   0.109   0.521 -0.3422  0.7755  0.1290
 1250SOL    HW113609   3.947   0.168   0.480 -0.1936  0.8279  0.4569
 1250SOL    HW213610   3.913   0.067   0.604 -0.3108 -0.1147 -0.3383
 1251SOL     OW13611   2.933   7.553   0.573 -0.1030 -0.8091  0.2037
 1251SOL    HW113612   2.844   7.507   0.576 -0.7459  0.4533  0.4620
 1251SOL    HW213613   2.988   7.514   0.499 -1.1274 -1.1103 -0.3977
 1252SOL     OW13614   3.244   1.528   1.276  0.3951 -0.6139 -0.2751
 1252SOL    HW113615   3.160   1.513   1.224  0.1482 -1.9193  0.4788
 1252SOL    HW213616   3.288   1.440   1.294  0.8051 -0.1321  1.1633
 1253SOL     OW13617   3.155   0.279   2.356  0.2414  0.1065  0.2742
 1253SOL    HW113618   3.192   0.187   2.348  1.1497  0.2874  2.0815
 1253SOL    HW213619   3.223   0.339   2.398 -0.6730  1.3910 -0.0425
 1254SOL     OW13620   3.445   9.303   1.784  0.0535 -0.7017  0.1069
 1254SOL    HW113621   3.491   9.271   1.866  2.4169 -0.1581 -0.9762
 1254SOL    HW213622   3.408   9.395   1.799 -3.7538 -2.4132  2.0878
 1255SOL     OW13623   2.260   0.109   0.286 -0.0261  0.0607 -0.1670
 1255SOL    HW113624   2.163   0.116   0.263  0.4401  0.4074 -2.0746
 1255SOL    HW213625   2.315   0.107   0.202  1.7179  1.3574  0.8973
 1256SOL     OW13626   2.821   4.479   1.760  0.2519 -0.1464 -0.5304
 1256SOL    HW113627   2.865   4.562   1.793  1.0682 -0.9805  0.4883
 1256SOL    HW213628   2.885   4.428   1.701  0.1623 -0.6473 -0.1966
 1257SOL     OW13629   3.672   2.642   2.496 -0.1641  0.7982 -0.5346
 1257SOL    HW113630   3.634   2.624   2.406 -1.0245 -1.2616  0.2283
 1257SOL    HW213631   3.649   2.736   2.523 -2.6168  0.4121 -1.1381
 1258SOL     OW13632   4.114   4.749   1.275 -0.3891  0.7503 -0.3015
 1258SOL    HW113633   4.019   4.768   1.301  0.3604  0.3088  3.0276
 1258SOL    HW213634   4.155   4.689   1.344  2.2157  0.6379 -1.9036
 1259SOL     OW13635   3.859   2.903   2.270 -0.1973 -0.1865  0.1449
 1259SOL    HW113636   3.931   2.839   2.243  0.4359 -0.3256  2.0993
 1259SOL    HW213637   3.770   2.869   2.240  0.5767  0.2029 -2.6981
 1260SOL     OW13638   3.410   2.880   0.275  0.6357 -0.0574 -0.3830
 1260SOL    HW113639   3.357   2.818   0.218  0.2331 -0.7708  0.7526
 1260SOL    HW213640   3.423   2.839   0.365  0.4492  1.4658  0.3491
 1261SOL     OW13641   3.276   4.903   2.696 -0.4434 -0.1681  0.1673
 1261SOL    HW113642   3.349   4.961   2.659  0.4558 -2.3711 -1.6395
 1261SOL    HW213643   3.195   4.959   2.714  1.3691  2.1773  1.4101
 1262SOL     OW13644   2.976   1.326   2.561 -0.0896 -0.0310  0.6388
 1262SOL    HW113645   2.949   1.292   2.651 -0.2035 -2.4748 -0.2649
 1262SOL    HW213646   2.894   1.355   2.510 -0.3012 -0.9591  0.4359
 1263SOL     OW13647   4.836   8.860   1.341 -0.6793 -0.6717  0.2710
 1263SOL    HW113648   4.859   8.899   1.431 -1.3465  1.3184 -0.4068
 1263SOL    HW213649   4.754   8.804   1.349 -0.3131 -1.1111  1.0443
 1264SOL     OW13650   2.197   2.303   1.953  0.6038  0.5966 -0.0065
 1264SOL    HW113651   2.194   2.307   1.854  0.7013  2.4329  0.0608
 1264SOL    HW213652   2.119   2.250   1.987  1.2154 -1.0346 -1.0951
 1265SOL     OW13653   4.126   1.303   1.917  0.0506 -0.7876 -0.2281
 1265SOL    HW113654   4.182   1.328   1.838 -0.3589  1.1682  0.0980
 1265SOL    HW213655   4.036   1.273   1.884  0.1802 -0.8287 -0.5547
 1266SOL     OW13656   2.843   8.488   0.407  0.5282 -0.2074  0.5872
 1266SOL    HW113657   2.805   8.568   0.453  0.1037 -0.3163  0.4326
 1266SOL    HW213658   2.942   8.495   0.405  0.4696  0.6026  0.0516
 1267SOL     OW13659   2.905   8.173   1.208 -0.0918 -0.3070 -0.2387
 1267SOL    HW113660   2.853   8.089   1.192  0.4486 -0.1910 -2.7356
 1267SOL    HW213661   2.987   8.152   1.261 -0.3724 -1.2197 -0.1489
 1268SOL     OW13662   2.407   5.299   2.060 -0.1852 -0.2663 -0.0490
 1268SOL    HW113663   2.384   5.325   2.154 -2.4055  0.4799 -0.7630
 1268SOL    HW213664   2.388   5.202   2.046  2.8933 -1.0740  1.0629
 1269SOL     OW13665   3.342   8.109   1.658 -0.4894  0.6975 -0.4899
 1269SOL    HW113666   3.351   8.205   1.631 -1.2801  1.0579  0.4834
 1269SOL    HW213667   3.387   8.095   1.746  1.1954 -0.2393 -1.4944
 1270SOL     OW13668   2.114   5.472   1.291 -0.4790  0.3972 -0.5039
 1270SOL    HW113669   2.158   5.542   1.234 -0.0533 -1.0523 -1.9860
 1270SOL    HW213670   2.095   5.511   1.382  1.2502  1.9378 -0.7525
 1271SOL     OW13671   3.958   1.604   2.486 -0.0348  0.2420  0.4678
 1271SOL    HW113672   4.013   1.552   2.420 -1.5697 -1.5249  0.5476
 1271SOL    HW213673   4.003   1.603   2.575  0.5488  0.0931  0.1766
 1272SOL     OW13674   3.017   2.576   2.370 -0.0316 -0.7326  0.4356
 1272SOL    HW113675   3.022   2.523   2.286  0.7794 -2.5752  1.6099
 1272SOL    HW213676   3.109   2.606   2.397 -0.3819  0.5228  0.2446
 1273SOL     OW13677   4.836   2.407   1.003 -1.3349 -0.6216 -0.1097
 1273SOL    HW113678   4.798   2.324   1.042  1.8582 -1.4049  1.5126
 1273SOL    HW213679   4.908   2.384   0.937  0.3106  0.8171  1.1407
 1274SOL     OW13680   4.190   4.877   1.793  0.1776 -0.1645  0.2749
 1274SOL    HW113681   4.222   4.953   1.849  0.3147 -0.6821  0.9031
 1274SOL    HW213682   4.112   4.833   1.837  0.9855 -1.2663  0.6039
 1275SOL     OW13683   1.928   9.195   1.987  0.3442  0.2978  0.1122
 1275SOL    HW113684   1.928   9.242   1.899  0.2212  2.3206  1.1650
 1275SOL    HW213685   1.922   9.263   2.061  0.8684 -1.3449  1.6874
 1276SOL     OW13686   3.657   1.018   1.909  0.3321 -0.0400 -0.4982
 1276SOL    HW113687   3.573   1.027   1.962 -0.1642  3.0308 -1.6766
 1276SOL    HW213688   3.635   0.985   1.817  0.6034 -0.6536 -0.3455
 1277SOL     OW13689   4.337   1.875   2.560  1.2369 -0.9617  0.0009
 1277SOL    HW113690   4.394   1.956   2.571  1.6027 -1.3352  0.8560
 1277SOL    HW213691   4.241   1.902   2.560  1.3732 -0.4705 -0.2346
 1278SOL     OW13692   3.741   4.501   0.996 -1.1401  0.1165  0.4304
 1278SOL    HW113693   3.671   4.569   0.977 -0.7428  0.5276  0.4104
 1278SOL    HW213694   3.811   4.505   0.924 -1.3988 -0.6936  0.1323
 1279SOL     OW13695   3.310   7.552   0.289 -0.2783  0.5342 -0.0322
 1279SOL    HW113696   3.303   7.562   0.190 -1.4940 -0.0290 -0.0166
 1279SOL    HW213697   3.229   7.505   0.324  0.2745  0.4522  1.1957
 1280SOL     OW13698   1.837   6.282   0.596 -0.2141 -0.4738  0.2649
 1280SOL    HW113699   1.794   6.369   0.572 -2.9361 -1.9953 -0.6488
 1280SOL    HW213700   1.929   6.278   0.556 -0.3320  1.6702 -0.2922
 1281SOL     OW13701   2.559   6.731   0.884  0.1483  0.1761 -0.2710
 1281SOL    HW113702   2.588   6.825   0.898  0.4827 -0.0437  0.5801
 1281SOL    HW213703   2.560   6.709   0.787  0.9163  0.7837 -0.4000
 1282SOL     OW13704   3.268   5.190   2.480  0.8265  0.1372 -0.2757
 1282SOL    HW113705   3.305   5.134   2.554  0.3636  0.0532 -0.1102
 1282SOL    HW213706   3.183   5.233   2.509 -0.4945 -1.5928 -1.4703
 1283SOL     OW13707   2.534   9.362   0.102 -0.1629  0.6263  0.0543
 1283SOL    HW113708   2.497   9.307   0.027 -2.2965  1.4609  0.4451
 1283SOL    HW213709   2.516   9.315   0.189  1.4070  0.1448  0.1378
 1284SOL     OW13710   1.815   4.417   1.786 -0.0107  0.1535  0.1453
 1284SOL    HW113711   1.813   4.385   1.692  1.3243 -0.6197  0.3607
 1284SOL    HW213712   1.748   4.367   1.840 -1.5418  1.3613 -0.6135
 1285SOL     OW13713   3.847   9.456   0.119  0.4207 -0.3608 -0.3577
 1285SOL    HW113714   3.819   9.534   0.175  1.6877  0.5919 -1.0063
 1285SOL    HW213715   3.780   9.441   0.046 -0.6135 -0.8533  0.6768
 1286SOL     OW13716   2.369   4.853   1.553 -0.1398 -0.5806 -0.1296
 1286SOL    HW113717   2.443   4.858   1.621  0.1950  1.1575 -0.6094
 1286SOL    HW213718   2.290   4.807   1.594 -0.5069  1.8164  1.9873
 1287SOL     OW13719   4.198   4.773   2.811 -0.3614  0.3806  0.0380
 1287SOL    HW113720   4.151   4.721   2.740 -1.1922  0.0624  0.8143
 1287SOL    HW213721   4.220   4.713   2.888 -0.7883  1.0350  0.6777
 1288SOL     OW13722   2.920   6.968   2.763 -0.2236 -0.6958  0.5649
 1288SOL    HW113723   2.947   7.059   2.794 -1.0426 -1.2605  3.0675
 1288SOL    HW213724   2.997   6.926   2.715  0.2545  1.1956 -0.3816
 1289SOL     OW13725   2.897   8.108   2.608 -0.3321  0.2120 -0.0914
 1289SOL    HW113726   2.871   8.201   2.581 -0.6026 -0.5931 -2.6859
 1289SOL    HW213727   2.976   8.078   2.555 -0.1905 -1.0213  0.7942
 1290SOL     OW13728   2.989   4.681   2.417  0.1694 -0.7070  0.2986
 1290SOL    HW113729   2.972   4.583   2.422 -1.3331 -0.4523  0.1769
 1290SOL    HW213730   2.904   4.730   2.399  1.0261  0.5680 -0.3789
 1291SOL     OW13731   2.884   1.357   0.443  0.2079 -1.0766 -0.0264
 1291SOL    HW113732   2.959   1.310   0.398 -0.1875  0.8279 -2.8265
 1291SOL    HW213733   2.797   1.331   0.400 -0.3115 -0.0199  0.3558
 1292SOL     OW13734   3.603   8.010   0.562  0.2446 -0.4190 -0.2723
 1292SOL    HW113735   3.533   7.975   0.500 -2.3439  0.8807  1.8119
 1292SOL    HW213736   3.623   8.105   0.538 -0.1650 -0.1708  0.3646
 1293SOL     OW13737   4.751   4.600   0.112 -0.5933  0.0626 -0.0285
 1293SOL    HW113738   4.842   4.641   0.099 -0.1852 -1.3557 -1.9111
 1293SOL    HW213739   4.702   4.650   0.183  1.2606  1.5149  0.2805
 1294SOL     OW13740   2.457   4.209   1.763  0.1757 -0.0383 -0.7839
 1294SOL    HW113741   2.365   4.214   1.724  1.2619 -1.8558 -3.7303
 1294SOL    HW213742   2.498   4.300   1.762 -0.8050  0.4102 -1.4195
 1295SOL     OW13743   2.617   6.480   2.395 -0.4963  0.0228  0.5068
 1295SOL    HW113744   2.705   6.495   2.439 -0.4896  0.7232  0.2667
 1295SOL    HW213745   2.630   6.435   2.307 -0.2601  1.2789 -0.1187
 1296SOL     OW13746   5.035   4.165   1.055 -0.0014 -0.4497  0.3711
 1296SOL    HW113747   4.998   4.183   0.964 -1.8768  0.0659  1.2039
 1296SOL    HW213748   5.014   4.070   1.080 -0.9032 -0.1133  0.9030
 1297SOL     OW13749   3.293   0.923   0.238  0.1801  0.1886  0.1449
 1297SOL    HW113750   3.318   0.946   0.144  0.0683 -0.6544 -0.0907
 1297SOL    HW213751   3.258   1.005   0.284  0.4678  0.6573 -0.4656
 1298SOL     OW13752   2.400   9.597   0.728  0.1822  0.1447 -0.4404
 1298SOL    HW113753   2.396   9.545   0.812  0.9689 -0.6332 -0.8800
 1298SOL    HW213754   2.379   9.538   0.650 -1.3728  1.0387 -0.7343
 1299SOL     OW13755   2.661   8.256   2.802 -0.4355 -0.2178 -0.1823
 1299SOL    HW113756   2.653   8.164   2.763  0.9549 -1.1609  1.6570
 1299SOL    HW213757   2.592   8.316   2.760 -4.0719 -3.0804  1.3618
 1300SOL     OW13758   1.907   0.714   2.464 -0.3232 -0.9831 -0.1867
 1300SOL    HW113759   1.933   0.741   2.372  0.1053 -2.0429 -0.3875
 1300SOL    HW213760   1.931   0.618   2.478  0.1836 -0.6572  1.2410
 1301SOL     OW13761   3.528   4.749   2.635  0.4772  0.4063 -0.2629
 1301SOL    HW113762   3.521   4.689   2.556 -1.3204  0.5097 -0.2076
 1301SOL    HW213763   3.504   4.843   2.608 -0.7393  0.3333  0.5207
 1302SOL     OW13764   2.457   9.954   0.405  0.4111  0.4784 -0.0276
 1302SOL    HW113765   2.433  10.046   0.373  1.2301  1.1709  1.3028
 1302SOL    HW213766   2.402   9.931   0.485  2.5699  1.2058  1.7121
 1303SOL     OW13767   2.173   2.273   1.262  0.3021  0.4043 -0.9133
 1303SOL    HW113768   2.245   2.228   1.210  0.6151 -0.0942 -0.0537
 1303SOL    HW213769   2.122   2.205   1.315  1.6470  1.1859  1.4536
 1304SOL     OW13770   3.685   8.609   1.741 -0.0530 -0.1001  0.1651
 1304SOL    HW113771   3.661   8.548   1.816  0.9084  1.5818  1.8869
 1304SOL    HW213772   3.625   8.591   1.663 -2.0990 -0.8363  1.8640
 1305SOL     OW13773   2.760   7.865   1.199  0.3613  0.7531  0.1061
 1305SOL    HW113774   2.697   7.838   1.126  0.4372 -0.0393  0.3305
 1305SOL    HW213775   2.708   7.886   1.282  0.5000 -2.2572  1.0354
 1306SOL     OW13776   2.894   0.236   1.722  0.0151 -0.0213  0.4769
 1306SOL    HW113777   2.803   0.211   1.690  0.7878 -2.0262 -0.2087
 1306SOL    HW213778   2.894   0.238   1.822 -0.1417 -2.6535  0.5706
 1307SOL     OW13779   4.374   1.820   0.675 -0.5694  0.8355  0.0598
 1307SOL    HW113780   4.381   1.722   0.658 -2.3365  0.7339 -0.2093
 1307SOL    HW213781   4.442   1.868   0.620  0.4537 -0.2430  0.3546
 1308SOL     OW13782   4.613   2.830   2.049  0.8491 -0.4281  0.7155
 1308SOL    HW113783   4.620   2.911   2.106 -1.1876 -0.2850  0.7793
 1308SOL    HW213784   4.546   2.766   2.088 -1.3812  0.1370 -2.0240
 1309SOL     OW13785   2.300   1.344   0.489  0.2285 -0.3921 -0.2524
 1309SOL    HW113786   2.304   1.296   0.401 -0.1468 -0.5904 -0.1621
 1309SOL    HW213787   2.378   1.317   0.545 -0.7860 -2.0577  0.3899
 1310SOL     OW13788   3.319   5.096   0.851  0.3719  0.0358 -0.6403
 1310SOL    HW113789   3.292   5.192   0.838 -0.1681 -0.0786 -0.3702
 1310SOL    HW213790   3.237   5.039   0.852  0.5491 -0.1880  1.2751
 1311SOL     OW13791   3.107   8.604   2.369  0.4238 -0.1218 -0.2615
 1311SOL    HW113792   3.117   8.517   2.416  2.7244 -1.3509 -2.9554
 1311SOL    HW213793   3.191   8.657   2.377 -0.3291  1.0918 -0.1771
 1312SOL     OW13794   3.732   0.875   2.497 -0.0140 -0.0337  0.4973
 1312SOL    HW113795   3.824   0.876   2.536  0.8972  1.4166 -1.6264
 1312SOL    HW213796   3.720   0.953   2.435 -1.1070 -2.6687 -2.7834
 1313SOL     OW13797   2.340   3.443   1.994  0.4005  0.9037 -0.2102
 1313SOL    HW113798   2.404   3.383   1.947 -2.2356 -0.7753 -1.8501
 1313SOL    HW213799   2.390   3.514   2.044  3.5650 -1.8207  0.6826
 1314SOL     OW13800   1.999   4.254   0.457  0.4418  0.1298  0.1678
 1314SOL    HW113801   2.021   4.205   0.542 -0.0576 -2.6260 -1.2077
 1314SOL    HW213802   2.082   4.293   0.418  0.8760  0.3403  1.2827
 1315SOL     OW13803   3.289   0.051   2.317 -0.0680  0.0860  0.2695
 1315SOL    HW113804   3.377   0.064   2.365  1.0426  0.1018 -1.7251
 1315SOL    HW213805   3.306   0.044   2.219 -2.2457 -0.6991 -0.0635
 1316SOL     OW13806   4.324   3.062   1.368 -0.4000  0.3752 -0.7297
 1316SOL    HW113807   4.353   3.139   1.312 -0.2516  0.3902 -0.6326
 1316SOL    HW213808   4.356   3.074   1.461 -0.0091 -0.0076 -0.8116
 1317SOL     OW13809   3.120   4.136   1.843  0.1190 -0.2976 -0.2331
 1317SOL    HW113810   3.132   4.113   1.940  1.1299  1.5064  0.1061
 1317SOL    HW213811   3.024   4.156   1.825  0.0640  0.2672  0.6385
 1318SOL     OW13812   2.686   0.531   1.001 -0.6953 -0.2239 -0.7046
 1318SOL    HW113813   2.763   0.538   1.064  0.2578 -1.1609 -1.7500
 1318SOL    HW213814   2.610   0.484   1.047 -0.4983  0.2965  0.1776
 1319SOL     OW13815   2.935   1.858   0.780  0.5834  0.1244 -0.2585
 1319SOL    HW113816   2.905   1.781   0.837 -1.3370  0.3667 -0.8815
 1319SOL    HW213817   2.979   1.824   0.698  3.1401 -0.2320  1.2235
 1320SOL     OW13818   3.274   1.256   2.711  0.0698  0.1650  0.2391
 1320SOL    HW113819   3.231   1.169   2.687  1.6764 -0.4828 -0.3425
 1320SOL    HW213820   3.233   1.291   2.796 -1.6891 -0.3508 -0.3675
 1321SOL     OW13821   3.663   9.937   0.950  0.0067  0.5916 -0.0907
 1321SOL    HW113822   3.572   9.901   0.933 -0.7093  1.6605  1.3357
 1321SOL    HW213823   3.666  10.034   0.924  0.9584  0.3560 -0.8717
 1322SOL     OW13824   2.509   1.960   2.112 -0.7319  0.1570 -0.0934
 1322SOL    HW113825   2.545   2.024   2.044 -0.8738  0.8408  0.4636
 1322SOL    HW213826   2.480   2.011   2.193  0.3534 -0.7558  0.8727
 1323SOL     OW13827   3.169   7.510   1.454 -0.3340 -0.0672 -0.1263
 1323SOL    HW113828   3.165   7.558   1.542 -0.9750 -0.2326 -0.0637
 1323SOL    HW213829   3.146   7.414   1.467  1.5778 -0.5572 -0.1497
 1324SOL     OW13830   3.532   2.431   0.643  0.3006  0.3543 -0.2219
 1324SOL    HW113831   3.441   2.472   0.633  0.5562  1.2626  1.0519
 1324SOL    HW213832   3.522   2.333   0.658 -0.5140  0.5123  0.3685
 1325SOL     OW13833   3.550   4.258   0.971 -0.4505 -0.7449 -0.3022
 1325SOL    HW113834   3.607   4.336   0.997 -2.4809  0.1920  1.5510
 1325SOL    HW213835   3.582   4.176   1.018 -0.0404 -0.4312 -0.0304
 1326SOL     OW13836   3.241   3.903   2.157  0.4490 -0.5449 -0.2337
 1326SOL    HW113837   3.155   3.900   2.208  0.4789  1.1522 -0.0582
 1326SOL    HW213838   3.318   3.899   2.220  0.4901  0.1624 -0.2367
 1327SOL     OW13839   3.811   8.059   0.374 -0.3230  0.2021  0.3328
 1327SOL    HW113840   3.855   8.146   0.351 -1.5964  0.2781 -2.0463
 1327SOL    HW213841   3.746   8.072   0.448  0.0585  1.1184  0.5114
 1328SOL     OW13842   2.706   8.344   1.745 -0.0706  0.8757  0.1892
 1328SOL    HW113843   2.766   8.409   1.699  2.9299 -1.2026  1.0341
 1328SOL    HW213844   2.639   8.394   1.800  2.3969  3.2287  1.1466
 1329SOL     OW13845   4.385   4.033   1.984 -0.4611 -0.5414  0.2999
 1329SOL    HW113846   4.343   4.037   2.075 -1.5711  2.4223 -0.2786
 1329SOL    HW213847   4.379   4.123   1.941  1.9428 -1.3634 -1.8873
 1330SOL     OW13848   3.383   0.238   0.962  0.2922  0.5683  0.0147
 1330SOL    HW113849   3.394   0.277   1.053  0.9977  2.1210 -0.7199
 1330SOL    HW213850   3.388   0.310   0.893 -0.4822 -0.5461 -1.2556
 1331SOL     OW13851   3.516   2.149   0.756  0.0327 -0.6075 -0.4593
 1331SOL    HW113852   3.589   2.100   0.803 -0.6129 -1.3141 -0.1779
 1331SOL    HW213853   3.440   2.166   0.820 -0.8769 -1.6369 -1.2374
 1332SOL     OW13854   4.177   4.569   0.496  0.4393  0.6916  0.8735
 1332SOL    HW113855   4.262   4.607   0.462 -0.1429  1.3673  0.1455
 1332SOL    HW213856   4.152   4.489   0.442 -0.8431  2.1686 -0.8190
 1333SOL     OW13857   2.718   0.798   2.691  0.1766  0.8196 -0.1295
 1333SOL    HW113858   2.791   0.796   2.759  0.1531  1.4751 -0.0792
 1333SOL    HW213859   2.655   0.873   2.712 -1.0192 -0.3080  0.3544
 1334SOL     OW13860   2.981   6.749   0.920 -0.2011 -0.3213 -0.1069
 1334SOL    HW113861   2.974   6.707   1.011 -1.4048 -2.9182 -1.3736
 1334SOL    HW213862   3.030   6.689   0.858 -0.0320  1.1074 -1.3989
 1335SOL     OW13863   3.752   5.230   0.949 -0.3335  0.2066  0.1912
 1335SOL    HW113864   3.790   5.150   0.904 -0.8762  0.5516 -0.9126
 1335SOL    HW213865   3.813   5.260   1.022 -0.4689 -1.6281  1.0989
 1336SOL     OW13866   3.101   5.118   2.685  0.1525  0.0677  0.1605
 1336SOL    HW113867   3.041   5.052   2.730 -0.4216  1.8903  2.1486
 1336SOL    HW213868   3.045   5.192   2.646  0.9041  0.2331 -0.6073
 1337SOL     OW13869   3.373   8.617   2.014 -0.1126  0.2647  0.3778
 1337SOL    HW113870   3.338   8.660   1.931 -3.1424  0.7037  1.8230
 1337SOL    HW213871   3.408   8.687   2.076  2.0887 -0.0570 -0.4587
 1338SOL     OW13872   3.258   3.185   1.084 -0.0647 -0.6859 -0.3102
 1338SOL    HW113873   3.321   3.107   1.085  2.4038  1.2432 -0.9360
 1338SOL    HW213874   3.222   3.198   0.992  0.5491 -0.3040 -0.5005
 1339SOL     OW13875   3.142   9.735   1.091  0.0162  0.0448  0.2001
 1339SOL    HW113876   3.111   9.724   1.185 -0.8068 -1.6763 -0.2469
 1339SOL    HW213877   3.154   9.644   1.049 -0.4854  0.7925 -1.6193
 1340SOL     OW13878   2.100   7.111   0.004  0.1506 -0.5410 -0.4137
 1340SOL    HW113879   2.160   7.104  -0.075  0.4006  2.0547 -0.4741
 1340SOL    HW213880   2.007   7.085  -0.022  0.2577  0.1920 -1.5306
 1341SOL     OW13881   3.496   1.787   0.978  0.5794  0.2643 -0.0690
 1341SOL    HW113882   3.426   1.855   0.953  0.1402 -0.4822 -0.9283
 1341SOL    HW213883   3.470   1.742   1.063  0.9347  1.2636  0.5686
 1342SOL     OW13884   3.791   7.981   0.799  0.5341  0.2477  0.2463
 1342SOL    HW113885   3.839   7.896   0.780 -0.9083 -0.7133  0.8167
 1342SOL    HW213886   3.731   8.004   0.722  0.1745  0.2192  0.5156
 1343SOL     OW13887   3.627   1.182   1.165  0.1884  0.0075  0.4413
 1343SOL    HW113888   3.662   1.213   1.076 -1.4736 -0.1741 -0.2792
 1343SOL    HW213889   3.612   1.083   1.162  1.4006 -0.2209  1.3750
 1344SOL     OW13890   3.545   1.251   2.136  0.2066  0.1832  0.3272
 1344SOL    HW113891   3.497   1.173   2.095  0.4888  0.5589 -0.7429
 1344SOL    HW213892   3.592   1.303   2.064  1.8667  0.0701  1.3005
 1345SOL     OW13893   3.030   7.139   0.782 -0.4304  0.2640 -0.0545
 1345SOL    HW113894   3.074   7.122   0.870  1.7130  2.1419 -0.7168
 1345SOL    HW213895   2.987   7.055   0.750  2.3715 -1.5923  0.8259
 1346SOL     OW13896   4.543   8.600   0.706 -0.1410  0.2273  0.6119
 1346SOL    HW113897   4.509   8.656   0.781 -0.2461 -1.5590  1.9312
 1346SOL    HW213898   4.633   8.563   0.729  0.5322  0.9231 -0.8092
 1347SOL     OW13899   3.710   4.368   0.435  0.3019  1.5846 -0.0077
 1347SOL    HW113900   3.753   4.305   0.370  0.8060  1.2348  0.6596
 1347SOL    HW213901   3.613   4.376   0.414  0.4159  1.3063 -0.6688
 1348SOL     OW13902   3.777   2.201   0.428 -0.3018 -0.2784  0.5278
 1348SOL    HW113903   3.796   2.164   0.519 -1.4102  1.5949  1.5614
 1348SOL    HW213904   3.717   2.139   0.378  0.2852 -1.3047  1.0894
 1349SOL     OW13905   3.798   9.930   0.130 -0.0149  0.2066  0.4564
 1349SOL    HW113906   3.877   9.918   0.190 -0.5889 -0.7848  1.0149
 1349SOL    HW213907   3.814   9.884   0.043  0.7239  1.4535 -0.0780
 1350SOL     OW13908   2.426   5.240   0.708  0.0155 -0.0280 -0.9509
 1350SOL    HW113909   2.481   5.204   0.783  1.6222  0.5659 -1.8206
 1350SOL    HW213910   2.404   5.166   0.645 -0.6729 -0.3737 -0.3184
 1351SOL     OW13911   3.695   2.853   2.041 -0.0565  0.2454  0.8618
 1351SOL    HW113912   3.723   2.932   1.986 -0.8773  0.1266  0.2611
 1351SOL    HW213913   3.697   2.771   1.984 -1.6648  0.2411  0.7683
 1352SOL     OW13914   2.629   1.516   0.668 -0.3703 -0.2662 -0.2113
 1352SOL    HW113915   2.719   1.552   0.644  0.0699 -2.0714 -1.3502
 1352SOL    HW213916   2.566   1.529   0.591 -1.1072  0.9715  0.5741
 1353SOL     OW13917   4.519   2.076   2.606 -0.5649  0.0457  0.2762
 1353SOL    HW113918   4.477   2.131   2.534  0.0118 -0.5122 -0.4932
 1353SOL    HW213919   4.493   2.113   2.695 -1.0509  0.9156 -0.2164
 1354SOL     OW13920   2.356   9.567   0.024  0.4189  0.2062 -0.4001
 1354SOL    HW113921   2.414   9.516   0.088  1.1266  0.1819 -1.0505
 1354SOL    HW213922   2.289   9.621   0.075 -1.3793 -2.5515  0.3017
 1355SOL     OW13923   2.191   1.293   0.827  0.5080 -0.6892  0.2548
 1355SOL    HW113924   2.167   1.352   0.749  1.9860 -1.1064 -0.5439
 1355SOL    HW213925   2.217   1.203   0.793  0.4682 -1.0946  1.2974
 1356SOL     OW13926   3.127   6.469   0.320  0.1872  0.3708  0.0275
 1356SOL    HW113927   3.116   6.376   0.355  2.6194  0.1326  0.2202
 1356SOL    HW213928   3.050   6.525   0.352 -0.9539 -1.3874  0.4600
 1357SOL     OW13929   2.786   8.315   2.138  0.2878 -0.1575 -0.0430
 1357SOL    HW113930   2.702   8.297   2.086  0.8602 -1.2907 -0.5857
 1357SOL    HW213931   2.863   8.321   2.075  0.7643 -0.0673  0.5452
 1358SOL     OW13932   2.922   5.782   0.465  0.7067  0.8102 -0.7299
 1358SOL    HW113933   2.830   5.766   0.430  0.7847  2.1509 -1.5891
 1358SOL    HW213934   2.939   5.721   0.542 -0.6456  0.0672 -0.9971
 1359SOL     OW13935   3.829   3.873   2.716  0.0715 -0.2175  0.3773
 1359SOL    HW113936   3.875   3.945   2.665 -0.2281 -0.2160  0.1101
 1359SOL    HW213937   3.810   3.904   2.809 -0.4243  0.1915  0.1400
 1360SOL     OW13938   2.263   6.135   2.829  0.3420  0.1784  0.5986
 1360SOL    HW113939   2.355   6.104   2.804  0.8902  1.6934  0.7321
 1360SOL    HW213940   2.256   6.142   2.928  0.3875  0.9955  0.5446
 1361SOL     OW13941   2.830   0.092   0.744 -0.0848  0.4958  0.1059
 1361SOL    HW113942   2.757   0.026   0.729 -2.0320  2.3459  1.1868
 1361SOL    HW213943   2.870   0.076   0.835 -0.5053  0.7496  0.3378
 1362SOL     OW13944   4.410   2.397   2.201 -0.4830  0.6210 -0.9132
 1362SOL    HW113945   4.444   2.491   2.200  0.8191  0.1596 -0.8308
 1362SOL    HW213946   4.475   2.337   2.154  0.4377 -0.8119  2.0405
 1363SOL     OW13947   2.957   0.003   1.595 -0.5348  0.6276  0.3780
 1363SOL    HW113948   2.958   0.099   1.620 -2.0396 -0.3077  4.3870
 1363SOL    HW213949   2.864  -0.033   1.601  0.3315 -1.5847  1.1213
 1364SOL     OW13950   4.452   3.552   2.197 -0.1439  0.6703  0.1980
 1364SOL    HW113951   4.552   3.544   2.193 -0.1757 -0.9503  1.9027
 1364SOL    HW213952   4.417   3.573   2.106  1.6018 -0.6811 -0.8266
 1365SOL     OW13953   4.522   1.389   0.806  0.0017  0.6715  0.8730
 1365SOL    HW113954   4.597   1.454   0.790 -0.5490  1.0769 -0.0886
 1365SOL    HW213955   4.535   1.345   0.895  0.6545  1.7344  1.3199
 1366SOL     OW13956   3.716   5.702   2.446  0.1423 -0.0916 -0.9541
 1366SOL    HW113957   3.784   5.628   2.448 -1.3941 -1.5432 -0.9971
 1366SOL    HW213958   3.646   5.685   2.516  0.2702  1.8237 -0.3496
 1367SOL     OW13959   2.115   2.321   1.683 -0.3580 -0.1769 -0.2340
 1367SOL    HW113960   2.023   2.306   1.645 -0.5828 -0.5809  0.4670
 1367SOL    HW213961   2.183   2.295   1.615 -0.7533 -2.1597  0.0871
 1368SOL     OW13962   2.897   3.594   1.372  0.3899  0.0934 -0.2477
 1368SOL    HW113963   2.805   3.590   1.411  1.0253 -0.3229  1.2428
 1368SOL    HW213964   2.939   3.682   1.395  0.1425  0.5303 -1.4486
 1369SOL     OW13965   2.056   4.814   0.420  0.4220 -0.8774  0.0993
 1369SOL    HW113966   2.032   4.756   0.342  0.9466 -0.7437 -0.1577
 1369SOL    HW213967   1.993   4.795   0.496 -0.8795 -0.1148 -0.7730
 1370SOL     OW13968   2.962   1.791   1.168  0.5697  0.5578  0.2467
 1370SOL    HW113969   2.939   1.702   1.128 -2.0273  1.8879 -1.4382
 1370SOL    HW213970   2.996   1.852   1.096  2.4549  0.9128  1.4057
 1371SOL     OW13971   3.131   6.291   1.169  0.0310  0.7844 -0.0625
 1371SOL    HW113972   3.082   6.236   1.101  0.0186  0.0964  0.4916
 1371SOL    HW213973   3.228   6.265   1.168  0.0747  0.9508  0.0047
 1372SOL     OW13974   5.264   4.008   0.729 -0.6883 -0.2123 -0.0220
 1372SOL    HW113975   5.251   4.050   0.639 -1.2716 -0.3715 -0.0138
 1372SOL    HW213976   5.219   3.919   0.731  1.4256 -1.3057 -0.3708
 1373SOL     OW13977   2.175   0.856   2.831  0.2394  0.3341 -0.1056
 1373SOL    HW113978   2.156   0.798   2.751 -0.3194  0.2961  0.0506
 1373SOL    HW213979   2.196   0.949   2.800  1.7646 -0.0896 -0.3944
 1374SOL     OW13980   4.104   0.822   0.833 -0.4846 -0.7371 -0.1759
 1374SOL    HW113981   4.068   0.774   0.913 -0.7365 -0.1298  0.0813
 1374SOL    HW213982   4.036   0.820   0.760 -1.0720  0.4373  0.3205
 1375SOL     OW13983   3.538   3.460   0.047  0.0494 -0.4682  0.3000
 1375SOL    HW113984   3.502   3.412   0.127 -0.9653 -1.2421 -0.5966
 1375SOL    HW213985   3.638   3.461   0.051  0.0191 -0.9646  1.3063
 1376SOL     OW13986   2.819   9.158   2.701  0.0731 -0.7254 -0.7326
 1376SOL    HW113987   2.817   9.219   2.781  0.1274  0.4273 -1.5974
 1376SOL    HW213988   2.783   9.068   2.727  0.0877 -0.3662  0.5890
 1377SOL     OW13989   2.372   6.181   2.408  0.5931 -0.0712  0.6335
 1377SOL    HW113990   2.455   6.150   2.363  0.4387 -1.1176  1.0571
 1377SOL    HW213991   2.369   6.281   2.407  1.2069 -0.0529 -0.5466
 1378SOL     OW13992   2.823   4.378   0.973 -0.0980  0.2653 -0.1560
 1378SOL    HW113993   2.819   4.296   0.915  0.1494 -0.3278  0.6556
 1378SOL    HW213994   2.745   4.437   0.954 -2.7285 -2.2520  2.3646
 1379SOL     OW13995   2.109   5.343   2.476 -0.6449 -0.2650 -0.1479
 1379SOL    HW113996   2.167   5.360   2.556  2.1344  0.0034 -2.1552
 1379SOL    HW213997   2.034   5.409   2.476  0.2793  0.8412  1.3544
 1380SOL     OW13998   2.396   2.402   2.383  0.1031 -0.2654 -0.0024
 1380SOL    HW113999   2.408   2.418   2.285 -1.1584 -0.7504 -0.2543
 1380SOL    HW214000   2.299   2.385   2.402  0.3468 -0.2541  1.3207
 1381SOL     OW14001   3.365   9.574   1.920 -0.0298 -0.1547  0.2864
 1381SOL    HW114002   3.437   9.616   1.864 -0.9325  0.3450 -0.5222
 1381SOL    HW214003   3.318   9.644   1.973  1.9718 -0.8336  3.0757
 1382SOL     OW14004   3.072   0.364   1.503 -0.0615 -0.1555 -0.1771
 1382SOL    HW114005   3.046   0.337   1.596 -0.0516 -0.5219 -0.2797
 1382SOL    HW214006   3.002   0.332   1.439 -1.0926  1.8127 -0.0901
 1383SOL     OW14007   2.061   6.521   1.996 -0.9420  0.2620 -0.0244
 1383SOL    HW114008   2.122   6.497   2.071 -1.3586  0.1782  0.2910
 1383SOL    HW214009   2.026   6.437   1.953 -1.1586  0.3073  0.0610
 1384SOL     OW14010   3.675   8.534   0.780 -0.1524  0.4702 -0.1851
 1384SOL    HW114011   3.623   8.541   0.866 -0.7346  0.1363 -0.5078
 1384SOL    HW214012   3.751   8.471   0.793 -0.8271 -0.3612 -0.1968
 1385SOL     OW14013   3.615   8.593   2.636 -0.3550 -0.3612  0.1458
 1385SOL    HW114014   3.640   8.612   2.541  1.8386  0.7663  0.9127
 1385SOL    HW214015   3.593   8.496   2.645  0.2893 -0.6621 -1.3196
 1386SOL     OW14016   3.127   0.824   1.333 -0.2476  1.3629  0.1086
 1386SOL    HW114017   3.152   0.800   1.239  1.7492  0.5322  0.8286
 1386SOL    HW214018   3.164   0.756   1.396  2.6829  4.5153  1.9194
 1387SOL     OW14019   2.764   0.884   0.788  0.3616  0.2593  0.4893
 1387SOL    HW114020   2.812   0.830   0.857  0.3973 -1.4259 -0.8067
 1387SOL    HW214021   2.670   0.901   0.818  1.1785  1.9167  2.1654
 1388SOL     OW14022   2.996   4.453   0.032  0.0030 -0.0190  0.5936
 1388SOL    HW114023   3.000   4.460   0.132  2.2924 -1.3871  0.6479
 1388SOL    HW214024   2.926   4.387   0.006  1.2507 -1.7069  1.4331
 1389SOL     OW14025   2.917   8.893   2.424  0.1056 -0.4926 -0.2885
 1389SOL    HW114026   2.893   8.803   2.388 -1.4624 -0.0078 -0.4897
 1389SOL    HW214027   2.967   8.882   2.510 -2.8445 -1.5034  1.3624
 1390SOL     OW14028   2.358   0.768   2.318 -0.3166  0.0005 -0.5770
 1390SOL    HW114029   2.444   0.768   2.268  0.6864 -0.2518  1.1179
 1390SOL    HW214030   2.329   0.863   2.333  0.8655  0.1448  0.8574
 1391SOL     OW14031   3.761   4.741   2.775 -0.2653  0.0441  0.7735
 1391SOL    HW114032   3.672   4.736   2.731 -0.2237 -0.6035  0.7609
 1391SOL    HW214033   3.819   4.806   2.725 -0.8320  0.7042  0.9724
 1392SOL     OW14034   4.184   4.450   2.248 -0.3044  0.1574 -0.4372
 1392SOL    HW114035   4.275   4.413   2.227  0.1411  1.0913 -0.1933
 1392SOL    HW214036   4.151   4.413   2.335 -0.0427  0.0188 -0.3981
 1393SOL     OW14037   3.161   0.456   1.179  0.0719 -0.0871  0.5542
 1393SOL    HW114038   3.101   0.377   1.192  0.6040 -0.7061 -0.6938
 1393SOL    HW214039   3.175   0.472   1.081  1.0204  0.7591  0.8142
 1394SOL     OW14040   2.226   3.368   1.161  0.3606 -0.1703 -0.6617
 1394SOL    HW114041   2.302   3.323   1.207  1.8407  2.5839 -0.3123
 1394SOL    HW214042   2.238   3.363   1.062 -0.7415 -2.5675 -0.7163
 1395SOL     OW14043   2.065   2.594   1.744 -0.0012 -0.1630 -0.0362
 1395SOL    HW114044   2.154   2.608   1.787 -0.8883  0.9500  1.4681
 1395SOL    HW214045   2.066   2.508   1.693  2.1514  0.1756 -0.6276
 1396SOL     OW14046   3.659   9.116   0.587 -0.0813 -0.0310 -0.4917
 1396SOL    HW114047   3.651   9.090   0.491  0.4668 -1.4968 -0.1617
 1396SOL    HW214048   3.578   9.168   0.615 -0.7775 -0.6024 -1.4350
 1397SOL     OW14049   4.612   8.241   1.223 -0.1815  0.6284  0.2567
 1397SOL    HW114050   4.640   8.310   1.290  1.2755 -0.5973  0.9407
 1397SOL    HW214051   4.635   8.150   1.258  0.9103 -0.0072 -2.0600
 1398SOL     OW14052   2.101   9.419   1.920  0.6697 -0.7058  0.2715
 1398SOL    HW114053   2.180   9.371   1.882  0.7868 -0.0137 -0.3659
 1398SOL    HW214054   2.058   9.475   1.848 -0.1371 -0.7414  0.7218
 1399SOL     OW14055   3.668   8.664   2.381 -0.2287  0.5060 -0.1613
 1399SOL    HW114056   3.594   8.715   2.338 -0.0615  3.1612  2.4842
 1399SOL    HW214057   3.753   8.718   2.377  0.5463 -0.6258  0.5376
 1400SOL     OW14058   2.779   6.871   0.433  0.2506  0.2040  0.0605
 1400SOL    HW114059   2.869   6.901   0.466 -0.2930  0.2155  1.5730
 1400SOL    HW214060   2.742   6.940   0.372  0.9706  0.5324 -0.0178
 1401SOL     OW14061   3.066   6.690   1.811  0.0341 -0.2078  0.4679
 1401SOL    HW114062   3.101   6.727   1.897 -1.6067  0.7102  0.7587
 1401SOL    HW214063   3.043   6.766   1.749  1.5886 -0.8570 -0.9574
 1402SOL     OW14064   4.523   2.322   0.995  0.4849  0.6672  0.2557
 1402SOL    HW114065   4.501   2.238   0.947  0.3472 -0.1299  1.6936
 1402SOL    HW214066   4.595   2.305   1.062 -0.3860  1.4156  1.4049
 1403SOL     OW14067   1.611   6.792   0.698 -0.0125  0.0927  0.7157
 1403SOL    HW114068   1.690   6.853   0.702  0.0744 -0.0321  0.9601
 1403SOL    HW214069   1.579   6.785   0.604 -1.2803  2.1040  0.9651
 1404SOL     OW14070   2.494   6.178   2.695  0.0089  0.0814  0.9528
 1404SOL    HW114071   2.419   6.201   2.634  0.8227 -1.2353 -0.5773
 1404SOL    HW214072   2.549   6.260   2.712 -0.8645  0.7051  0.8450
 1405SOL     OW14073   4.934   3.751   0.544 -0.3692 -0.1475  0.4034
 1405SOL    HW114074   5.023   3.719   0.575 -0.1165  0.1795  0.0287
 1405SOL    HW214075   4.933   3.851   0.543 -0.2567 -0.1462 -0.9515
 1406SOL     OW14076   3.212   0.483   0.551 -0.4502  0.6213 -0.9093
 1406SOL    HW114077   3.289   0.544   0.570  0.9951 -1.3032 -0.4268
 1406SOL    HW214078   3.127   0.531   0.569  0.7099  1.4686  2.6716
 1407SOL     OW14079   1.907   6.222   1.208 -0.4692 -0.2186  0.0091
 1407SOL    HW114080   1.896   6.162   1.287 -1.6481 -0.4313 -0.3178
 1407SOL    HW214081   1.978   6.290   1.228 -1.8662  0.7424  1.8636
 1408SOL     OW14082   2.781   9.643   2.032 -0.0756  0.1574  0.1857
 1408SOL    HW114083   2.840   9.602   2.101 -0.5615  0.0582  0.5450
 1408SOL    HW214084   2.776   9.583   1.952  0.7637  0.4360 -0.0837
 1409SOL     OW14085   3.836   2.615   1.926 -0.0950  0.3460  0.6249
 1409SOL    HW114086   3.820   2.542   1.859 -1.5266 -0.0495  1.3705
 1409SOL    HW214087   3.933   2.637   1.929  0.4463 -1.9553  0.8302
 1410SOL     OW14088   3.475   3.148   2.527 -0.7062  0.1544 -0.1260
 1410SOL    HW114089   3.443   3.163   2.434  2.6141  0.6581 -1.2800
 1410SOL    HW214090   3.425   3.208   2.590 -0.2367  2.7911 -2.1578
 1411SOL     OW14091   3.052   7.661   2.204 -0.0668 -0.2188 -0.1525
 1411SOL    HW114092   3.112   7.739   2.190  0.3292 -0.6664 -0.9901
 1411SOL    HW214093   3.094   7.597   2.268 -0.6811  0.5464  1.0492
 1412SOL     OW14094   4.482   2.546   0.853 -0.6256  0.2841 -0.2336
 1412SOL    HW114095   4.399   2.491   0.867 -1.0275  0.5237 -1.5328
 1412SOL    HW214096   4.561   2.497   0.890 -1.3508  0.0851  1.0894
 1413SOL     OW14097   5.265   3.485   1.153  0.2192  0.1990 -0.1285
 1413SOL    HW114098   5.346   3.523   1.198  0.2429  0.4825 -0.4037
 1413SOL    HW214099   5.265   3.513   1.057 -2.3765  3.7167  0.7863
 1414SOL     OW14100   3.342   3.030   0.748 -0.1875  0.5251  0.5549
 1414SOL    HW114101   3.282   3.053   0.825 -4.0188 -1.5269 -1.6994
 1414SOL    HW214102   3.372   3.114   0.703 -0.0798  1.6390  2.6364
 1415SOL     OW14103   2.819   9.218   1.109  0.1975 -0.7074 -0.5520
 1415SOL    HW114104   2.874   9.257   1.183 -2.2378  2.4660 -0.3430
 1415SOL    HW214105   2.761   9.146   1.145  0.5119 -0.5809  0.2139
 1416SOL     OW14106   3.419   2.684   2.691 -0.0945 -0.5475  0.8014
 1416SOL    HW114107   3.454   2.593   2.716 -0.1463 -0.2937  1.8222
 1416SOL    HW214108   3.495   2.747   2.679 -0.1511 -0.0246  2.9064
 1417SOL     OW14109   2.439   7.664   1.532  0.2818  0.0444 -0.2279
 1417SOL    HW114110   2.450   7.590   1.598 -1.7167 -0.6359 -0.5928
 1417SOL    HW214111   2.436   7.752   1.579 -2.8903 -0.5633  0.8212
 1418SOL     OW14112   3.683   0.301   0.433  0.1699 -0.2111  1.0577
 1418SOL    HW114113   3.754   0.232   0.447  1.7447  1.0679 -0.4553
 1418SOL    HW214114   3.617   0.268   0.366  0.5386 -0.5219  0.8481
 1419SOL     OW14115   3.012   4.765   1.568  0.2173 -0.2313 -0.3680
 1419SOL    HW114116   3.087   4.831   1.559  1.8063 -1.6913  1.8489
 1419SOL    HW214117   3.020   4.696   1.496  2.2612 -1.5761  1.1096
 1420SOL     OW14118   2.140   6.240   2.179  0.2509  0.1049 -0.3626
 1420SOL    HW114119   2.152   6.299   2.259 -0.6194 -0.0181 -0.1360
 1420SOL    HW214120   2.091   6.157   2.206  1.0300 -0.4992 -0.7809
 1421SOL     OW14121   4.803   1.678   1.328  0.1202 -0.3387  0.3922
 1421SOL    HW114122   4.821   1.731   1.245 -1.4480 -1.2828 -0.5700
 1421SOL    HW214123   4.768   1.588   1.304 -3.6232  0.5566  2.1063
 1422SOL     OW14124   4.006   0.489   2.521  0.6929  0.2389  0.0224
 1422SOL    HW114125   4.036   0.574   2.563 -0.7207  0.8706 -0.2121
 1422SOL    HW214126   3.906   0.487   2.518  0.6952 -1.6274  0.4402
 1423SOL     OW14127   2.607   0.491   1.604  0.1709  0.3072 -0.1017
 1423SOL    HW114128   2.575   0.526   1.517  0.3608 -0.0170 -0.3024
 1423SOL    HW214129   2.555   0.533   1.678  1.7671  2.5872 -0.2180
 1424SOL     OW14130   4.493   3.637   2.831 -0.5050  0.3255 -0.0264
 1424SOL    HW114131   4.418   3.577   2.860 -0.2238 -0.6228 -1.2056
 1424SOL    HW214132   4.467   3.685   2.748 -1.1092  2.6329  1.4553
 1425SOL     OW14133   3.106   8.501   0.458 -0.2493  0.1077 -0.5926
 1425SOL    HW114134   3.135   8.440   0.532 -1.0642 -0.4810 -0.7567
 1425SOL    HW214135   3.128   8.595   0.483 -0.0571 -0.1358  0.1806
 1426SOL     OW14136   3.283   3.684   1.976  0.6360 -0.3805  0.2560
 1426SOL    HW114137   3.258   3.754   2.043  0.9928 -0.6933  0.7270
 1426SOL    HW214138   3.290   3.725   1.885  1.1279  0.2550  0.5763
 1427SOL     OW14139   2.579   8.655   2.440  0.5608 -0.3926  0.9269
 1427SOL    HW114140   2.503   8.621   2.384  1.2801  0.9633 -0.9159
 1427SOL    HW214141   2.664   8.612   2.411  1.0106  0.6774  0.6420
 1428SOL     OW14142   3.063   2.695   0.414 -0.4971  0.3309 -0.5472
 1428SOL    HW114143   2.973   2.670   0.449 -1.7261  2.3276 -2.1484
 1428SOL    HW214144   3.108   2.758   0.478 -0.8740  0.5034 -0.4502
 1429SOL     OW14145   1.920   2.905   2.245  0.6058 -0.1945  0.3583
 1429SOL    HW114146   1.861   2.985   2.243 -1.0609 -1.3051  2.5034
 1429SOL    HW214147   2.015   2.933   2.233  0.0395  2.1099  1.0580
 1430SOL     OW14148   3.218   1.982   1.251  0.2848  0.4604  0.0249
 1430SOL    HW114149   3.301   2.033   1.229 -0.0938  2.7521  3.4995
 1430SOL    HW214150   3.148   2.001   1.181  1.3946  1.6416 -0.7925
 1431SOL     OW14151   2.111   7.870   0.852 -0.5409  0.2632 -0.1468
 1431SOL    HW114152   2.176   7.871   0.927 -0.3039 -1.5180 -0.3143
 1431SOL    HW214153   2.042   7.941   0.867  0.5478  1.1482  0.7937
 1432SOL     OW14154   2.949   1.931   2.632  0.2881  0.1276  0.3142
 1432SOL    HW114155   2.896   2.011   2.606  0.8557 -0.0129 -1.3788
 1432SOL    HW214156   3.038   1.933   2.586  0.0071 -1.8497 -0.3906
 1433SOL     OW14157   3.844   1.023   1.562 -0.4370 -0.2190 -0.1182
 1433SOL    HW114158   3.900   0.961   1.617  0.6718  0.6361 -0.2665
 1433SOL    HW214159   3.816   1.101   1.618 -1.9629 -0.9093  0.1113
 1434SOL     OW14160   2.163   3.674   0.068 -0.2764 -0.3380 -0.5774
 1434SOL    HW114161   2.212   3.679  -0.019 -0.9034  1.7677 -0.8393
 1434SOL    HW214162   2.064   3.674   0.051 -0.4396 -3.0850  0.0190
 1435SOL     OW14163   1.883   3.372   1.453  0.7024  0.4713  0.0305
 1435SOL    HW114164   1.818   3.358   1.527 -0.2911 -0.0431 -0.9109
 1435SOL    HW214165   1.889   3.470   1.431  0.1563  0.5088  0.0462
 1436SOL     OW14166   2.683   8.461   0.171  0.1356  0.0171 -0.0546
 1436SOL    HW114167   2.690   8.387   0.105  1.8308  0.7966 -0.7735
 1436SOL    HW214168   2.741   8.441   0.250  0.2371  0.3693 -0.0392
 1437SOL     OW14169   2.265   3.561   1.614 -0.3930 -0.6554 -0.2882
 1437SOL    HW114170   2.177   3.608   1.625 -0.1963 -0.3738  0.0898
 1437SOL    HW214171   2.259   3.471   1.656  0.1354  0.1470  1.5798
 1438SOL     OW14172   6.788   9.735   1.351 -0.4078 -0.7173 -0.0599
 1438SOL    HW114173   6.793   9.830   1.321  0.8323 -0.2131  1.6385
 1438SOL    HW214174   6.778   9.675   1.272 -1.7519  0.8468 -1.1110
 1439SOL     OW14175   2.858   1.131   0.208 -0.0287  0.0968 -0.3878
 1439SOL    HW114176   2.945   1.171   0.234 -0.6302  1.3506 -0.2751
 1439SOL    HW214177   2.849   1.040   0.249 -0.2163  1.3178  2.3964
 1440SOL     OW14178   2.910   2.899   0.670 -0.0304 -0.0812 -1.2360
 1440SOL    HW114179   2.918   2.810   0.625 -0.4156 -1.1609  0.7673
 1440SOL    HW214180   2.819   2.937   0.652 -0.2625 -0.6067 -1.2126
 1441SOL     OW14181   4.721   0.787   1.246  0.1658 -0.0716 -0.2048
 1441SOL    HW114182   4.701   0.834   1.160 -2.6888  2.2392  1.6299
 1441SOL    HW214183   4.662   0.707   1.254 -1.3463  1.1134  0.6916
 1442SOL     OW14184   3.218   2.248   1.413 -0.7319  0.4185  0.4590
 1442SOL    HW114185   3.233   2.302   1.330  0.9400 -0.5584  0.0942
 1442SOL    HW214186   3.221   2.150   1.389 -0.0770  0.1325  1.6961
 1443SOL     OW14187   2.496   6.153   0.213 -0.1512 -0.2008  0.5236
 1443SOL    HW114188   2.511   6.056   0.191 -0.8613 -0.2966  0.4496
 1443SOL    HW214189   2.501   6.165   0.312 -1.7622 -0.6122  0.6572
 1444SOL     OW14190   1.774   3.289   1.006  0.2563 -0.2226 -0.7281
 1444SOL    HW114191   1.833   3.318   1.081  1.3043 -0.9187 -1.2699
 1444SOL    HW214192   1.723   3.207   1.034  0.2881 -0.2061 -0.6194
 1445SOL     OW14193   3.597   2.903   2.600  0.3473  0.8929 -0.0991
 1445SOL    HW114194   3.696   2.916   2.593  0.4177  1.1655  1.2341
 1445SOL    HW214195   3.551   2.990   2.585  0.3237  0.8087 -0.5075
 1446SOL     OW14196   4.386   9.172   0.808  0.5235  0.5571 -0.3093
 1446SOL    HW114197   4.397   9.215   0.897 -0.5861 -0.3178  0.2589
 1446SOL    HW214198   4.328   9.091   0.817  1.3489 -0.1922 -1.6256
 1447SOL     OW14199   4.291   8.504   0.472  0.0313  0.1840  0.0792
 1447SOL    HW114200   4.327   8.535   0.385 -0.2963  0.1941 -0.0534
 1447SOL    HW214201   4.343   8.545   0.547  0.6897 -0.2884 -0.1209
 1448SOL     OW14202   2.546   3.599   2.117  0.6037  0.1721 -0.6964
 1448SOL    HW114203   2.557   3.692   2.153  1.9676 -0.6562  1.0661
 1448SOL    HW214204   2.583   3.595   2.024 -2.6431  2.2434 -2.1901
 1449SOL     OW14205   4.353   8.424   0.818  0.1341 -0.3141  0.1671
 1449SOL    HW114206   4.392   8.421   0.910  0.6650 -1.0092 -0.0778
 1449SOL    HW214207   4.426   8.441   0.752 -0.3907  1.2445 -0.0410
 1450SOL     OW14208   3.352   0.530   2.001  0.7543 -0.2181  0.3335
 1450SOL    HW114209   3.340   0.527   1.902 -1.8797 -1.3056  0.6447
 1450SOL    HW214210   3.435   0.482   2.027  0.2454 -1.9423 -1.1787
 1451SOL     OW14211   3.705   0.269   1.110 -0.4152  0.3860  0.2559
 1451SOL    HW114212   3.770   0.345   1.107 -1.2430  1.0601 -0.9174
 1451SOL    HW214213   3.685   0.239   1.017  0.5502 -1.8401  0.7464
 1452SOL     OW14214   3.187   2.117   0.620  0.1832 -0.7957  1.0471
 1452SOL    HW114215   3.213   2.119   0.523 -1.0493  0.4265  0.7239
 1452SOL    HW214216   3.265   2.085   0.674  1.8596  1.2426 -0.0632
 1453SOL     OW14217   2.377   5.032   2.185  0.3573 -0.1161  0.1156
 1453SOL    HW114218   2.387   4.992   2.093  1.9454  1.1441 -0.2888
 1453SOL    HW214219   2.294   4.998   2.227 -0.0367 -1.2608 -1.5317
 1454SOL     OW14220   2.948   1.052   0.635  0.4468 -0.5517 -0.2993
 1454SOL    HW114221   2.880   1.012   0.697 -0.3576  0.3339 -0.5836
 1454SOL    HW214222   3.001   0.980   0.592  0.5831 -1.1951  0.9505
 1455SOL     OW14223   3.927   3.673   1.386  0.2767 -0.4372  0.4766
 1455SOL    HW114224   3.883   3.712   1.466 -0.6492 -0.7703  0.1333
 1455SOL    HW214225   3.859   3.653   1.316  1.2889  1.5642 -1.1320
 1456SOL     OW14226   2.080   5.105   1.114  0.5912  0.3742  0.1089
 1456SOL    HW114227   2.072   5.188   1.169 -0.2643  0.0814  0.4203
 1456SOL    HW214228   1.993   5.086   1.068  1.1760  0.4030 -1.0453
 1457SOL     OW14229   3.805   1.326   2.310  0.6761  0.4188 -0.2955
 1457SOL    HW114230   3.731   1.393   2.303  0.6443  0.4328  0.1623
 1457SOL    HW214231   3.885   1.360   2.262  0.5249  0.6001 -0.4199
 1458SOL     OW14232   2.490   8.414   1.928 -0.1325 -0.3359  0.7295
 1458SOL    HW114233   2.459   8.396   2.021 -1.3631  2.3253  0.8971
 1458SOL    HW214234   2.411   8.422   1.867  0.5365  0.1443 -0.0910
 1459SOL     OW14235   2.502   9.119   1.250 -0.5566  0.1287 -0.6466
 1459SOL    HW114236   2.455   9.042   1.207  0.2193 -1.3898  1.1355
 1459SOL    HW214237   2.440   9.166   1.312 -0.3423 -0.5856  0.1184
 1460SOL     OW14238   4.000   3.986   1.999 -0.3385  0.2991  0.2214
 1460SOL    HW114239   4.030   4.051   2.069  1.4871  2.0015 -2.0562
 1460SOL    HW214240   3.912   4.016   1.962  1.1325  2.2953 -1.7630
 1461SOL     OW14241   3.719   1.325   1.400 -0.3510  0.0432  0.0192
 1461SOL    HW114242   3.690   1.256   1.334  0.4751 -0.6453  0.3678
 1461SOL    HW214243   3.640   1.354   1.455 -0.6709 -0.7307 -0.0272
 1462SOL     OW14244   3.976   0.057   0.759 -0.3086  0.0049 -0.1153
 1462SOL    HW114245   3.937   0.113   0.832  3.6873  0.8552  1.4661
 1462SOL    HW214246   3.974  -0.040   0.786 -0.5192  0.1203  0.2827
 1463SOL     OW14247   4.382   1.550   0.610  0.0439  0.0670 -0.7280
 1463SOL    HW114248   4.381   1.523   0.514  0.6500  0.7046 -0.9197
 1463SOL    HW214249   4.441   1.487   0.661  0.1428  0.0447 -0.8696
 1464SOL     OW14250   3.764   9.696   1.932  0.7378 -0.2479  0.3376
 1464SOL    HW114251   3.703   9.694   1.853  2.9119 -0.4257 -1.3863
 1464SOL    HW214252   3.772   9.604   1.971  0.1746 -0.2846  0.3670
 1465SOL     OW14253   3.409   0.689   0.366  0.7637  0.3926 -0.1664
 1465SOL    HW114254   3.394   0.607   0.310  3.7477  0.1639 -0.7344
 1465SOL    HW214255   3.392   0.771   0.311 -0.4229  0.1798 -0.1359
 1466SOL     OW14256   2.539   9.090   0.238 -0.5616 -0.0322  0.0403
 1466SOL    HW114257   2.511   9.013   0.295  0.6796 -0.0337  0.6695
 1466SOL    HW214258   2.515   9.072   0.142  0.9838 -1.8274 -0.0206
 1467SOL     OW14259   2.275   4.671   0.388 -0.4107  0.1847 -0.2356
 1467SOL    HW114260   2.347   4.719   0.338 -0.5264  0.7524  0.1401
 1467SOL    HW214261   2.199   4.733   0.405 -1.0257 -0.4341 -0.6992
 1468SOL     OW14262   2.452   2.396   1.764 -1.0864  0.3696  0.3260
 1468SOL    HW114263   2.383   2.458   1.803 -1.4729  0.4998 -0.5532
 1468SOL    HW214264   2.440   2.392   1.665  2.2253  2.9467 -0.2704
 1469SOL     OW14265   2.589   2.145   0.120 -0.0007 -0.4803  0.2558
 1469SOL    HW114266   2.531   2.209   0.171  2.0020  0.8459  0.9331
 1469SOL    HW214267   2.668   2.193   0.083  2.7518 -2.8951  2.6722
 1470SOL     OW14268   2.479   1.545   0.443 -0.1454 -0.4491  0.2563
 1470SOL    HW114269   2.461   1.614   0.374  1.0703 -1.1766 -0.8109
 1470SOL    HW214270   2.417   1.468   0.431 -0.3913 -0.2720  0.4007
 1471SOL     OW14271   2.862   9.737   2.524 -0.2361  0.1313 -0.6312
 1471SOL    HW114272   2.770   9.699   2.530 -0.1873 -0.0950 -1.3038
 1471SOL    HW214273   2.907   9.729   2.612  0.2128 -2.4440 -1.0658
 1472SOL     OW14274   3.011   4.655   1.827  0.2988 -0.2290  0.2527
 1472SOL    HW114275   3.010   4.715   1.748 -0.1785  0.7126  0.9662
 1472SOL    HW214276   3.051   4.703   1.905 -1.1476 -0.4302  1.1351
 1473SOL     OW14277   2.313   0.548   0.515  0.1073 -0.8752  0.3052
 1473SOL    HW114278   2.219   0.571   0.488  0.4876 -0.1136 -0.4240
 1473SOL    HW214279   2.352   0.487   0.446 -0.5190 -2.8310  1.6553
 1474SOL     OW14280   4.376   4.200   1.539 -0.4860 -0.0018 -0.0828
 1474SOL    HW114281   4.439   4.241   1.474 -0.3053  1.6568  1.1040
 1474SOL    HW214282   4.320   4.271   1.582 -2.8458 -1.3798 -0.7386
 1475SOL     OW14283   4.542   1.133   2.449  0.4086 -0.1913  0.1341
 1475SOL    HW114284   4.490   1.108   2.530  0.2087 -0.9002 -0.2038
 1475SOL    HW214285   4.639   1.134   2.470  0.5820 -3.1572 -0.3004
 1476SOL     OW14286   3.109   0.360   2.778  0.4101 -0.1326  0.3966
 1476SOL    HW114287   3.119   0.347   2.877  2.9019 -0.6578  0.0988
 1476SOL    HW214288   3.072   0.278   2.737 -0.6447  0.0896  0.8942
 1477SOL     OW14289   2.507   6.460   0.562 -0.7854 -0.4559  0.0687
 1477SOL    HW114290   2.479   6.426   0.653 -0.7182 -1.3366 -0.2350
 1477SOL    HW214291   2.558   6.545   0.573 -1.6410 -0.0146  0.7937
 1478SOL     OW14292   4.020   4.166   1.220  0.1422 -0.0466 -0.0508
 1478SOL    HW114293   4.001   4.194   1.125  0.4170  0.3173 -0.0019
 1478SOL    HW214294   4.041   4.068   1.222 -0.2750 -0.1432 -0.3079
 1479SOL     OW14295   4.065   0.816   2.006 -0.8786  0.0576  0.2720
 1479SOL    HW114296   4.100   0.723   2.021 -1.6279 -0.2806 -0.0429
 1479SOL    HW214297   4.141   0.881   2.005 -0.1440 -0.8048 -1.5310
 1480SOL     OW14298   3.838   0.555   1.817  0.2536 -0.2233 -0.1062
 1480SOL    HW114299   3.916   0.518   1.766  0.1786 -1.3490  0.5811
 1480SOL    HW214300   3.754   0.538   1.766  0.3029 -0.3261 -0.1549
 1481SOL     OW14301   2.264   7.067   1.399 -0.2997 -0.0281  0.0710
 1481SOL    HW114302   2.189   7.012   1.437 -0.6647  1.4921  1.5892
 1481SOL    HW214303   2.342   7.008   1.379  0.7348 -0.6080  5.2868
 1482SOL     OW14304   2.445   6.845   0.436  0.2959  0.3135  0.1907
 1482SOL    HW114305   2.470   6.919   0.374 -0.2991  0.7592  0.4789
 1482SOL    HW214306   2.410   6.768   0.383 -3.3111  1.9005  0.1152
 1483SOL     OW14307   2.675   4.359   1.981 -0.9426 -0.0390 -0.1402
 1483SOL    HW114308   2.754   4.416   2.003 -2.0494  2.2638 -1.9047
 1483SOL    HW214309   2.694   4.265   2.007  1.5001  0.8587  1.5398
 1484SOL     OW14310   2.422   1.779   0.587 -0.3392  0.2089 -0.4980
 1484SOL    HW114311   2.434   1.696   0.534  0.6968  0.0354  0.0040
 1484SOL    HW214312   2.489   1.847   0.558  0.8447 -0.2091  1.2216
 1485SOL     OW14313   4.013   4.066   2.657 -0.1762 -0.3385  0.2645
 1485SOL    HW114314   4.012   4.160   2.622 -0.5296 -0.3836  0.1471
 1485SOL    HW214315   4.030   4.068   2.756  1.6196 -0.2591 -0.0405
 1486SOL     OW14316   3.912   2.436   1.302 -0.2922  0.1750 -0.4020
 1486SOL    HW114317   3.985   2.398   1.246 -1.1263 -0.7072 -0.9031
 1486SOL    HW214318   3.863   2.362   1.347 -0.7099  0.7781  0.1444
 1487SOL     OW14319   3.504   8.145   2.228  0.1758  0.0853  0.4723
 1487SOL    HW114320   3.542   8.128   2.137 -1.0101 -0.7630  0.1211
 1487SOL    HW214321   3.443   8.224   2.224  0.8256  0.6056  0.7391
 1488SOL     OW14322   2.288   9.117   2.217  0.1998 -0.8496 -0.2942
 1488SOL    HW114323   2.380   9.133   2.253 -1.0596  0.0813  2.6594
 1488SOL    HW214324   2.226   9.189   2.250 -1.2964 -0.6057 -3.4758
 1489SOL     OW14325   2.555   5.129   0.898  0.2797  0.3297 -0.4599
 1489SOL    HW114326   2.645   5.174   0.903  0.1998  0.2726  1.8228
 1489SOL    HW214327   2.506   5.143   0.984 -0.9759 -1.5976 -0.8505
 1490SOL     OW14328   4.073   1.342   0.357 -0.6059  0.1387 -0.1867
 1490SOL    HW114329   4.075   1.263   0.418  1.9793  1.2958  1.3495
 1490SOL    HW214330   4.024   1.319   0.273  1.2228 -3.5288 -0.3519
 1491SOL     OW14331   2.959   5.917   0.827  0.2102 -0.3899  0.0795
 1491SOL    HW114332   2.867   5.902   0.790  1.6704 -1.7846 -3.2320
 1491SOL    HW214333   2.982   5.843   0.889 -0.1594 -1.1169 -0.6387
 1492SOL     OW14334   3.296   0.252   0.457 -0.2087  0.4475  0.3274
 1492SOL    HW114335   3.272   0.347   0.477 -0.6117  0.0076  2.0763
 1492SOL    HW214336   3.246   0.191   0.520 -0.7389 -0.9832 -1.4376
 1493SOL     OW14337   3.958   4.949   2.397  0.1942 -0.4554  0.5094
 1493SOL    HW114338   3.974   4.880   2.326  0.0192 -0.8066  0.8100
 1493SOL    HW214339   4.035   5.013   2.399 -0.7692  0.7905 -1.4110
 1494SOL     OW14340   4.460   2.715   1.607 -0.3292  0.3682 -0.3235
 1494SOL    HW114341   4.544   2.697   1.557  1.2081  1.0587  1.9406
 1494SOL    HW214342   4.401   2.634   1.603  0.4643 -0.1599 -1.8269
 1495SOL     OW14343   3.821   4.599   0.444 -0.0517  0.3710  0.5596
 1495SOL    HW114344   3.830   4.623   0.347 -1.6570 -0.5197  0.1671
 1495SOL    HW214345   3.779   4.509   0.453  0.3794  0.2996  2.0933
 1496SOL     OW14346   2.873   5.067   0.547  0.4550 -0.1798  0.0242
 1496SOL    HW114347   2.967   5.064   0.583 -0.0128  0.2200  1.3096
 1496SOL    HW214348   2.816   5.001   0.596 -0.4311  1.0881  0.7341
 1497SOL     OW14349   2.924   7.409   0.820 -0.5432  0.3670 -0.1170
 1497SOL    HW114350   2.954   7.317   0.796 -1.7747 -0.1692  0.3579
 1497SOL    HW214351   2.966   7.475   0.757  0.9311 -0.4253 -0.0019
 1498SOL     OW14352   2.895   0.810   1.009  0.5503  0.6741 -1.1223
 1498SOL    HW114353   2.994   0.811   0.995  0.3350  1.2725 -2.7160
 1498SOL    HW214354   2.872   0.747   1.083  2.2234  1.4209  0.0540
 1499SOL     OW14355   2.691   8.080   1.776  0.1301 -0.1459 -0.7599
 1499SOL    HW114356   2.651   8.172   1.778 -0.0334 -0.2006 -1.6945
 1499SOL    HW214357   2.790   8.087   1.786 -0.0904 -0.0150  1.6241
 1500SOL     OW14358   3.241   4.240   0.968 -0.6239  0.2383 -0.0056
 1500SOL    HW114359   3.189   4.231   0.884 -0.5159 -0.5162  0.0036
 1500SOL    HW214360   3.339   4.234   0.948 -0.5901  0.2769  0.1432
 1501SOL     OW14361   3.143   8.367   1.701 -0.4650 -0.0461 -0.2679
 1501SOL    HW114362   3.143   8.368   1.601  2.0474  2.7438 -0.2878
 1501SOL    HW214363   3.064   8.417   1.735 -0.4347  0.4024 -0.8553
 1502SOL     OW14364   3.479   3.903   1.042 -0.7071  0.5323 -0.0589
 1502SOL    HW114365   3.480   3.925   0.945  0.8376 -0.1321 -0.2201
 1502SOL    HW214366   3.386   3.879   1.070 -0.9347 -0.6569 -1.7119
 1503SOL     OW14367   3.436   6.204   0.067 -0.5980  0.1294  0.0555
 1503SOL    HW114368   3.388   6.201   0.155  0.2440 -2.1096  0.4666
 1503SOL    HW214369   3.525   6.249   0.080  0.2410 -1.6721  0.7435
 1504SOL     OW14370   3.967   3.372   2.181 -0.2285 -0.1075  0.2020
 1504SOL    HW114371   3.982   3.280   2.145  1.2828 -0.2487  1.1648
 1504SOL    HW214372   3.997   3.377   2.276 -3.3632  0.5048  1.2299
 1505SOL     OW14373   2.936   1.462   0.718 -0.2054 -0.6235  0.0328
 1505SOL    HW114374   2.892   1.381   0.757  2.7862 -2.1552  0.3526
 1505SOL    HW214375   2.912   1.469   0.621  0.5166 -2.6147 -0.3132
 1506SOL     OW14376   2.040   3.624   2.356  0.6997  0.1847 -0.4272
 1506SOL    HW114377   2.110   3.668   2.413 -0.1976 -1.1004  1.7259
 1506SOL    HW214378   2.063   3.636   2.260  3.2635  0.7634  0.2317
 1507SOL     OW14379   2.036   3.374   0.526 -0.5578 -0.0633  0.0214
 1507SOL    HW114380   2.001   3.455   0.478  0.1243 -0.5955 -1.3749
 1507SOL    HW214381   2.076   3.403   0.613  1.9097  1.4493 -1.5475
 1508SOL     OW14382   2.866   2.576   0.053  0.3862 -0.4024  0.8829
 1508SOL    HW114383   2.864   2.632   0.135  0.0276  0.1567  0.4977
 1508SOL    HW214384   2.812   2.620  -0.019  0.5808 -0.9534  0.3921
 1509SOL     OW14385   2.768   3.757   2.458  0.7187  0.2574  0.4147
 1509SOL    HW114386   2.867   3.775   2.455  0.7139  0.5824  1.7840
 1509SOL    HW214387   2.752   3.659   2.447  1.1668  0.2422 -0.1661
 1510SOL     OW14388   3.480   1.637   1.663  0.2897  0.0785 -0.6265
 1510SOL    HW114389   3.386   1.669   1.654  0.6640  0.8898 -1.7767
 1510SOL    HW214390   3.487   1.542   1.634  0.0510  0.3896 -1.7207
 1511SOL     OW14391   1.963   2.706   2.425  0.1970 -0.0165 -0.3356
 1511SOL    HW114392   1.959   2.784   2.363 -0.7351 -0.6213 -1.0424
 1511SOL    HW214393   1.890   2.641   2.403  1.0438 -1.1593  0.1494
 1512SOL     OW14394   2.109   1.681   0.945  0.2951  0.6550  0.0464
 1512SOL    HW114395   2.066   1.632   1.020  0.0622  1.3745  0.3940
 1512SOL    HW214396   2.203   1.705   0.970  0.4614  0.2475 -0.1856
 1513SOL     OW14397   2.511   6.171   0.501  0.1730 -0.1782  0.1667
 1513SOL    HW114398   2.535   6.129   0.588  0.6774  1.0425  0.6294
 1513SOL    HW214399   2.496   6.269   0.513  0.5104  0.0583 -1.1561
 1514SOL     OW14400   4.739   1.834   0.801 -0.0803  0.4111 -0.1873
 1514SOL    HW114401   4.666   1.884   0.848 -1.7656 -0.9788 -1.2388
 1514SOL    HW214402   4.780   1.892   0.731 -1.2016  0.7099 -0.6042
 1515SOL     OW14403   2.194   5.195   1.711  0.5003  0.7081 -0.4055
 1515SOL    HW114404   2.232   5.249   1.635 -1.5295  3.0734  0.1863
 1515SOL    HW214405   2.117   5.141   1.677  1.2520 -0.2830 -0.5599
 1516SOL     OW14406   4.186   2.960   0.931 -0.1215  0.5262  0.1513
 1516SOL    HW114407   4.191   2.962   1.031 -0.3462  1.6537  0.1559
 1516SOL    HW214408   4.260   2.905   0.894  1.8699  2.6909  0.8237
 1517SOL     OW14409   3.249   6.494   1.855  0.2097 -0.0682  0.2796
 1517SOL    HW114410   3.181   6.564   1.834 -0.1966 -1.0139 -1.7080
 1517SOL    HW214411   3.338   6.523   1.817  0.2985 -0.0911  0.4735
 1518SOL     OW14412   2.019   1.388   2.086 -0.4065 -0.1858  0.4851
 1518SOL    HW114413   2.101   1.399   2.029 -0.6519  1.3630  0.4090
 1518SOL    HW214414   2.000   1.290   2.099  1.5044 -0.5559  0.5951
 1519SOL     OW14415   2.488   4.798   0.245 -0.0501  0.3214  0.4722
 1519SOL    HW114416   2.547   4.832   0.318 -2.0575 -0.8528  2.7178
 1519SOL    HW214417   2.544   4.751   0.176  1.7126 -0.2119  2.2173
 1520SOL     OW14418   2.051   6.304   2.613  0.1136  0.2261 -0.4305
 1520SOL    HW114419   2.023   6.369   2.684  0.6148 -0.8321  0.7705
 1520SOL    HW214420   2.139   6.264   2.638 -0.6185 -1.5694 -0.6739
 1521SOL     OW14421   2.269   7.996   1.341 -0.0048  0.2841 -0.5619
 1521SOL    HW114422   2.177   7.967   1.369 -0.3434  0.7491 -1.1621
 1521SOL    HW214423   2.273   8.096   1.341  0.5853  0.2594 -0.2711
 1522SOL     OW14424   5.093   4.202   1.452 -0.3982 -0.1601 -0.1450
 1522SOL    HW114425   5.116   4.208   1.549 -0.4424 -0.1652 -0.1343
 1522SOL    HW214426   5.159   4.256   1.399 -0.1545 -0.4544 -0.1441
 1523SOL     OW14427   3.731   9.216   1.551  0.3803  0.3874  0.2900
 1523SOL    HW114428   3.635   9.199   1.574 -0.0531  2.1964 -0.1095
 1523SOL    HW214429   3.774   9.130   1.525 -1.4376 -0.2752 -0.6592
 1524SOL     OW14430   3.754   5.509   2.175 -0.1150  0.2044  0.2558
 1524SOL    HW114431   3.755   5.609   2.165  2.0083  0.1063 -0.9099
 1524SOL    HW214432   3.660   5.476   2.169 -1.0070  2.2723  2.3029
 1525SOL     OW14433   2.964   8.353   0.938  0.7901  0.0292  0.4735
 1525SOL    HW114434   3.010   8.309   0.860  0.3533  0.1006  0.1751
 1525SOL    HW214435   2.948   8.285   1.009 -0.1075 -0.3591 -0.0904
 1526SOL     OW14436   4.988   1.773   0.608 -0.2808  0.1110  0.0732
 1526SOL    HW114437   4.919   1.842   0.587  1.0082  1.4649  0.2310
 1526SOL    HW214438   5.026   1.790   0.698  0.0224 -0.8451  0.1310
 1527SOL     OW14439   3.866   2.154   0.707  0.4802 -0.2643  0.1549
 1527SOL    HW114440   3.786   2.118   0.753 -0.1451  0.2620 -0.5109
 1527SOL    HW214441   3.914   2.081   0.659 -0.6361 -0.2662 -0.9770
 1528SOL     OW14442   3.327   7.786   2.149 -0.6447  0.5320 -0.0594
 1528SOL    HW114443   3.280   7.704   2.117 -1.0527 -0.2438  2.4027
 1528SOL    HW214444   3.402   7.809   2.087 -0.2342 -1.9957 -0.5283
 1529SOL     OW14445   2.260   1.698   0.054  0.6409 -0.0699  0.1226
 1529SOL    HW114446   2.254   1.783  -0.000 -3.0691 -0.1103  0.3629
 1529SOL    HW214447   2.275   1.621  -0.008  0.8471  0.3837 -0.4076
 1530SOL     OW14448   3.133   7.965   2.530 -0.4085 -0.5145  0.1304
 1530SOL    HW114449   3.161   7.879   2.574  0.3359 -0.6770 -0.6529
 1530SOL    HW214450   3.181   7.975   2.443 -1.7012 -0.0830 -0.5498
 1531SOL     OW14451   4.072   0.317   1.929  0.2220  0.3613 -0.4296
 1531SOL    HW114452   4.043   0.374   1.852  1.5237  1.4562 -0.1294
 1531SOL    HW214453   4.171   0.306   1.927  0.2942  0.5686  1.2032
 1532SOL     OW14454   4.058   3.341   2.685 -0.5432 -0.0744 -0.7687
 1532SOL    HW114455   4.117   3.263   2.707  0.8370  1.2242  0.2511
 1532SOL    HW214456   4.059   3.356   2.586 -2.3971 -2.5456 -1.2016
 1533SOL     OW14457   3.129   1.054   2.083  0.0140 -0.6081 -0.1573
 1533SOL    HW114458   3.149   0.969   2.132  0.2156 -0.6682 -0.3398
 1533SOL    HW214459   3.060   1.038   2.013 -1.4755 -0.1611  1.1972
 1534SOL     OW14460   4.652   3.346   0.659  0.2811  0.8077 -0.1952
 1534SOL    HW114461   4.585   3.286   0.617 -0.4794  1.3458  0.2467
 1534SOL    HW214462   4.684   3.413   0.592 -0.9652  1.6947  0.0943
 1535SOL     OW14463   2.673   2.699   2.694  0.0963 -0.0330 -0.5342
 1535SOL    HW114464   2.588   2.739   2.728  0.1541  0.6038 -1.1410
 1535SOL    HW214465   2.748   2.764   2.706  0.7979 -1.1443  1.3795
 1536SOL     OW14466   3.814   1.236   2.576 -0.1145  0.1399  0.8036
 1536SOL    HW114467   3.834   1.270   2.484 -1.0225  1.0257  0.9290
 1536SOL    HW214468   3.717   1.250   2.596 -0.2983 -1.6200  1.2396
 1537SOL     OW14469   3.867   1.568   0.129 -0.1529  0.5242  0.3544
 1537SOL    HW114470   3.911   1.639   0.073 -0.8542  2.4157  2.1401
 1537SOL    HW214471   3.773   1.555   0.099  0.2621 -0.3541 -0.5931
 1538SOL     OW14472   4.186   3.478   0.749 -0.0055 -0.0331 -0.2320
 1538SOL    HW114473   4.147   3.556   0.799  1.0209  0.0922  0.3888
 1538SOL    HW214474   4.166   3.394   0.798 -1.2737 -0.1884 -0.9992
 1539SOL     OW14475   4.110   1.488   2.258  0.3598  0.3765 -0.2376
 1539SOL    HW114476   4.185   1.459   2.317  0.0793 -2.1091 -1.0473
 1539SOL    HW214477   4.147   1.522   2.172  0.5978  0.1452 -0.2267
 1540SOL     OW14478   2.169   0.704   0.216  0.4798  0.3005  0.6400
 1540SOL    HW114479   2.159   0.764   0.136 -3.0620 -2.6125 -1.2211
 1540SOL    HW214480   2.238   0.634   0.196 -0.0257 -0.1087  0.3109
 1541SOL     OW14481   1.997   6.688   2.366 -0.2053 -0.4400 -0.3086
 1541SOL    HW114482   1.913   6.731   2.334 -0.9267 -1.7428 -0.2087
 1541SOL    HW214483   2.029   6.622   2.298  0.8506  0.1836 -0.4330
 1542SOL     OW14484   3.109   1.312   2.138  0.1340 -0.0304 -0.1596
 1542SOL    HW114485   3.193   1.313   2.193  0.3797 -0.6119 -0.5263
 1542SOL    HW214486   3.086   1.218   2.114  0.2626  0.2596 -1.4201
 1543SOL     OW14487   3.696   5.028   1.334 -0.5714 -0.6850 -0.0820
 1543SOL    HW114488   3.744   4.989   1.256 -0.4300  1.0723 -0.8956
 1543SOL    HW214489   3.761   5.075   1.393 -1.0360  0.3049 -0.3384
 1544SOL     OW14490   3.696   8.225   2.432 -0.6277 -0.2591 -0.6619
 1544SOL    HW114491   3.618   8.209   2.372  0.2592 -0.0449 -1.8831
 1544SOL    HW214492   3.781   8.209   2.382  0.1803  2.0689 -0.0912
 1545SOL     OW14493   4.857   2.276   0.548 -0.2069  0.4584  0.4488
 1545SOL    HW114494   4.938   2.319   0.589  0.2547  0.6593 -0.6733
 1545SOL    HW214495   4.790   2.346   0.526 -0.3969  0.3634  0.7196
 1546SOL     OW14496   3.193   3.950   0.403  0.0986 -0.2565  0.2228
 1546SOL    HW114497   3.239   3.960   0.491  2.0613  0.3503 -0.8451
 1546SOL    HW214498   3.254   3.905   0.338  0.2181  2.9406 -2.0014
 1547SOL     OW14499   3.127   3.139   1.779  0.0468  0.0614  0.1004
 1547SOL    HW114500   3.145   3.235   1.798 -1.5857 -0.0977  2.7416
 1547SOL    HW214501   3.211   3.085   1.795  0.2782  0.7228  1.1556
 1548SOL     OW14502   2.207   1.924   2.760  0.3404  0.8914  0.2452
 1548SOL    HW114503   2.124   1.972   2.734 -0.3991 -1.0860 -1.1514
 1548SOL    HW214504   2.286   1.985   2.750 -0.3279  1.2488 -3.4055
 1549SOL     OW14505   2.717   4.823   2.646  0.0863 -0.2883  0.0390
 1549SOL    HW114506   2.741   4.844   2.552  0.7033 -0.2684  0.1928
 1549SOL    HW214507   2.618   4.826   2.658 -0.0688 -1.3333 -0.8539
 1550SOL     OW14508   3.118   9.925   0.754  0.1353 -0.2649 -0.5061
 1550SOL    HW114509   3.131  10.000   0.689  2.7769 -0.6840 -0.5226
 1550SOL    HW214510   3.079   9.846   0.706  1.8376 -0.4907 -1.5767
 1551SOL     OW14511   4.594   4.602   1.169 -0.0878 -0.0790  0.4036
 1551SOL    HW114512   4.689   4.593   1.197  0.5176  1.3913 -1.1649
 1551SOL    HW214513   4.543   4.654   1.239  0.2999 -0.6248  1.1002
 1552SOL     OW14514   2.749   9.813   0.726  0.8004  0.4278  0.2992
 1552SOL    HW114515   2.714   9.719   0.727 -0.4647  0.8790 -0.5077
 1552SOL    HW214516   2.817   9.824   0.798 -0.2511 -0.6433  1.4677
 1553SOL     OW14517   1.961   6.760   2.028  0.2871  0.1231  0.3041
 1553SOL    HW114518   2.021   6.684   2.002  1.8097  1.8090 -1.2475
 1553SOL    HW214519   1.873   6.751   1.981  0.3558 -0.7839  0.3269
 1554SOL     OW14520   3.268   8.324   0.556  0.4764  0.0966 -0.1871
 1554SOL    HW114521   3.230   8.306   0.465  4.2506 -1.4486 -1.5379
 1554SOL    HW214522   3.224   8.264   0.623 -4.0637  2.9185 -0.4535
 1555SOL     OW14523   3.885   9.067   0.708  0.2588  0.2088  0.5160
 1555SOL    HW114524   3.804   9.098   0.659  0.0836  0.9848  1.2802
 1555SOL    HW214525   3.967   9.108   0.666  0.0832  1.1429  1.0881
 1556SOL     OW14526   3.695   9.834   1.235 -0.1737  0.4988 -0.4215
 1556SOL    HW114527   3.721   9.900   1.306  2.8880  0.2850 -1.2778
 1556SOL    HW214528   3.700   9.878   1.145  0.7793 -0.5835 -0.9030
 1557SOL     OW14529   2.376   1.418   0.016 -0.4572  0.1278 -0.3959
 1557SOL    HW114530   2.455   1.363   0.044  0.7266  2.5593  1.2036
 1557SOL    HW214531   2.310   1.421   0.092 -0.8551  0.2777 -0.7488
 1558SOL     OW14532   3.485   7.690   1.124 -0.1902 -0.2504 -0.1714
 1558SOL    HW114533   3.478   7.718   1.219  0.5129 -0.5645 -0.0220
 1558SOL    HW214534   3.409   7.630   1.100 -0.2986 -0.2679  0.2269
 1559SOL     OW14535   3.369   7.955   2.356  0.0977 -0.1410 -0.2801
 1559SOL    HW114536   3.441   8.018   2.327  2.4912 -2.3687  0.6670
 1559SOL    HW214537   3.352   7.888   2.283  1.6359 -1.8573  0.8873
 1560SOL     OW14538   1.818   2.106   0.816 -0.7538  0.9049  0.0417
 1560SOL    HW114539   1.821   2.045   0.738 -0.3802 -1.9442  2.2034
 1560SOL    HW214540   1.909   2.146   0.831 -0.2858 -0.2280  0.2846
 1561SOL     OW14541   4.633   3.834   0.651 -0.5004 -0.1808 -0.0485
 1561SOL    HW114542   4.624   3.832   0.751  1.5343  0.5235  0.1758
 1561SOL    HW214543   4.675   3.750   0.619 -1.4347 -0.5392 -0.3679
 1562SOL     OW14544   2.473   8.862   0.354 -0.7117  0.2587  0.7000
 1562SOL    HW114545   2.541   8.843   0.425  0.4051  1.9287  0.1082
 1562SOL    HW214546   2.465   8.784   0.293 -1.6477 -1.1834  2.6104
 1563SOL     OW14547   2.739   3.531   2.757 -0.6289 -0.4142  0.5249
 1563SOL    HW114548   2.781   3.440   2.767 -0.7364 -0.5278 -0.0602
 1563SOL    HW214549   2.721   3.549   2.661 -2.0024 -0.4038  0.7780
 1564SOL     OW14550   2.158   3.577   0.724  0.1859  0.0436  0.4346
 1564SOL    HW114551   2.210   3.619   0.649 -2.2539  0.0574 -1.2916
 1564SOL    HW214552   2.211   3.501   0.762  1.5369  0.1273 -1.1977
 1565SOL     OW14553   3.726   9.514   1.264  0.1605  0.5296  0.1528
 1565SOL    HW114554   3.688   9.503   1.172 -3.0217  2.4884  1.1849
 1565SOL    HW214555   3.763   9.606   1.274  0.3816  0.3652  0.8856
 1566SOL     OW14556   2.940   1.768   1.453  0.1829  0.3932  0.5047
 1566SOL    HW114557   2.923   1.784   1.356 -1.1601 -0.1495  0.6311
 1566SOL    HW214558   2.988   1.847   1.492 -2.4648  2.2578  0.1731
 1567SOL     OW14559   4.627   3.912   2.052 -0.0642 -0.3313 -0.0854
 1567SOL    HW114560   4.533   3.947   2.053 -0.0972 -0.3958 -0.7966
 1567SOL    HW214561   4.666   3.925   1.961  0.6201 -0.2979  0.2148
 1568SOL     OW14562   2.464   9.513   1.769 -0.7600  0.1212  0.0383
 1568SOL    HW114563   2.484   9.595   1.821  0.4932 -0.6071  0.7272
 1568SOL    HW214564   2.548   9.478   1.727 -1.5830  0.1660 -1.6890
 1569SOL     OW14565   2.927   7.676   1.872  0.0387  0.0133 -0.0345
 1569SOL    HW114566   3.006   7.651   1.816 -0.6254 -1.1370 -0.4758
 1569SOL    HW214567   2.917   7.610   1.947 -1.0998 -0.4549 -0.5824
 1570SOL     OW14568   4.676   2.278   1.250  0.3966 -0.2339  0.1815
 1570SOL    HW114569   4.683   2.365   1.298 -1.7307  0.1856 -0.1847
 1570SOL    HW214570   4.653   2.206   1.315 -2.0660  0.2601 -0.0912
 1571SOL     OW14571   3.099   4.969   1.318 -0.4543  0.1172  0.1863
 1571SOL    HW114572   3.007   5.000   1.293 -1.0882 -1.0476  1.0104
 1571SOL    HW214573   3.128   4.896   1.255 -0.1243  0.4186 -0.0149
 1572SOL     OW14574   3.243   0.790   2.204  0.3981  0.3046  0.1070
 1572SOL    HW114575   3.307   0.834   2.266 -1.6145  0.1286  2.3968
 1572SOL    HW214576   3.293   0.738   2.134  2.7175  0.2589  1.7635
 1573SOL     OW14577   4.600   4.214   2.163  0.0485 -0.2684  0.1929
 1573SOL    HW114578   4.648   4.130   2.188 -0.0095 -0.0700  0.9875
 1573SOL    HW214579   4.649   4.259   2.088  1.3526  0.1514  1.2842
 1574SOL     OW14580   4.086   3.424   2.424  0.2831 -0.0562  0.0671
 1574SOL    HW114581   4.076   3.519   2.452  0.6126  0.6997 -2.2902
 1574SOL    HW214582   4.182   3.405   2.402 -0.2479 -0.0201 -2.4711
 1575SOL     OW14583   2.975   0.849   1.956 -0.1939  0.1191 -0.2363
 1575SOL    HW114584   2.976   0.787   2.034  0.3729 -1.2367 -1.2990
 1575SOL    HW214585   2.901   0.822   1.893 -0.3331  0.8971 -0.4163
 1576SOL     OW14586   2.739   4.762   1.091 -0.2335  0.0427 -0.4229
 1576SOL    HW114587   2.687   4.711   1.160  0.5958  0.0214  0.1913
 1576SOL    HW214588   2.763   4.701   1.016  1.0156 -0.5517  0.4525
 1577SOL     OW14589   3.598   1.801   1.483  0.0961  0.0223  0.2550
 1577SOL    HW114590   3.543   1.767   1.559  0.1012  0.8262  0.6216
 1577SOL    HW214591   3.602   1.732   1.411 -1.7384  0.0959  0.0547
 1578SOL     OW14592   3.948   0.817   1.749 -0.3825  0.4731 -0.1893
 1578SOL    HW114593   3.887   0.739   1.764 -0.9891  0.8708 -0.6012
 1578SOL    HW214594   3.985   0.848   1.837 -0.5784  0.0796  0.0319
 1579SOL     OW14595   3.333   1.455   0.800 -0.4308 -0.0248 -0.1773
 1579SOL    HW114596   3.258   1.390   0.807 -2.1735  1.6820 -2.3924
 1579SOL    HW214597   3.367   1.458   0.706  0.1455  1.6698  0.0654
 1580SOL     OW14598   2.509   5.495   1.921  0.1433 -0.4966 -0.6599
 1580SOL    HW114599   2.469   5.491   1.830  1.0079  0.3490 -1.0889
 1580SOL    HW214600   2.480   5.416   1.975 -1.3524 -0.3609 -1.2618
 1581SOL     OW14601   2.188   4.008   1.193  0.0291 -0.5636  0.1096
 1581SOL    HW114602   2.099   4.045   1.218  1.1517  1.9266  0.5800
 1581SOL    HW214603   2.193   3.997   1.093  0.9671  4.4075 -0.5589
 1582SOL     OW14604   3.425   1.013   2.081  0.3529 -0.4664  1.0507
 1582SOL    HW114605   3.331   1.048   2.082  0.7807  0.8059 -0.9893
 1582SOL    HW214606   3.442   0.960   2.165 -1.7280  0.4568  2.0832
 1583SOL     OW14607   2.725   2.295   2.777 -0.0403  0.0310  0.3119
 1583SOL    HW114608   2.655   2.351   2.822  0.2394  1.9708 -1.5870
 1583SOL    HW214609   2.803   2.352   2.753  1.0452 -1.5763 -0.0507
 1584SOL     OW14610   5.002   8.896   1.136  0.0269  0.1017 -0.0886
 1584SOL    HW114611   5.097   8.885   1.167  0.3731  2.0135 -0.4468
 1584SOL    HW214612   4.940   8.862   1.207  0.9739 -2.6514 -0.4844
 1585SOL     OW14613   2.882   5.072   1.867  0.4986  0.5453 -0.0667
 1585SOL    HW114614   2.888   5.172   1.871 -0.2678  0.6105 -0.4132
 1585SOL    HW214615   2.851   5.044   1.776 -1.1311  0.0936  0.6048
 1586SOL     OW14616   4.868   2.894   0.578  0.0894 -0.3755  0.2391
 1586SOL    HW114617   4.959   2.857   0.555  0.3138  0.2080  0.1785
 1586SOL    HW214618   4.804   2.818   0.591  0.7630 -0.8217  1.0344
 1587SOL     OW14619   2.895   0.524   1.170 -0.7908  0.0347 -0.7505
 1587SOL    HW114620   2.976   0.576   1.196 -1.5153  1.0172 -0.4251
 1587SOL    HW214621   2.891   0.440   1.224 -0.7603  0.6926  0.2867
 1588SOL     OW14622   2.574   5.149   2.352  0.1314  0.7216 -0.4966
 1588SOL    HW114623   2.501   5.122   2.290 -0.2047 -3.1329  1.4262
 1588SOL    HW214624   2.656   5.095   2.333  0.1856 -0.1553  1.9801
 1589SOL     OW14625   2.799   7.198   2.201  0.1473 -0.6186 -0.0022
 1589SOL    HW114626   2.760   7.290   2.200  1.8404  0.1387  1.1166
 1589SOL    HW214627   2.771   7.150   2.284 -2.6161 -1.9920 -1.6569
 1590SOL     OW14628   2.777   9.815   1.737 -0.1830 -0.2367 -0.1310
 1590SOL    HW114629   2.703   9.767   1.785  0.4433 -2.6583 -1.5011
 1590SOL    HW214630   2.860   9.813   1.794 -0.0479 -1.1871 -0.3439
 1591SOL     OW14631   3.043   6.185   2.428 -0.6722  0.1357 -0.6244
 1591SOL    HW114632   3.108   6.261   2.424  0.7097 -1.0033 -0.1560
 1591SOL    HW214633   2.972   6.199   2.359  0.1263  1.3478 -1.2214
 1592SOL     OW14634   3.216   7.506   0.775  0.2745  0.6929 -0.6803
 1592SOL    HW114635   3.282   7.463   0.837 -0.2284 -0.7417 -1.1183
 1592SOL    HW214636   3.180   7.589   0.817 -0.6650 -0.6859  1.3152
 1593SOL     OW14637   3.192   7.898   0.381  0.2752  0.2551  0.0524
 1593SOL    HW114638   3.259   7.831   0.350  1.1547 -0.0909  2.5613
 1593SOL    HW214639   3.199   7.909   0.480 -2.2042  1.5167  0.1397
 1594SOL     OW14640   3.018   1.233   1.175  0.2262 -0.3040  0.2248
 1594SOL    HW114641   2.944   1.169   1.154 -0.6363  0.1428  1.8353
 1594SOL    HW214642   2.999   1.321   1.131  0.9585 -0.8536 -1.2356
 1595SOL     OW14643   2.135   4.021   0.357  0.0710 -0.1662 -0.2180
 1595SOL    HW114644   2.048   4.067   0.341 -0.4158 -0.9681  0.0770
 1595SOL    HW214645   2.121   3.922   0.351  0.6014 -0.3691  1.5882
 1596SOL     OW14646   1.859   3.004   1.785  0.3160  0.2117  0.1942
 1596SOL    HW114647   1.773   3.040   1.750  0.3077 -0.9856 -1.0615
 1596SOL    HW214648   1.855   2.904   1.787  0.7387  0.2229  2.5780
 1597SOL     OW14649   2.821   5.968   0.066  0.4594 -0.0998  0.4541
 1597SOL    HW114650   2.800   5.882   0.113 -0.8113  0.8011  1.5849
 1597SOL    HW214651   2.772   5.972  -0.021 -0.6286  0.0818  1.0610
 1598SOL     OW14652   2.852   7.480   2.024 -0.0176  0.0173  0.1826
 1598SOL    HW114653   2.811   7.528   2.101  0.3781 -1.0956  1.1048
 1598SOL    HW214654   2.812   7.388   2.017 -0.7528  0.4454 -1.5349
 1599SOL     OW14655   3.885   3.390   0.747 -0.0955 -0.3278 -0.3317
 1599SOL    HW114656   3.976   3.359   0.778 -0.1080 -2.1069 -1.9677
 1599SOL    HW214657   3.817   3.321   0.772 -0.8847  0.6376  0.1922
 1600SOL     OW14658   2.662   1.748   2.333 -0.7026 -0.1362 -0.4713
 1600SOL    HW114659   2.629   1.729   2.425  0.3000 -1.2475 -0.3247
 1600SOL    HW214660   2.586   1.736   2.268 -1.1627 -0.3580  0.0966
 1601SOL     OW14661   3.064   3.135   2.449 -0.0749 -0.3813  0.6172
 1601SOL    HW114662   3.138   3.068   2.434 -0.6945 -0.9041 -0.1570
 1601SOL    HW214663   3.098   3.210   2.505  1.2812 -0.2060 -0.4169
 1602SOL     OW14664   4.102   3.253   0.857  0.3241  0.2023 -0.1951
 1602SOL    HW114665   4.072   3.239   0.951 -0.4342  0.6736 -0.3622
 1602SOL    HW214666   4.150   3.171   0.825  1.5549  0.4502  0.9574
 1603SOL     OW14667   3.140   9.242   2.762 -0.2089 -0.1943 -0.3945
 1603SOL    HW114668   3.044   9.254   2.735 -0.6672 -0.2552  1.1564
 1603SOL    HW214669   3.188   9.191   2.690 -0.3405  3.1870 -3.0279
 1604SOL     OW14670   2.568   1.858   1.464  0.9267 -0.2534  0.3516
 1604SOL    HW114671   2.511   1.940   1.466 -0.3458 -1.1404  1.1206
 1604SOL    HW214672   2.624   1.854   1.547  1.8422  0.4131 -0.2201
 1605SOL     OW14673   2.841   4.248   2.804  0.9107  0.3105  0.0162
 1605SOL    HW114674   2.903   4.174   2.779 -1.1926 -0.8130 -2.0539
 1605SOL    HW214675   2.826   4.247   2.903  1.8574 -1.2574  0.1644
 1606SOL     OW14676   1.967   5.811   0.606 -0.0445 -0.4701 -0.4157
 1606SOL    HW114677   1.932   5.778   0.694 -1.1793 -0.2774 -0.7850
 1606SOL    HW214678   1.967   5.911   0.605  1.8123 -0.4553  0.0821
 1607SOL     OW14679   3.600   9.461   0.506  0.0353 -0.0493  0.0020
 1607SOL    HW114680   3.690   9.422   0.485 -0.4992 -1.6817  0.7525
 1607SOL    HW214681   3.611   9.559   0.526  1.5785 -0.1261 -0.3901
 1608SOL     OW14682   4.031   1.906   0.557  0.5879  0.2400  0.0859
 1608SOL    HW114683   4.087   1.845   0.613  0.1833  1.6402  2.0548
 1608SOL    HW214684   4.050   1.888   0.460  1.2193 -2.2748  0.6342
 1609SOL     OW14685   2.289   1.772   2.121  0.1304 -0.2126 -0.2542
 1609SOL    HW114686   2.316   1.700   2.184 -0.3525  1.8184  2.3480
 1609SOL    HW214687   2.360   1.843   2.118 -1.1520  1.1317  0.2870
 1610SOL     OW14688   2.032   2.520   0.371  0.3158  0.0787 -0.6958
 1610SOL    HW114689   2.020   2.476   0.281 -2.0400  0.0351 -0.3744
 1610SOL    HW214690   1.984   2.607   0.372 -0.5374 -0.3947  0.8541
 1611SOL     OW14691   3.205   2.536   0.234  0.3241  0.2923  0.5946
 1611SOL    HW114692   3.149   2.562   0.312 -1.2648 -1.4298  0.0561
 1611SOL    HW214693   3.224   2.617   0.177  0.2671  1.2732  1.9556
 1612SOL     OW14694   2.972   0.570   0.102 -0.0577 -0.4448 -0.8046
 1612SOL    HW114695   3.058   0.592   0.056 -0.5574  1.0661 -1.0672
 1612SOL    HW214696   2.908   0.646   0.090 -1.3760 -1.4888 -0.4856
 1613SOL     OW14697   3.358   2.656   2.010  0.3218 -0.5206  0.3246
 1613SOL    HW114698   3.280   2.604   1.974 -0.4863  0.2179  0.9728
 1613SOL    HW214699   3.347   2.752   1.987  0.6538 -0.2956  1.0825
 1614SOL     OW14700   4.058   8.656   0.192 -0.6220  0.3432  0.1746
 1614SOL    HW114701   4.107   8.615   0.269 -0.5739 -0.4682 -0.2858
 1614SOL    HW214702   3.969   8.611   0.182 -2.0930  2.7513  1.9078
 1615SOL     OW14703   3.570   1.164   0.565 -0.2343 -0.3345 -0.1693
 1615SOL    HW114704   3.632   1.175   0.488 -0.4279  0.0804 -0.2699
 1615SOL    HW214705   3.617   1.117   0.640  1.3064  2.9143  1.0337
 1616SOL     OW14706   2.355   3.743   1.204  0.4952 -0.5805  0.9307
 1616SOL    HW114707   2.290   3.670   1.227  1.1790 -1.4054  0.2795
 1616SOL    HW214708   2.307   3.831   1.201 -0.5687 -1.1628  0.5752
 1617SOL     OW14709   3.064   9.444   1.986  0.2575 -0.3598  0.2109
 1617SOL    HW114710   3.014   9.441   1.899  0.0298  0.5884  0.3071
 1617SOL    HW214711   3.154   9.485   1.972 -0.2082  0.8354  0.6178
 1618SOL     OW14712   2.828   7.181   1.408  0.4020 -0.5650 -0.4603
 1618SOL    HW114713   2.757   7.186   1.478 -0.4152  1.3356 -1.3779
 1618SOL    HW214714   2.809   7.105   1.346  1.8144 -3.0381  2.0679
 1619SOL     OW14715   2.919   9.229   0.399  0.2818  0.2229  0.0798
 1619SOL    HW114716   2.838   9.288   0.404 -0.6878 -1.0688  0.2067
 1619SOL    HW214717   2.897   9.148   0.345  1.1253 -0.7085  1.1110
 1620SOL     OW14718   1.807   3.755   2.262 -0.3635  0.2158  0.0083
 1620SOL    HW114719   1.799   3.683   2.193 -0.4771 -0.8966  1.1665
 1620SOL    HW214720   1.882   3.732   2.325 -2.3603 -0.4458  2.1978
 1621SOL     OW14721   3.744   1.867   0.581 -0.3874 -0.3424  0.3956
 1621SOL    HW114722   3.832   1.840   0.542  0.5241  2.5955  0.3329
 1621SOL    HW214723   3.749   1.862   0.681  1.0161  2.9945  0.5661
 1622SOL     OW14724   3.989   9.109   2.766  0.2381 -0.0400  0.5694
 1622SOL    HW114725   4.061   9.042   2.747  1.1276  0.6823  1.3835
 1622SOL    HW214726   3.916   9.098   2.699  1.3880 -0.3627 -0.6591
 1623SOL     OW14727   3.709   0.760   0.934  0.9071  0.4839  0.0628
 1623SOL    HW114728   3.770   0.731   0.860  0.2147  1.2106 -0.7928
 1623SOL    HW214729   3.644   0.687   0.954  0.1557  0.8503 -1.0401
 1624SOL     OW14730   1.763   6.143   0.856 -0.0278 -0.1213  0.1032
 1624SOL    HW114731   1.762   6.163   0.758  0.2451  1.5699  0.4184
 1624SOL    HW214732   1.766   6.229   0.907 -0.5379 -0.9752  1.6062
 1625SOL     OW14733   2.309   6.415   1.429 -0.0353  0.0792  0.0950
 1625SOL    HW114734   2.350   6.506   1.417 -1.0323  0.6642  1.0339
 1625SOL    HW214735   2.375   6.345   1.401  1.0019  1.0612  0.0374
 1626SOL     OW14736   3.392   1.241   1.819  0.4570 -0.3920  0.0087
 1626SOL    HW114737   3.317   1.301   1.847  1.2311  0.8615 -0.5744
 1626SOL    HW214738   3.357   1.148   1.808 -0.4879 -0.3356  2.2013
 1627SOL     OW14739   2.915   3.250   1.635  0.9612  0.5661 -0.4805
 1627SOL    HW114740   2.964   3.289   1.556  0.0888  0.2836 -1.1645
 1627SOL    HW214741   2.972   3.180   1.677  1.0241  0.0117 -1.4675
 1628SOL     OW14742   2.453   7.509   2.107 -0.1801  0.1755  0.1920
 1628SOL    HW114743   2.512   7.467   2.177 -1.2015  0.8476  1.4876
 1628SOL    HW214744   2.396   7.438   2.065  0.2966 -0.2075  0.1866
 1629SOL     OW14745   3.873   1.882   0.121  0.2556 -0.1466  0.2225
 1629SOL    HW114746   3.908   1.961   0.072 -0.2070 -0.1184 -0.0653
 1629SOL    HW214747   3.938   1.855   0.192 -0.7018  2.0062  1.9904
 1630SOL     OW14748   4.088   4.095   1.731  0.0382  0.3368 -0.5450
 1630SOL    HW114749   4.062   4.062   1.821  0.4842  0.7220 -0.2704
 1630SOL    HW214750   4.186   4.079   1.717  0.1464  1.0335 -0.6207
 1631SOL     OW14751   2.765   0.385   0.102  0.2791  0.0924 -0.2717
 1631SOL    HW114752   2.846   0.444   0.100 -0.8585  1.8039  1.6265
 1631SOL    HW214753   2.769   0.319   0.027  3.4986  0.0445 -0.1262
 1632SOL     OW14754   4.319   3.598   2.418  0.3796 -0.1506  0.1810
 1632SOL    HW114755   4.374   3.591   2.335 -2.1513  0.7637 -1.6250
 1632SOL    HW214756   4.304   3.694   2.439  2.3174 -0.3268  2.6664
 1633SOL     OW14757   3.696   8.373   0.025  0.4212  0.6736 -0.0857
 1633SOL    HW114758   3.621   8.350  -0.038  2.0736  1.7148 -2.5064
 1633SOL    HW214759   3.748   8.291   0.046  0.4927  0.4813 -0.9701
 1634SOL     OW14760   2.629   6.371   2.145  0.7684  0.3746  0.4529
 1634SOL    HW114761   2.609   6.373   2.047  0.5193  0.4750  0.5072
 1634SOL    HW214762   2.670   6.283   2.168  0.0984  0.0417  0.3995
 1635SOL     OW14763   1.743   2.324   2.705  0.9021  0.1434 -0.1268
 1635SOL    HW114764   1.649   2.338   2.671 -0.1159 -2.9112  1.3315
 1635SOL    HW214765   1.774   2.408   2.750 -2.6430 -0.0536  2.8864
 1636SOL     OW14766   1.840   3.601   0.507 -0.2560 -0.4647 -0.6077
 1636SOL    HW114767   1.858   3.632   0.414 -0.9494 -0.5103 -0.7588
 1636SOL    HW214768   1.861   3.674   0.572 -1.8991  0.3191 -0.9573
 1637SOL     OW14769   2.916   4.032   1.338 -0.6319  0.7414  0.3084
 1637SOL    HW114770   2.828   4.035   1.291 -1.3155 -0.5994  1.4801
 1637SOL    HW214771   2.989   4.043   1.271 -1.6006 -0.8263 -1.0552
 1638SOL     OW14772   2.109   0.213   1.338 -0.0108 -0.0520 -0.0711
 1638SOL    HW114773   2.014   0.236   1.315 -0.5502 -1.0798  1.1167
 1638SOL    HW214774   2.151   0.164   1.262 -0.8408 -0.7677 -0.0650
 1639SOL     OW14775   2.663   9.550   2.707 -0.2849 -0.6388  0.0524
 1639SOL    HW114776   2.722   9.480   2.748  0.0140  0.1447  0.9810
 1639SOL    HW214777   2.592   9.575   2.773  0.4696  0.9567  0.2675
 1640SOL     OW14778   3.062   1.540   0.386 -0.0445 -0.1029  0.6235
 1640SOL    HW114779   2.994   1.471   0.411  1.4573 -2.2043 -0.8374
 1640SOL    HW214780   3.051   1.565   0.290  1.2208 -0.4662  0.3690
 1641SOL     OW14781   3.280   5.198   0.051  0.7650 -0.2326  0.1106
 1641SOL    HW114782   3.330   5.264  -0.004 -0.4470  0.3810 -0.2583
 1641SOL    HW214783   3.196   5.171   0.004  0.1745 -0.3929  1.2241
 1642SOL     OW14784   3.296   6.271   2.612 -0.2027  0.9987 -0.4847
 1642SOL    HW114785   3.326   6.259   2.518 -4.5999 -1.9854 -1.6598
 1642SOL    HW214786   3.342   6.203   2.670 -1.3887 -0.7439 -1.5152
 1643SOL     OW14787   2.148   0.703   2.596 -0.2651 -0.4209  0.1877
 1643SOL    HW114788   2.221   0.691   2.528 -0.9904  1.0759 -0.8882
 1643SOL    HW214789   2.061   0.718   2.549 -0.7560  0.7282  1.4429
 1644SOL     OW14790   3.451   9.018   1.337 -0.1027  0.4287  0.4162
 1644SOL    HW114791   3.362   9.035   1.295  0.4489 -2.1303 -1.8713
 1644SOL    HW214792   3.519   9.081   1.299 -0.0046 -0.6371 -1.2156
 1645SOL     OW14793   1.749   2.930   0.265 -0.7258  0.2753 -0.2910
 1645SOL    HW114794   1.726   3.025   0.245  0.3904  0.4422 -0.8254
 1645SOL    HW214795   1.835   2.926   0.316 -0.9364 -0.4347  0.0217
 1646SOL     OW14796   2.592   9.078   0.531 -0.0445 -0.6417 -0.4103
 1646SOL    HW114797   2.670   9.140   0.520 -0.0215 -0.6462 -0.2723
 1646SOL    HW214798   2.530   9.088   0.453  1.0150 -1.9806 -1.4163
 1647SOL     OW14799   3.348   8.775   2.383 -0.0407  0.1748  0.1927
 1647SOL    HW114800   3.366   8.813   2.292  0.1758 -0.3093  0.0274
 1647SOL    HW214801   3.314   8.847   2.444 -0.7067  0.3861 -0.4224
 1648SOL     OW14802   3.436   5.569   1.541 -0.4103 -0.3998 -0.0164
 1648SOL    HW114803   3.502   5.519   1.485 -1.4284 -2.6212  0.6696
 1648SOL    HW214804   3.397   5.644   1.488  1.5877  0.0530 -0.8907
 1649SOL     OW14805   3.739   1.121   0.009  0.0754 -0.0371  0.0841
 1649SOL    HW114806   3.727   1.164  -0.081 -1.9400  0.4329  0.5296
 1649SOL    HW214807   3.656   1.135   0.063  1.1970 -0.4620  1.9654
 1650SOL     OW14808   2.693   3.932   1.857 -0.2063 -0.2461 -0.1984
 1650SOL    HW114809   2.594   3.947   1.853 -0.2385 -0.4584 -0.1710
 1650SOL    HW214810   2.740   4.012   1.818 -0.3344  0.7289  1.5904
 1651SOL     OW14811   3.187   8.144   1.244  0.1686 -0.2878  0.1583
 1651SOL    HW114812   3.203   8.045   1.248  0.6730 -0.2230 -0.1831
 1651SOL    HW214813   3.234   8.182   1.164 -0.8410  0.0768 -0.2737
 1652SOL     OW14814   2.419   1.806   2.535  0.0923  0.4013 -0.0153
 1652SOL    HW114815   2.476   1.730   2.565 -1.6431 -0.4793  1.0904
 1652SOL    HW214816   2.430   1.883   2.598 -0.3027  0.0754  0.4456
 1653SOL     OW14817   2.733   5.116   1.357 -0.2806 -0.0000  0.0777
 1653SOL    HW114818   2.754   5.073   1.445 -1.0556 -0.8818 -0.1565
 1653SOL    HW214819   2.765   5.057   1.282 -1.9243 -0.5071 -0.2536
 1654SOL     OW14820   4.377   3.613   0.931  0.0778 -0.1584  0.6064
 1654SOL    HW114821   4.380   3.548   1.007  0.8591 -0.3050  0.4561
 1654SOL    HW214822   4.342   3.568   0.849  2.0002 -0.8161  0.1077
 1655SOL     OW14823   2.224   5.442   2.219 -0.2546 -0.6310  0.5595
 1655SOL    HW114824   2.135   5.396   2.211 -1.5056  1.8490 -0.1675
 1655SOL    HW214825   2.230   5.486   2.308 -0.0349 -0.2605  0.3616
 1656SOL     OW14826   2.453   3.964   0.354  0.1353 -0.5812  0.2009
 1656SOL    HW114827   2.368   3.938   0.309  1.1782 -1.5581 -1.2337
 1656SOL    HW214828   2.490   3.885   0.405  0.5637 -0.3790  0.2121
 1657SOL     OW14829   2.817   0.019   2.572 -0.2802 -0.4004 -0.1855
 1657SOL    HW114830   2.855   0.081   2.503  0.8648  1.0840  1.7271
 1657SOL    HW214831   2.816  -0.074   2.535 -0.1929  0.4351 -2.3865
 1658SOL     OW14832   3.055   4.125   0.242 -0.7136 -0.5649  0.4373
 1658SOL    HW114833   3.118   4.150   0.169  0.6389  2.4954  2.5660
 1658SOL    HW214834   3.105   4.080   0.316 -1.4753 -0.5496  0.9779
 1659SOL     OW14835   1.909   3.659   1.283 -0.7154 -0.5515  0.4074
 1659SOL    HW114836   1.993   3.644   1.335 -0.9430  0.1041  0.9621
 1659SOL    HW214837   1.928   3.646   1.186  0.4175  1.1784  0.3749
 1660SOL     OW14838   6.975   9.391   1.225 -0.1957  0.2941  0.1344
 1660SOL    HW114839   6.992   9.462   1.293 -1.5830 -1.4818  2.3928
 1660SOL    HW214840   7.056   9.332   1.218  0.3409  1.1056 -0.5350
 1661SOL     OW14841   1.860   4.587   2.384 -0.9265  0.0280  0.1719
 1661SOL    HW114842   1.786   4.648   2.410 -0.2252  0.4800  1.1402
 1661SOL    HW214843   1.822   4.499   2.353 -1.8495  0.1574  0.9199
 1662SOL     OW14844   3.413   1.735   1.235 -0.3898  0.8341  0.3249
 1662SOL    HW114845   3.334   1.675   1.248 -0.2086  0.4288 -0.4287
 1662SOL    HW214846   3.389   1.828   1.262 -0.9221  0.5804  0.7293
 1663SOL     OW14847   2.920   3.767   2.094  0.3012  0.0985 -0.0123
 1663SOL    HW114848   2.955   3.684   2.050  0.6265  0.5990 -0.7062
 1663SOL    HW214849   2.822   3.759   2.108  0.6731 -1.3898  2.0923
 1664SOL     OW14850   3.159   7.289   0.622  0.5612  0.1477  0.4266
 1664SOL    HW114851   3.117   7.219   0.679  0.6108 -0.5195 -0.3515
 1664SOL    HW214852   3.178   7.370   0.677 -0.1645 -0.1804  1.1687
 1665SOL     OW14853   2.897   4.177   0.649 -0.0320 -0.1565 -0.2994
 1665SOL    HW114854   2.861   4.113   0.717 -1.6310  1.6915  0.6610
 1665SOL    HW214855   2.825   4.201   0.584 -0.5460  3.1877  1.3416
 1666SOL     OW14856   3.167   3.712   2.418  0.3182  0.9661  0.2234
 1666SOL    HW114857   3.225   3.750   2.490  0.0186  0.7262  0.5882
 1666SOL    HW214858   3.225   3.671   2.347  0.5710 -0.4677  1.2391
 1667SOL     OW14859   3.058   3.381   1.420  0.5338 -0.1835  0.0956
 1667SOL    HW114860   3.138   3.400   1.363 -0.6645 -1.6947 -2.1286
 1667SOL    HW214861   3.005   3.465   1.431 -0.8448 -0.4683 -3.6248
 1668SOL     OW14862   2.280   6.724   2.480 -0.8581  0.3750  0.3030
 1668SOL    HW114863   2.186   6.728   2.448 -0.8377 -0.0264  0.1913
 1668SOL    HW214864   2.339   6.774   2.416 -1.0599  1.0501  0.6323
 1669SOL     OW14865   2.696   7.253   1.653  0.2603  0.1606  0.3093
 1669SOL    HW114866   2.720   7.350   1.648 -0.4791  0.4646  2.1173
 1669SOL    HW214867   2.620   7.241   1.717 -0.4954 -1.4714 -0.8646
 1670SOL     OW14868   3.683   4.642   0.682  0.0499 -0.2946 -0.4892
 1670SOL    HW114869   3.621   4.718   0.703 -1.2424 -1.2758 -0.6954
 1670SOL    HW214870   3.732   4.661   0.597  0.1840  0.5837 -0.2160
 1671SOL     OW14871   1.614   2.816   0.058 -0.0820  0.2702  0.0006
 1671SOL    HW114872   1.686   2.885   0.052 -0.0432  0.2242 -0.0652
 1671SOL    HW214873   1.606   2.785   0.153  3.0889 -2.9749 -0.6540
 1672SOL     OW14874   3.473   9.687   1.201  0.0880 -0.1064  0.2137
 1672SOL    HW114875   3.468   9.660   1.105 -0.4942  1.4967 -0.2258
 1672SOL    HW214876   3.569   9.694   1.228  0.3190  1.7716 -0.9635
 1673SOL     OW14877   2.189   3.867   1.739  0.0819  0.0616 -0.1825
 1673SOL    HW114878   2.223   3.898   1.650  0.9172 -1.2022 -0.3145
 1673SOL    HW214879   2.266   3.856   1.802 -0.3856 -0.1116  0.3608
 1674SOL     OW14880   2.028   1.866   2.059 -0.0087  0.2187 -0.1064
 1674SOL    HW114881   1.961   1.797   2.085  0.1082  0.1994  0.1464
 1674SOL    HW214882   2.112   1.853   2.113  0.0960  0.4136 -0.2218
 1675SOL     OW14883   2.739   9.504   0.689 -0.3011 -0.4627  0.1383
 1675SOL    HW114884   2.819   9.533   0.741  0.8513 -1.3497 -1.1126
 1675SOL    HW214885   2.674   9.458   0.750 -0.4209  1.3511  1.3850
 1676SOL     OW14886   3.008   3.914   2.335 -0.5176 -0.1770 -0.1348
 1676SOL    HW114887   2.950   3.879   2.261 -0.2965  0.4007 -0.5809
 1676SOL    HW214888   3.069   3.841   2.366 -1.1865 -0.6653  0.0490
 1677SOL     OW14889   2.373   4.605   1.861  0.3559 -0.2532  0.0533
 1677SOL    HW114890   2.462   4.559   1.857  1.6316  2.0816  0.8816
 1677SOL    HW214891   2.376   4.678   1.929 -2.2692 -0.2472  0.2199
 1678SOL     OW14892   2.476   9.991   2.641 -0.0486  0.3969  0.5723
 1678SOL    HW114893   2.543   9.996   2.715 -0.4051  1.1593  0.8415
 1678SOL    HW214894   2.460   9.895   2.617  2.6825  0.2468 -0.8747
 1679SOL     OW14895   4.220   0.448   2.365  0.3757 -0.6853  0.0866
 1679SOL    HW114896   4.237   0.542   2.334  0.7764 -1.4508 -2.1258
 1679SOL    HW214897   4.130   0.442   2.407  0.6366  0.8398  0.8837
 1680SOL     OW14898   3.830   2.774   0.752  0.4934  0.2638  0.1899
 1680SOL    HW114899   3.793   2.685   0.779  0.9788 -0.4794 -1.4831
 1680SOL    HW214900   3.756   2.832   0.717  0.5689 -0.5425 -1.3944
 1681SOL     OW14901   2.053   7.022   0.795  0.6522 -0.4377  0.3336
 1681SOL    HW114902   2.151   7.039   0.779  0.5905  1.3436  1.6354
 1681SOL    HW214903   2.015   7.098   0.849 -1.4179 -1.1964 -0.0254
 1682SOL     OW14904   3.642   0.091   1.838  0.8241  0.8202  0.0401
 1682SOL    HW114905   3.717   0.026   1.848  1.4658  1.7538  1.3200
 1682SOL    HW214906   3.563   0.059   1.890  1.1836  1.1250  0.7768
 1683SOL     OW14907   2.202   2.727   0.615 -0.4912  0.1908 -0.0526
 1683SOL    HW114908   2.166   2.649   0.665  2.8307 -0.4320  1.4951
 1683SOL    HW214909   2.289   2.702   0.572 -0.8731  2.1682 -2.0599
 1684SOL     OW14910   3.091   4.052   1.133  0.6656 -0.0339  0.1839
 1684SOL    HW114911   3.040   4.034   1.049 -0.9144  0.2130  1.0635
 1684SOL    HW214912   3.146   4.135   1.121 -0.9432  1.0328 -0.0364
 1685SOL     OW14913   5.026   4.689   0.067 -0.2420 -0.2031 -0.0339
 1685SOL    HW114914   5.085   4.724  -0.006 -0.9573  1.3427  0.1074
 1685SOL    HW214915   5.065   4.605   0.104  1.3846  0.2920 -0.5795
 1686SOL     OW14916   2.403   7.250   2.775  0.2731 -0.1432  0.1678
 1686SOL    HW114917   2.390   7.153   2.753  1.9998 -0.5905  1.0120
 1686SOL    HW214918   2.501   7.272   2.771  0.0834  1.1006  1.8687
 1687SOL     OW14919   4.073   5.275   0.040  0.0019 -0.5233 -0.3362
 1687SOL    HW114920   3.974   5.289   0.037  0.2197  1.2683 -0.0649
 1687SOL    HW214921   4.102   5.264   0.135  0.5115  2.9425 -0.0040
 1688SOL     OW14922   4.053   3.648   0.898 -0.0728  0.4876  0.3297
 1688SOL    HW114923   4.028   3.622   0.991  1.7889 -1.0085  0.4486
 1688SOL    HW214924   4.072   3.746   0.895  0.0567  0.5125  1.5819
 1689SOL     OW14925   2.873   2.268   0.217  0.1714 -0.1263 -0.2011
 1689SOL    HW114926   2.967   2.268   0.183  0.4697  0.5229  0.6090
 1689SOL    HW214927   2.828   2.184   0.189  0.8471 -0.2390 -0.9895
 1690SOL     OW14928   3.056   9.732   1.780 -0.5908  0.1190 -0.8287
 1690SOL    HW114929   3.089   9.660   1.719 -0.4543  2.0571 -3.1575
 1690SOL    HW214930   3.128   9.756   1.845  1.5858  2.0331 -3.7499
 1691SOL     OW14931   1.940   4.097   1.188 -0.2893 -0.4091 -0.3130
 1691SOL    HW114932   1.877   4.049   1.249 -0.5339 -0.1596 -0.3672
 1691SOL    HW214933   1.905   4.093   1.095  0.5411 -1.5644 -0.5834
 1692SOL     OW14934   3.027   0.051   1.976 -0.0068  0.2972 -0.1561
 1692SOL    HW114935   3.077   0.038   1.890 -1.0903  1.5681 -0.9986
 1692SOL    HW214936   2.999   0.146   1.984  0.9602  0.4424  2.1177
 1693SOL     OW14937   2.777   7.608   2.276  0.0151  0.1244  0.2765
 1693SOL    HW114938   2.748   7.701   2.297 -1.4943 -0.1931 -0.2981
 1693SOL    HW214939   2.877   7.603   2.273  0.1071  1.5910  0.8721
 1694SOL     OW14940   2.670   7.584   1.417  0.3641 -0.4403 -0.0843
 1694SOL    HW114941   2.707   7.535   1.497  0.3948  0.2461  0.3241
 1694SOL    HW214942   2.585   7.629   1.444  0.1639 -0.5403 -0.5540
 1695SOL     OW14943   2.314   0.309   0.691  0.5854 -0.9206 -0.0149
 1695SOL    HW114944   2.351   0.390   0.646  0.0372 -0.1199  0.9547
 1695SOL    HW214945   2.336   0.228   0.638  0.9993 -0.1129 -1.0786
 1696SOL     OW14946   2.949   1.741   1.908  0.4270  0.2537  0.6602
 1696SOL    HW114947   3.040   1.699   1.911 -0.0615 -0.8662  0.1489
 1696SOL    HW214948   2.913   1.733   1.815  0.1590  1.4658  0.6539
 1697SOL     OW14949   2.299   1.592   2.356  0.1594  0.4609  0.0538
 1697SOL    HW114950   2.268   1.673   2.405  0.5955  0.0101  1.0830
 1697SOL    HW214951   2.357   1.536   2.416 -0.7464 -1.0038 -0.4019
 1698SOL     OW14952   1.998   3.130   0.798  0.5715 -0.0384 -0.1600
 1698SOL    HW114953   1.972   3.058   0.863 -1.1392 -1.8394 -2.7246
 1698SOL    HW214954   1.919   3.186   0.777  1.4131  1.3116  0.2497
 1699SOL     OW14955   4.349   1.139   0.067 -0.0077  0.7603  0.3676
 1699SOL    HW114956   4.353   1.064   0.133 -0.7695  1.8922  1.7390
 1699SOL    HW214957   4.309   1.220   0.111  0.5295  1.8850 -1.1560
 1700SOL     OW14958   3.428   9.308   2.774 -0.0585  0.0447  0.2495
 1700SOL    HW114959   3.335   9.327   2.806 -0.3225 -1.0848  0.1870
 1700SOL    HW214960   3.444   9.209   2.776  0.8537  0.1699 -0.5341
 1701SOL     OW14961   4.141   1.891   0.837 -0.1896 -0.1729 -0.6219
 1701SOL    HW114962   4.129   1.990   0.839  2.2270  0.1217  2.1705
 1701SOL    HW214963   4.219   1.868   0.778 -0.6397 -0.4020 -1.1309
 1702SOL     OW14964   3.113   8.941   1.605  0.5595  0.2963 -0.1130
 1702SOL    HW114965   3.180   8.893   1.549  0.3478  0.6937 -0.7192
 1702SOL    HW214966   3.158   9.014   1.655  0.7926 -0.2159  0.4189
 1703SOL     OW14967   3.889   8.281   2.631  0.0732 -0.5224  0.4279
 1703SOL    HW114968   3.903   8.248   2.724 -0.3805 -2.2252 -0.0956
 1703SOL    HW214969   3.800   8.250   2.598 -0.1336  0.7860 -0.2784
 1704SOL     OW14970   2.222   3.344   1.782  0.3917 -0.3365 -0.1083
 1704SOL    HW114971   2.154   3.287   1.829  1.2463  0.3870  2.0777
 1704SOL    HW214972   2.281   3.388   1.850  0.9569  1.6508 -1.8473
 1705SOL     OW14973   2.268   0.063   1.503 -0.5761  0.5807 -0.6450
 1705SOL    HW114974   2.306   0.125   1.571 -0.0797  0.4217 -0.7706
 1705SOL    HW214975   2.206   0.113   1.442 -0.8060  0.7782 -0.2489
 1706SOL     OW14976   2.295   8.985   2.583 -0.1536 -0.1097 -1.0322
 1706SOL    HW114977   2.275   9.055   2.515  0.6968  0.5386 -0.6196
 1706SOL    HW214978   2.263   8.896   2.550 -0.3246  0.3111 -1.9982
 1707SOL     OW14979   3.369   8.678   0.164  0.4034 -0.3004  0.4281
 1707SOL    HW114980   3.454   8.642   0.203  1.3250 -0.3834 -1.5767
 1707SOL    HW214981   3.300   8.606   0.160  0.6149 -0.5345  1.0032
 1708SOL     OW14982   2.819   7.821   2.517 -0.3524  0.4268 -0.1505
 1708SOL    HW114983   2.848   7.881   2.591  1.2615  0.5064 -0.8417
 1708SOL    HW214984   2.814   7.872   2.431 -0.6147 -0.0470 -0.4257
 1709SOL     OW14985   2.368   7.046   1.668  0.3209 -0.1773 -0.5186
 1709SOL    HW114986   2.406   7.061   1.577  0.4053  0.8270 -0.3243
 1709SOL    HW214987   2.276   7.010   1.660  0.1409  0.3772 -1.0062
 1710SOL     OW14988   3.068   8.690   2.097 -0.2516  0.2355  0.0633
 1710SOL    HW114989   3.129   8.648   2.163  0.5767  0.3204 -0.6369
 1710SOL    HW214990   3.115   8.764   2.049 -0.2674 -0.9214 -1.8112
 1711SOL     OW14991   1.946   1.703   2.813 -0.1458 -0.5005 -0.1673
 1711SOL    HW114992   1.866   1.732   2.866 -0.6040 -1.9477 -0.0689
 1711SOL    HW214993   2.023   1.687   2.874 -0.1994 -0.5566 -0.1148
 1712SOL     OW14994   3.484   3.769   1.516  0.5997  0.3249  0.1931
 1712SOL    HW114995   3.476   3.868   1.507 -1.1464  0.1491 -0.2998
 1712SOL    HW214996   3.418   3.724   1.455 -0.1975 -1.1149  2.0547
 1713SOL     OW14997   4.759   2.545   1.366  0.0959  0.0440 -0.5958
 1713SOL    HW114998   4.782   2.620   1.427 -0.4397 -2.7416  3.1974
 1713SOL    HW214999   4.842   2.494   1.344 -0.0708 -0.4313 -0.1300
 1714SOL     OW15000   3.025   4.110   2.544  0.5020 -0.0882 -0.8069
 1714SOL    HW115001   3.037   4.040   2.474 -0.1748  0.3512 -1.3743
 1714SOL    HW215002   3.067   4.080   2.629 -1.1217 -1.8751 -0.5904
 1715SOL     OW15003   3.929   8.337   0.293  0.5783  0.2433 -0.1940
 1715SOL    HW115004   3.955   8.368   0.384  0.6504  0.7463 -0.3826
 1715SOL    HW215005   3.890   8.413   0.241 -1.2819 -0.5091  0.0836
 1716SOL     OW15006   4.055   3.147   1.416  0.0783 -0.1770 -0.2517
 1716SOL    HW115007   4.087   3.204   1.492 -0.6268 -0.6652  0.4177
 1716SOL    HW215008   4.133   3.103   1.372  0.2750 -2.1441  1.9952
 1717SOL     OW15009   3.916   4.309   1.728  0.1471  0.0282  0.0452
 1717SOL    HW115010   3.864   4.350   1.654 -0.8227  1.0037  1.2451
 1717SOL    HW215011   3.963   4.227   1.695 -0.4960  0.2938 -1.5539
 1718SOL     OW15012   2.144   6.417   2.368  0.6740  0.5785  0.1841
 1718SOL    HW115013   2.100   6.349   2.427 -0.5616  1.0804 -0.1643
 1718SOL    HW215014   2.231   6.445   2.410 -1.2849  2.7349  3.0705
 1719SOL     OW15015   2.452   5.369   0.460 -0.4253  0.6883 -0.4309
 1719SOL    HW115016   2.370   5.335   0.416  0.0458 -0.5702 -0.3365
 1719SOL    HW215017   2.477   5.310   0.537  0.8033  0.8265 -0.7096
 1720SOL     OW15018   3.861   9.098   2.298  0.1608 -0.2790 -0.4730
 1720SOL    HW115019   3.770   9.129   2.323  0.3205  1.0047 -1.4253
 1720SOL    HW215020   3.883   9.015   2.348 -1.2592 -0.2175  0.2718
 1721SOL     OW15021   2.581   2.815   2.209  0.4465 -1.2627  0.3394
 1721SOL    HW115022   2.649   2.889   2.214  1.1518 -1.7943 -1.1509
 1721SOL    HW215023   2.590   2.755   2.288 -0.2794  0.3561  1.6888
 1722SOL     OW15024   3.072   8.766   2.711 -0.3196  0.0195 -0.6643
 1722SOL    HW115025   3.155   8.723   2.746 -0.4366  0.6700  0.4207
 1722SOL    HW215026   3.015   8.696   2.668  1.3917 -0.2108 -2.6251
 1723SOL     OW15027   2.579   7.024   0.255  0.4993 -0.7165 -0.2921
 1723SOL    HW115028   2.625   6.995   0.171  0.4798 -0.6651 -0.3201
 1723SOL    HW215029   2.524   7.105   0.237  0.1255 -0.9776 -0.3366
 1724SOL     OW15030   4.213   1.924   2.076  0.2435  0.8168 -0.1711
 1724SOL    HW115031   4.261   1.838   2.094 -1.2080  0.3139  1.4186
 1724SOL    HW215032   4.230   1.953   1.982  1.6619 -0.6097 -0.3796
 1725SOL     OW15033   4.878   2.830   2.541  0.2581  0.0871 -0.1638
 1725SOL    HW115034   4.942   2.780   2.483  0.7012  0.9868 -0.4586
 1725SOL    HW215035   4.893   2.928   2.531 -2.1196  0.3643 -1.3226
 1726SOL     OW15036   2.669   3.963   1.214 -0.9622  0.4416  0.2015
 1726SOL    HW115037   2.634   3.871   1.231 -2.2393  0.6977 -0.9810
 1726SOL    HW215038   2.598   4.018   1.170  0.0143  1.7938  0.2975
 1727SOL     OW15039   1.730   3.343   1.807 -0.6965  0.7184  0.2212
 1727SOL    HW115040   1.664   3.417   1.824 -0.0552  1.4492 -0.3908
 1727SOL    HW215041   1.813   3.359   1.861 -0.6733  0.2850  0.3152
 1728SOL     OW15042   3.380   9.385   0.363 -0.0758  0.1291  0.0517
 1728SOL    HW115043   3.329   9.471   0.355  0.7300  0.5215 -1.0577
 1728SOL    HW215044   3.466   9.402   0.412 -0.7137 -0.4053  1.3785
 1729SOL     OW15045   3.052   1.773   0.549 -0.2187  0.2536 -0.1760
 1729SOL    HW115046   3.097   1.840   0.491 -1.2150 -0.3907 -1.7504
 1729SOL    HW215047   3.070   1.681   0.514 -1.6053 -0.0875 -0.0551
 1730SOL     OW15048   2.404   9.672   1.399  0.4790  0.4122  0.7119
 1730SOL    HW115049   2.363   9.718   1.478 -0.2414 -0.2605  0.7388
 1730SOL    HW215050   2.395   9.573   1.410  2.0342  0.2581  0.6623
 1731SOL     OW15051   3.391   0.688   0.634 -0.1221  0.3597 -0.6757
 1731SOL    HW115052   3.407   0.706   0.537 -0.1213 -1.1640 -0.9693
 1731SOL    HW215053   3.412   0.770   0.688  2.2617  0.4681 -1.7066
 1732SOL     OW15054   2.343   2.076   1.145 -0.8520 -0.0279 -0.2131
 1732SOL    HW115055   2.310   2.058   1.053  0.3568 -0.8771 -0.4879
 1732SOL    HW215056   2.333   1.993   1.201 -1.4385  0.4354  0.3896
 1733SOL     OW15057   3.362   8.807   1.516 -0.5810 -0.2749  0.2785
 1733SOL    HW115058   3.325   8.743   1.448 -3.0382  0.5175  0.7996
 1733SOL    HW215059   3.412   8.880   1.469 -0.7111 -0.7228 -0.5692
 1734SOL     OW15060   2.346   5.630   2.364  0.0093  0.3112  0.4240
 1734SOL    HW115061   2.394   5.635   2.277  0.7263 -0.6487  0.7549
 1734SOL    HW215062   2.323   5.722   2.395  0.6171  0.7106 -0.3116
 1735SOL     OW15063   3.286   5.859   1.934 -0.0125 -0.3735  0.4688
 1735SOL    HW115064   3.315   5.903   2.019 -1.4338 -0.3321  0.9428
 1735SOL    HW215065   3.263   5.929   1.866 -0.6435 -0.3896  0.6627
 1736SOL     OW15066   3.549   0.779   2.679 -0.4392 -0.1195 -0.4526
 1736SOL    HW115067   3.621   0.822   2.624  0.2454  0.3757  0.8177
 1736SOL    HW215068   3.515   0.844   2.747 -0.3519 -1.1326  0.5796
 1737SOL     OW15069   2.350   7.414   0.134 -0.2249  0.1586 -0.0117
 1737SOL    HW115070   2.377   7.344   0.068  2.3345  0.7883  0.2908
 1737SOL    HW215071   2.260   7.392   0.172  0.4782 -2.9022  0.0036
 1738SOL     OW15072   2.713   6.669   1.336 -0.0138 -0.1186 -0.6589
 1738SOL    HW115073   2.617   6.696   1.344 -0.2600 -1.5560  1.8028
 1738SOL    HW215074   2.719   6.572   1.316  0.8901 -0.6403  1.8757
 1739SOL     OW15075   3.837   4.749   1.356  0.3060  0.0075  0.1079
 1739SOL    HW115076   3.833   4.652   1.333 -0.4330 -0.6640  2.8076
 1739SOL    HW215077   3.784   4.802   1.290 -0.2704 -1.5876 -0.7143
 1740SOL     OW15078   3.063   9.483   2.449 -0.1968  0.7667 -0.1444
 1740SOL    HW115079   3.012   9.539   2.383  0.0983 -0.6496 -1.6257
 1740SOL    HW215080   3.010   9.400   2.470  1.3556 -0.6040 -1.5256
 1741SOL     OW15081   2.493   3.721   1.658 -0.4292  0.1272  0.2155
 1741SOL    HW115082   2.412   3.662   1.652  1.2284 -1.9867 -2.2823
 1741SOL    HW215083   2.529   3.718   1.751 -0.9764 -1.9738  0.3832
 1742SOL     OW15084   3.291   5.970   2.173 -0.4297 -0.2928  0.2278
 1742SOL    HW115085   3.249   6.061   2.177 -0.9774 -0.5797  1.0412
 1742SOL    HW215086   3.341   5.953   2.257  0.8914 -0.1714 -0.5169
 1743SOL     OW15087   2.649   7.539   0.493 -0.2959  1.0805  0.3035
 1743SOL    HW115088   2.624   7.587   0.578  1.7854 -0.0683  1.5861
 1743SOL    HW215089   2.666   7.607   0.421  0.0769  2.1686  1.3902
 1744SOL     OW15090   4.381   4.261   1.840 -0.2518  0.0338 -0.1608
 1744SOL    HW115091   4.299   4.292   1.791 -1.0189  0.8844  1.6084
 1744SOL    HW215092   4.462   4.291   1.790 -1.0055  0.4118 -1.2003
 1745SOL     OW15093   2.348   6.241   1.763  1.0933  0.2251 -0.2442
 1745SOL    HW115094   2.331   6.236   1.862  2.7683  0.6481  0.0849
 1745SOL    HW215095   2.265   6.271   1.716 -0.1544 -1.3842  0.8756
 1746SOL     OW15096   2.616   2.116   1.124  0.1879 -0.8748 -0.2031
 1746SOL    HW115097   2.662   2.040   1.171  0.2343 -0.1570  0.9194
 1746SOL    HW215098   2.526   2.130   1.164  0.0248 -0.5837 -0.6674
 1747SOL     OW15099   3.135   2.797   1.080 -0.1439 -0.7468  0.4340
 1747SOL    HW115100   3.220   2.848   1.089  0.1180 -1.2575  0.8990
 1747SOL    HW215101   3.070   2.827   1.150 -0.8226  0.5538 -0.7306
 1748SOL     OW15102   2.281   7.204   1.999  0.1167  0.4007 -0.4923
 1748SOL    HW115103   2.266   7.163   2.089  0.5261  0.0053 -0.6027
 1748SOL    HW215104   2.257   7.138   1.928 -3.0882  1.6987 -0.7219
 1749SOL     OW15105   2.040   2.484   1.042 -0.1708 -0.9010  0.2167
 1749SOL    HW115106   2.032   2.481   1.142  1.5798 -1.1015  0.3704
 1749SOL    HW215107   1.976   2.552   1.006 -0.1969 -0.1843  1.5547
 1750SOL     OW15108   1.919   3.733   2.819 -0.3497  0.8519  0.3917
 1750SOL    HW115109   1.871   3.666   2.762 -1.4586  0.9582  1.1684
 1750SOL    HW215110   1.935   3.817   2.766  0.1631  0.3360 -0.2801
 1751SOL     OW15111   4.800   1.148   1.482  0.3505  0.6993  0.1095
 1751SOL    HW115112   4.752   1.073   1.436  0.5126 -0.4271  1.7014
 1751SOL    HW215113   4.888   1.164   1.437  1.3105 -1.6085  1.0696
 1752SOL     OW15114   2.687   1.726   1.986 -0.7070  0.3650 -0.1270
 1752SOL    HW115115   2.783   1.732   1.957 -0.7061 -2.1136 -0.7355
 1752SOL    HW215116   2.629   1.772   1.919 -0.0714  0.8024 -0.3868
 1753SOL     OW15117   3.487   1.785   2.600 -0.2968 -0.6869 -0.3768
 1753SOL    HW115118   3.447   1.693   2.597 -0.6506 -0.5086 -2.0994
 1753SOL    HW215119   3.427   1.845   2.653  0.1102 -1.5127  1.0519
 1754SOL     OW15120   2.557   0.822   0.967  0.1922 -0.0531 -0.5071
 1754SOL    HW115121   2.585   0.732   0.935 -0.4280  0.0915 -1.4838
 1754SOL    HW215122   2.527   0.816   1.062  0.3146 -0.8371 -0.5153
 1755SOL     OW15123   3.640   1.346   1.907 -0.3063 -0.2260 -0.0524
 1755SOL    HW115124   3.608   1.439   1.925  0.5777 -0.1789  1.3055
 1755SOL    HW215125   3.569   1.296   1.857 -2.1369  0.1924  2.0355
 1756SOL     OW15126   2.149   8.700   2.000 -0.4984 -0.1219 -0.1372
 1756SOL    HW115127   2.136   8.722   1.903 -0.7925  1.2736  0.2041
 1756SOL    HW215128   2.101   8.768   2.056 -0.8851 -1.2931  0.9838
 1757SOL     OW15129   3.476   9.902   1.602 -0.4091 -0.6845  0.1670
 1757SOL    HW115130   3.393   9.945   1.566 -0.3416 -0.1518  0.6499
 1757SOL    HW215131   3.556   9.953   1.571 -0.3101 -0.6623  0.4562
 1758SOL     OW15132   2.268   0.360   1.506 -0.2442 -0.2975  0.1619
 1758SOL    HW115133   2.198   0.323   1.444  2.3178 -3.0161 -1.2221
 1758SOL    HW215134   2.347   0.391   1.453  0.8368 -0.0624  1.8878
 1759SOL     OW15135   2.977   7.704   1.246  0.3340  0.2246 -0.0562
 1759SOL    HW115136   2.986   7.658   1.334  0.1669  0.6087  0.1605
 1759SOL    HW215137   2.894   7.760   1.245  0.7843  0.8919 -0.1540
 1760SOL     OW15138   3.313   4.493   2.075 -0.2789  0.1941  0.4111
 1760SOL    HW115139   3.223   4.472   2.035 -0.8155  1.8797  0.6673
 1760SOL    HW215140   3.314   4.465   2.171  0.5965 -2.7623 -0.4144
 1761SOL     OW15141   2.204   7.114   2.244  0.1251 -0.8701  0.2615
 1761SOL    HW115142   2.264   7.150   2.316  1.9673 -1.2545 -1.0542
 1761SOL    HW215143   2.110   7.145   2.261  1.2559  2.7705  0.4086
 1762SOL     OW15144   3.095   2.987   2.824  0.2103 -0.4734  0.0686
 1762SOL    HW115145   3.172   3.045   2.797 -1.7990  1.3429 -2.0816
 1762SOL    HW215146   3.041   2.964   2.742 -1.0742 -2.3854  1.4079
 1763SOL     OW15147   2.046   2.248   0.899 -0.5773 -0.3093 -0.4668
 1763SOL    HW115148   2.137   2.208   0.908 -0.3039  0.0348 -1.6834
 1763SOL    HW215149   2.033   2.317   0.970  1.4451  2.1620 -2.3977
 1764SOL     OW15150   3.764   2.519   0.771 -0.1366  0.2435  0.0455
 1764SOL    HW115151   3.842   2.500   0.711  0.1799  0.3014  0.4312
 1764SOL    HW215152   3.680   2.488   0.728 -0.0035  0.9605 -0.7646
 1765SOL     OW15153   3.184   0.556   0.897 -1.0997  0.2522 -0.0206
 1765SOL    HW115154   3.252   0.515   0.836 -0.8979  0.9910 -0.2918
 1765SOL    HW215155   3.104   0.496   0.903 -0.7979 -0.1912 -0.3962
 1766SOL     OW15156   1.944   7.091   2.599 -0.2497  0.1780  0.4774
 1766SOL    HW115157   2.034   7.048   2.589 -0.2785 -0.4655  2.6844
 1766SOL    HW215158   1.956   7.189   2.616 -0.0465  0.4292 -1.0824
 1767SOL     OW15159   2.465   3.057   1.776 -0.4876  0.2830 -0.3760
 1767SOL    HW115160   2.449   3.151   1.806 -0.6218  0.2185 -0.2425
 1767SOL    HW215161   2.440   3.047   1.680 -0.3123  0.4255 -0.4366
 1768SOL     OW15162   1.982   4.505   1.976  0.2002  0.1529 -0.0907
 1768SOL    HW115163   1.928   4.469   1.900  1.4830  3.1662 -2.5400
 1768SOL    HW215164   1.934   4.582   2.018  1.0882  0.7674 -0.1834
 1769SOL     OW15165   3.858   0.673   0.729 -0.5127 -0.1328  0.5455
 1769SOL    HW115166   3.816   0.671   0.638  0.3200  0.6182  0.1273
 1769SOL    HW215167   3.904   0.586   0.746 -1.1863 -0.4968  0.4955
 1770SOL     OW15168   3.466   3.346   0.275  0.1747  0.4730  0.2602
 1770SOL    HW115169   3.381   3.324   0.323  0.3778 -1.0195 -0.0563
 1770SOL    HW215170   3.531   3.272   0.285  1.0587  1.1447 -0.4082
 1771SOL     OW15171   2.713   7.079   2.471  0.0622 -0.1844  0.0132
 1771SOL    HW115172   2.701   6.999   2.530  3.1243 -0.7701 -0.0436
 1771SOL    HW215173   2.787   7.136   2.507  1.4649 -0.1355 -2.7611
 1772SOL     OW15174   4.220   4.362   0.004  0.2931  0.3354  0.1295
 1772SOL    HW115175   4.290   4.407   0.059  0.7875 -0.3793  0.0906
 1772SOL    HW215176   4.251   4.356  -0.091 -0.4674  1.3790 -0.1953
 1773SOL     OW15177   3.353   7.306   0.948 -0.2047 -0.1629 -0.0918
 1773SOL    HW115178   3.347   7.324   1.046  0.8414  0.0230 -0.0623
 1773SOL    HW215179   3.448   7.309   0.919 -0.4632 -0.7684 -1.0157
 1774SOL     OW15180   2.378   7.933   0.726  0.0108  0.0500 -0.0842
 1774SOL    HW115181   2.290   7.977   0.739  1.2398  2.0566  1.6196
 1774SOL    HW215182   2.426   7.925   0.813  2.5081  1.1189 -1.2992
 1775SOL     OW15183   2.287   7.249   0.953  0.2308 -0.0549  0.0867
 1775SOL    HW115184   2.265   7.287   1.043 -0.4367 -0.3441  0.0454
 1775SOL    HW215185   2.327   7.158   0.964  1.0219  0.2952  0.1387
 1776SOL     OW15186   1.996   2.487   0.090  0.2998 -0.9829 -0.0751
 1776SOL    HW115187   1.900   2.473   0.067  0.4861 -1.6078 -0.5134
 1776SOL    HW215188   2.053   2.450   0.016  0.8726 -0.6659  0.2064
 1777SOL     OW15189   3.386   9.794   0.932  0.0767  0.1410  0.1000
 1777SOL    HW115190   3.336   9.779   1.017  0.9650  0.6366  0.7137
 1777SOL    HW215191   3.325   9.836   0.864 -1.0221 -1.5724  0.0138
 1778SOL     OW15192   4.155   3.545   1.427 -0.7477 -0.3053  0.2284
 1778SOL    HW115193   4.079   3.609   1.412  0.2645  0.5720 -1.2958
 1778SOL    HW215194   4.216   3.581   1.498  0.2939  0.8871 -1.2412
 1779SOL     OW15195   2.388   8.168   2.339 -0.4552  0.0303 -0.1800
 1779SOL    HW115196   2.356   8.192   2.431  2.7080  0.3151  0.9146
 1779SOL    HW215197   2.387   8.069   2.328  1.3595 -0.1450  1.0490
 1780SOL     OW15198   3.213   5.860   0.041  0.7512  0.3708  0.2185
 1780SOL    HW115199   3.312   5.872   0.049  0.5699  1.0182  1.5460
 1780SOL    HW215200   3.184   5.888  -0.051  1.6705  1.0334  0.1247
 1781SOL     OW15201   4.814   4.145   0.792 -0.1440  0.4009  0.2836
 1781SOL    HW115202   4.757   4.209   0.742 -1.4977  0.5258  1.9639
 1781SOL    HW215203   4.769   4.118   0.877  1.3430 -1.1421  0.6261
 1782SOL     OW15204   4.467   3.924   2.406  0.1926  0.2361 -0.6871
 1782SOL    HW115205   4.560   3.946   2.376 -0.4315  1.5241 -1.7620
 1782SOL    HW215206   4.403   3.953   2.335 -1.1703  1.2190  0.9287
 1783SOL     OW15207   4.636   3.716   1.478 -0.0053 -0.9861 -0.1586
 1783SOL    HW115208   4.734   3.733   1.492 -0.2564 -0.0311  0.5552
 1783SOL    HW215209   4.603   3.774   1.403 -0.6093  0.8780  1.4849
 1784SOL     OW15210   2.409   7.443   0.832 -0.0629  0.0539 -0.3775
 1784SOL    HW115211   2.376   7.354   0.863 -1.4133  1.1188  1.3165
 1784SOL    HW215212   2.331   7.500   0.807  0.6566  1.5975  0.8557
 1785SOL     OW15213   3.208   2.744   0.076  0.5335 -0.6787  0.4535
 1785SOL    HW115214   3.213   2.836   0.036 -0.1720 -0.4391  0.8984
 1785SOL    HW215215   3.192   2.677   0.004  0.2846 -0.3579  0.2067
 1786SOL     OW15216   2.253   4.975   0.280 -0.5261  0.0068  0.0629
 1786SOL    HW115217   2.182   4.935   0.337 -1.3865  0.1656 -0.8798
 1786SOL    HW215218   2.307   4.903   0.237 -2.5607 -0.2206 -2.2444
 1787SOL     OW15219   2.761   2.230   2.120 -0.0971 -0.3457 -0.2031
 1787SOL    HW115220   2.699   2.208   2.195 -0.9632 -1.7536 -1.3200
 1787SOL    HW215221   2.721   2.303   2.064 -0.3338 -0.6466 -0.4225
 1788SOL     OW15222   2.450   0.930   1.570  0.8565  0.3330  0.4320
 1788SOL    HW115223   2.430   0.847   1.621 -0.7988  2.1314  2.8485
 1788SOL    HW215224   2.512   0.909   1.495 -0.1169 -3.1846  0.5222
 1789SOL     OW15225   2.350   9.474   0.975  0.1268  0.2226 -0.3388
 1789SOL    HW115226   2.315   9.492   1.067 -1.5586 -0.5914 -0.7884
 1789SOL    HW215227   2.408   9.392   0.977  1.4032  1.1345  0.2784
 1790SOL     OW15228   3.596   9.230   1.997 -0.4065  0.1136  0.6908
 1790SOL    HW115229   3.552   9.225   2.087 -1.6045 -0.8479  0.0548
 1790SOL    HW215230   3.690   9.196   2.004 -0.2766  0.6487  1.7069
 1791SOL     OW15231   1.986   4.028   1.491 -0.0938  0.1823  0.5955
 1791SOL    HW115232   1.968   3.987   1.580 -0.5143  0.3960  0.6109
 1791SOL    HW215233   2.084   4.022   1.470 -0.2704 -1.6325  0.2009
 1792SOL     OW15234   2.375   5.052   0.535 -0.1450  0.1280  0.1552
 1792SOL    HW115235   2.369   5.057   0.435 -1.0754  0.6552  0.2376
 1792SOL    HW215236   2.320   4.975   0.568 -1.2317  0.9970  0.3912
 1793SOL     OW15237   2.516   1.277   0.646 -0.1097 -0.0272 -0.3759
 1793SOL    HW115238   2.570   1.196   0.621  1.9583  1.5130 -1.1125
 1793SOL    HW215239   2.577   1.345   0.686 -1.6694  1.4978 -0.5780
 1794SOL     OW15240   1.974   5.084   2.071  0.3390 -0.1207 -0.3756
 1794SOL    HW115241   1.950   5.058   1.977 -0.6057  0.1451 -0.2120
 1794SOL    HW215242   1.944   5.177   2.089 -1.1341 -0.7800  0.7652
 1795SOL     OW15243   2.353   2.218   0.245  0.0326 -0.4427 -0.3556
 1795SOL    HW115244   2.338   2.147   0.314  0.8402 -0.1982  0.0761
 1795SOL    HW215245   2.270   2.228   0.189  0.2949 -2.4989 -1.1521
 1796SOL     OW15246   2.250   9.072   1.822 -0.3069 -0.0500  0.1012
 1796SOL    HW115247   2.153   9.050   1.821 -0.2351 -0.4666  1.8347
 1796SOL    HW215248   2.263   9.168   1.796 -1.1168 -0.1905 -0.8363
 1797SOL     OW15249   3.789   4.121   2.174  0.0199  0.1592 -0.0928
 1797SOL    HW115250   3.762   4.050   2.109 -1.5240 -1.1233  1.9081
 1797SOL    HW215251   3.708   4.162   2.214  0.9288  2.2760 -0.3519
 1798SOL     OW15252   3.321   5.347   0.695 -0.1416 -0.4880  0.2685
 1798SOL    HW115253   3.284   5.380   0.608 -2.0841 -1.2108  0.7963
 1798SOL    HW215254   3.421   5.341   0.689 -0.2402 -0.2362 -1.7911
 1799SOL     OW15255   2.573   5.905   0.398  0.5256 -0.8420 -0.7172
 1799SOL    HW115256   2.577   6.004   0.411  0.9640 -0.7427 -1.5583
 1799SOL    HW215257   2.613   5.860   0.478 -2.5823 -0.4505  1.1475
 1800SOL     OW15258   3.104   0.346   0.219 -0.6891  0.3824 -0.1244
 1800SOL    HW115259   3.088   0.266   0.277 -1.0671 -0.0903 -0.8685
 1800SOL    HW215260   3.029   0.412   0.231 -0.8373  0.2237 -0.1775
 1801SOL     OW15261   2.461   2.273   0.767 -0.1361 -0.2627 -0.0828
 1801SOL    HW115262   2.455   2.360   0.719 -1.2093 -0.1903  0.1711
 1801SOL    HW215263   2.512   2.285   0.852  1.5000 -0.3238 -1.0294
 1802SOL     OW15264   2.296   8.929   1.402 -0.1413 -0.1966 -0.1997
 1802SOL    HW115265   2.353   8.887   1.331  0.3591 -1.5835  0.9993
 1802SOL    HW215266   2.221   8.867   1.426 -1.2210  0.9263 -0.5952
 1803SOL     OW15267   3.558   4.848   1.710  0.6199 -0.3913  0.2332
 1803SOL    HW115268   3.468   4.870   1.748 -0.3907 -1.6071 -1.3555
 1803SOL    HW215269   3.556   4.756   1.671  1.7355  0.5848 -2.2529
 1804SOL     OW15270   3.139   8.824   0.294  0.3908  0.5522  0.7462
 1804SOL    HW115271   3.216   8.781   0.248 -0.0526  0.8713 -0.3094
 1804SOL    HW215272   3.097   8.892   0.233  0.6180  1.9315  2.1124
 1805SOL     OW15273   3.558   1.615   1.927 -0.2645  0.4399 -0.0263
 1805SOL    HW115274   3.617   1.677   1.978 -1.7826 -0.0859  2.5011
 1805SOL    HW215275   3.537   1.654   1.837  1.0074  2.2880  0.4592
 1806SOL     OW15276   3.174   7.917   0.100  0.2566  0.1348  0.2014
 1806SOL    HW115277   3.098   7.971   0.064  0.1365  0.4516  0.9224
 1806SOL    HW215278   3.180   7.930   0.199 -0.3050 -1.8272  0.5194
 1807SOL     OW15279   2.258   0.609   1.073  0.3363  0.6409 -0.1011
 1807SOL    HW115280   2.276   0.707   1.078 -2.4384  1.1355  1.0730
 1807SOL    HW215281   2.244   0.582   0.978 -2.9973  2.2169 -0.1109
 1808SOL     OW15282   2.483   7.929   1.615 -0.4861 -0.3724  0.0680
 1808SOL    HW115283   2.441   7.977   1.538 -0.3934 -0.4482 -0.0309
 1808SOL    HW215284   2.566   7.976   1.643 -0.6605 -0.1962  0.2942
 1809SOL     OW15285   3.150   1.563   2.446  0.4778 -0.3864  0.0893
 1809SOL    HW115286   3.085   1.492   2.473  0.9743 -1.2139 -0.8178
 1809SOL    HW215287   3.129   1.593   2.353  0.8466 -0.0198  0.1236
 1810SOL     OW15288   4.310   2.059   1.210 -0.4798 -0.8180 -0.1714
 1810SOL    HW115289   4.225   2.010   1.231 -0.9327 -1.0445 -2.4773
 1810SOL    HW215290   4.362   2.072   1.295 -2.2242 -1.7608  1.0786
 1811SOL     OW15291   1.814   6.966   0.665 -0.3157  0.1661 -0.5594
 1811SOL    HW115292   1.784   7.051   0.622 -0.2266 -0.5244 -1.9971
 1811SOL    HW215293   1.907   6.976   0.699  0.5565 -0.0695 -2.7864
 1812SOL     OW15294   2.964   0.065   0.123 -0.0415 -0.3297  0.5867
 1812SOL    HW115295   3.010  -0.024   0.121 -2.4666 -1.5945 -1.0693
 1812SOL    HW215296   2.968   0.106   0.032 -2.1838 -0.4848  0.4063
 1813SOL     OW15297   2.689   5.989   2.677 -0.3185  0.1985 -0.1775
 1813SOL    HW115298   2.625   6.066   2.671 -0.6371 -0.0143  0.4799
 1813SOL    HW215299   2.739   5.981   2.591 -1.8740 -0.2322 -1.0679
 1814SOL     OW15300   2.408   1.146   2.507  0.1067 -0.1178 -0.0042
 1814SOL    HW115301   2.335   1.146   2.438 -1.6349 -1.4270  1.7780
 1814SOL    HW215302   2.483   1.089   2.477 -0.3797 -0.1956 -1.0806
 1815SOL     OW15303   4.994   2.010   0.973 -0.5469  0.5221 -0.2851
 1815SOL    HW115304   4.907   1.992   1.020  1.6207 -0.5619  3.5413
 1815SOL    HW215305   5.037   1.923   0.950  1.1428  0.9836  1.0462
 1816SOL     OW15306   1.582   3.589   1.879 -0.6610  0.0088 -0.2454
 1816SOL    HW115307   1.484   3.602   1.889 -0.6279  0.2131 -0.1943
 1816SOL    HW215308   1.616   3.645   1.804 -0.6522 -0.3698 -0.5248
 1817SOL     OW15309   3.093   0.630   1.520 -0.0118  0.9811 -0.2254
 1817SOL    HW115310   3.118   0.643   1.617  0.3092  1.7299 -0.4026
 1817SOL    HW215311   3.087   0.532   1.500  1.3648  0.7970  0.2022
 1818SOL     OW15312   2.889   6.684   2.250  0.9600  0.4265  0.3662
 1818SOL    HW115313   2.835   6.724   2.175  1.5586  0.6299  0.0369
 1818SOL    HW215314   2.837   6.690   2.335  0.6245  0.9781  0.1281
 1819SOL     OW15315   2.125   2.429   2.455 -0.8005 -0.3052  1.4347
 1819SOL    HW115316   2.106   2.364   2.382 -0.7909 -0.2187  1.3557
 1819SOL    HW215317   2.082   2.517   2.434  0.6889  0.2525  0.6910
 1820SOL     OW15318   3.388   8.868   2.117 -0.1331 -0.3080  0.0040
 1820SOL    HW115319   3.293   8.873   2.087 -0.4720  1.0646  1.2721
 1820SOL    HW215320   3.429   8.959   2.114  0.0390 -0.2573  2.9846
 1821SOL     OW15321   2.818   7.811   0.016  0.1625  0.0456 -0.6721
 1821SOL    HW115322   2.907   7.776  -0.013 -0.6571 -2.8579  0.2336
 1821SOL    HW215323   2.832   7.897   0.066  2.4491 -0.3124 -0.6298
 1822SOL     OW15324   3.024   9.126   0.956 -0.1489  0.4195 -0.8876
 1822SOL    HW115325   3.047   9.192   0.884  0.6458 -1.5191 -2.4560
 1822SOL    HW215326   2.938   9.153   1.000  0.2519  2.5804 -1.3652
 1823SOL     OW15327   2.050   6.420   1.294  0.2956  0.2885  0.4839
 1823SOL    HW115328   2.131   6.392   1.347  0.0684 -1.0561  0.1429
 1823SOL    HW215329   2.071   6.503   1.243  1.3344  0.1894  0.7279
 1824SOL     OW15330   2.746   1.064   1.914  0.1797  0.8557  0.8860
 1824SOL    HW115331   2.803   1.133   1.869  0.0150  1.5740  1.7484
 1824SOL    HW215332   2.751   0.978   1.864  1.7140  1.0144  0.7385
 1825SOL     OW15333   3.325   7.735   2.536 -0.5664  0.7938  0.2455
 1825SOL    HW115334   3.341   7.800   2.462 -1.5308  0.9464  0.1696
 1825SOL    HW215335   3.298   7.647   2.498  3.5804 -0.5452  0.2042
 1826SOL     OW15336   3.997   0.672   1.091  0.5116  0.1606  0.0981
 1826SOL    HW115337   4.009   0.623   1.178  0.4157 -0.3275 -0.1596
 1826SOL    HW215338   3.963   0.764   1.109  0.1268 -0.0689  0.5593
 1827SOL     OW15339   2.962   8.057   0.378  0.0563 -0.6626 -0.3473
 1827SOL    HW115340   2.919   8.048   0.468  0.0442  1.4464 -0.0995
 1827SOL    HW215341   3.029   7.984   0.365 -1.7309 -2.4723  0.3224
 1828SOL     OW15342   3.979   1.572   0.480 -0.5534  0.3127  1.2283
 1828SOL    HW115343   3.935   1.542   0.565 -0.4440  0.2791  1.2735
 1828SOL    HW215344   4.034   1.497   0.443  0.0012  0.5698  1.5270
 1829SOL     OW15345   3.749   3.800   0.681  0.2671  0.3089  0.5257
 1829SOL    HW115346   3.799   3.714   0.686  0.0849  0.1533 -0.2463
 1829SOL    HW215347   3.651   3.781   0.673  0.4103  0.5318 -2.1539
 1830SOL     OW15348   4.621   3.110   1.531 -0.2974 -0.2317 -0.1318
 1830SOL    HW115349   4.634   3.202   1.570 -1.4281  0.0147 -0.3289
 1830SOL    HW215350   4.709   3.076   1.497 -0.1367  1.3882 -1.4002
 1831SOL     OW15351   2.901   9.072   1.974 -0.3097 -0.2850 -0.4224
 1831SOL    HW115352   2.935   9.120   2.055 -0.2186  0.2620 -0.7809
 1831SOL    HW215353   2.839   8.999   2.002  1.9308 -1.9586  0.2944
 1832SOL     OW15354   4.254   3.109   2.661  0.1792  0.0859 -0.2703
 1832SOL    HW115355   4.212   3.019   2.647  1.7477 -0.3124 -2.6824
 1832SOL    HW215356   4.330   3.101   2.725  1.6487 -0.7522 -2.0714
 1833SOL     OW15357   3.367   1.553   2.137 -1.2040  0.5359  0.8342
 1833SOL    HW115358   3.412   1.587   2.055 -1.7631  0.1770  0.3743
 1833SOL    HW215359   3.268   1.568   2.130 -1.5493 -1.6790  0.3490
 1834SOL     OW15360   2.147   7.953   0.334 -0.1316 -0.5910  0.2889
 1834SOL    HW115361   2.202   8.031   0.365  2.4682 -2.3315  0.2087
 1834SOL    HW215362   2.070   7.939   0.397  0.7370  0.5803  1.6412
 1835SOL     OW15363   2.823   8.898   2.819  0.1004  0.4445 -0.2361
 1835SOL    HW115364   2.915   8.861   2.806 -0.3632 -0.6496 -0.5110
 1835SOL    HW215365   2.757   8.839   2.771 -0.6713  1.5796 -0.5843
 1836SOL     OW15366   4.500   4.885   1.026  0.0199  0.2513  0.0050
 1836SOL    HW115367   4.453   4.797   1.032 -0.7041  0.6467  0.2493
 1836SOL    HW215368   4.493   4.932   1.114  0.5972  0.4616 -0.0578
 1837SOL     OW15369   3.883   2.894   1.651 -0.2791 -0.1594 -0.2995
 1837SOL    HW115370   3.825   2.847   1.585  2.1202 -1.8952 -1.2787
 1837SOL    HW215371   3.943   2.959   1.604 -0.3210  0.4655  0.4830
 1838SOL     OW15372   3.191   3.838   0.693 -0.1727 -0.1214  0.4959
 1838SOL    HW115373   3.148   3.919   0.732 -2.0653 -1.0637  0.4114
 1838SOL    HW215374   3.161   3.757   0.744  0.9640 -0.8710 -0.0104
 1839SOL     OW15375   2.529   3.275   0.254 -0.5203 -0.2000 -0.3638
 1839SOL    HW115376   2.464   3.285   0.329 -4.0592  0.0687 -3.3232
 1839SOL    HW215377   2.561   3.366   0.226  0.6440 -0.2867  0.6604
 1840SOL     OW15378   3.163   2.847   0.618 -0.7544  0.1264  0.0272
 1840SOL    HW115379   3.077   2.864   0.666  0.4604 -0.1279  2.3385
 1840SOL    HW215380   3.235   2.904   0.658 -0.1995  1.8114 -3.1492
 1841SOL     OW15381   3.368   8.376   1.839 -0.1311 -0.1090 -0.1602
 1841SOL    HW115382   3.384   8.466   1.880  2.6232  0.2818 -1.9873
 1841SOL    HW215383   3.276   8.374   1.799 -1.1626  1.0156  2.0371
 1842SOL     OW15384   3.286   2.695   2.439 -0.0946 -0.1445  0.6600
 1842SOL    HW115385   3.332   2.689   2.527  0.2084  1.6027  0.6476
 1842SOL    HW215386   3.347   2.659   2.367  0.0945 -0.5441  1.0187
 1843SOL     OW15387   2.321   1.803   1.366 -0.1167 -0.5563  0.1247
 1843SOL    HW115388   2.232   1.770   1.398 -0.9953  0.9880 -0.6817
 1843SOL    HW215389   2.386   1.803   1.442 -0.9264 -1.2301  0.8267
 1844SOL     OW15390   3.426   8.071   2.619 -0.2812  0.2016 -0.7095
 1844SOL    HW115391   3.335   8.055   2.658 -0.5764  0.9681 -1.0854
 1844SOL    HW215392   3.428   8.039   2.524 -0.0086 -0.2700 -0.5485
 1845SOL     OW15393   3.445   0.850   2.354 -0.4650 -0.0169  0.6720
 1845SOL    HW115394   3.505   0.928   2.373 -0.7314  0.2076  0.5866
 1845SOL    HW215395   3.501   0.769   2.339 -0.1866  0.1548  0.7726
 1846SOL     OW15396   2.671   8.599   2.019 -0.6230 -0.0850  0.6664
 1846SOL    HW115397   2.607   8.522   2.012  0.6234 -1.3720  2.7258
 1846SOL    HW215398   2.759   8.573   1.978 -0.2657  0.3017  1.1742
 1847SOL     OW15399   2.963   0.688   2.184  0.1817 -0.3460 -0.0599
 1847SOL    HW115400   3.053   0.724   2.207  0.6834 -1.4329 -0.2636
 1847SOL    HW215401   2.965   0.588   2.192 -1.3506 -0.2879  1.1336
 1848SOL     OW15402   1.708   3.264   0.309 -0.4610 -1.0144 -0.3487
 1848SOL    HW115403   1.675   3.333   0.245 -0.9394  0.0168  0.9979
 1848SOL    HW215404   1.698   3.297   0.402  1.2877 -2.0515  0.2235
 1849SOL     OW15405   4.857   1.449   1.143 -0.3862 -0.3322 -0.5275
 1849SOL    HW115406   4.941   1.395   1.136  0.1269  0.4064 -0.1534
 1849SOL    HW215407   4.794   1.405   1.208 -0.0658 -0.5979 -0.3955
 1850SOL     OW15408   2.756   9.646   0.210  0.0883 -0.4670 -0.0485
 1850SOL    HW115409   2.820   9.723   0.214 -1.9567  1.2665  0.0720
 1850SOL    HW215410   2.667   9.678   0.180 -1.2948 -2.4556  1.7501
 1851SOL     OW15411   2.214   2.543   0.820  0.4973  0.8644  0.4045
 1851SOL    HW115412   2.143   2.514   0.884  1.3026 -1.2393  0.3690
 1851SOL    HW215413   2.266   2.464   0.789  0.7712  1.9760 -2.0941
 1852SOL     OW15414   3.276   0.981   1.769  0.0646 -0.9523 -0.1775
 1852SOL    HW115415   3.367   0.961   1.733 -0.6044 -1.6628 -1.5331
 1852SOL    HW215416   3.256   0.921   1.846  0.4057 -1.3650 -0.4123
 1853SOL     OW15417   2.579   5.923   1.996  0.2680  0.4221  0.1205
 1853SOL    HW115418   2.517   5.845   1.989 -1.2923  1.6211  0.1931
 1853SOL    HW215419   2.597   5.959   1.904  0.4041  0.4120  0.1441
 1854SOL     OW15420   4.215   1.013   1.922 -0.1482 -0.2899 -0.4264
 1854SOL    HW115421   4.159   1.090   1.891 -1.0206 -0.1163  1.5338
 1854SOL    HW215422   4.300   1.047   1.962  0.3812 -0.4552 -1.3892
 1855SOL     OW15423   5.061   3.181   1.537  0.4090  0.4745  0.2911
 1855SOL    HW115424   5.014   3.224   1.460  0.3733  2.0936  1.1969
 1855SOL    HW215425   5.041   3.231   1.621  3.0889  0.7228  0.8239
 1856SOL     OW15426   4.185   5.347   2.402 -0.0325 -0.4676  0.0673
 1856SOL    HW115427   4.139   5.427   2.363  0.6206 -0.1202  0.0047
 1856SOL    HW215428   4.149   5.329   2.494 -1.0061 -0.8086 -0.3638
 1857SOL     OW15429   4.449   2.823   1.238  0.1646 -0.2832  0.6139
 1857SOL    HW115430   4.452   2.902   1.298 -1.1561  0.9611 -0.9140
 1857SOL    HW215431   4.536   2.815   1.188  0.3645  0.0983  0.9047
 1858SOL     OW15432   2.126   1.505   2.721  0.5769  0.0792 -0.6175
 1858SOL    HW115433   2.046   1.565   2.725  0.4888 -0.0768  0.0312
 1858SOL    HW215434   2.100   1.413   2.751  1.6242  0.7102  2.3472
 1859SOL     OW15435   2.899   0.292   1.989 -0.3938  0.4996  0.1098
 1859SOL    HW115436   2.803   0.274   2.008 -0.9352  1.3716 -1.6441
 1859SOL    HW215437   2.929   0.373   2.040 -0.0510 -0.8333  2.0879
 1860SOL     OW15438   2.646   3.621   1.872  0.0049 -0.8984 -0.2253
 1860SOL    HW115439   2.694   3.706   1.854 -0.0543 -0.9665 -0.7163
 1860SOL    HW215440   2.695   3.545   1.829  0.2503 -1.1615  0.5066
 1861SOL     OW15441   1.954   1.919   1.613  0.9234 -0.0653 -0.4559
 1861SOL    HW115442   1.934   1.822   1.624  1.0477 -0.2603 -1.8863
 1861SOL    HW215443   1.890   1.972   1.669  1.9121 -1.0149  1.6003
 1862SOL     OW15444   3.514   4.224   0.717 -0.5549  0.5731  0.2223
 1862SOL    HW115445   3.477   4.307   0.675 -2.3446 -0.2197  0.1840
 1862SOL    HW215446   3.556   4.247   0.804 -0.5523  1.6041 -0.0410
 1863SOL     OW15447   2.417   2.844   1.964 -0.0998  0.1359  0.0350
 1863SOL    HW115448   2.431   2.914   1.894 -0.0327  0.5588  0.4701
 1863SOL    HW215449   2.497   2.840   2.024 -0.6778  0.6576  0.8592
 1864SOL     OW15450   3.132   2.274   0.172 -0.3533 -0.3597  0.2305
 1864SOL    HW115451   3.133   2.226   0.085 -3.5310 -0.1098 -0.0029
 1864SOL    HW215452   3.127   2.373   0.156  3.4137 -0.0359  0.7175
 1865SOL     OW15453   2.814   8.666   2.283 -0.2031 -0.2828 -0.6721
 1865SOL    HW115454   2.897   8.630   2.242  0.2819 -0.3579  0.3824
 1865SOL    HW215455   2.742   8.669   2.213  0.9561  0.7398 -1.8562
 1866SOL     OW15456   2.675   4.822   0.460  0.1120 -0.5720  0.0268
 1866SOL    HW115457   2.774   4.830   0.448  0.3600 -1.8907  1.0933
 1866SOL    HW215458   2.647   4.867   0.545 -0.1748 -0.3876 -0.1629
 1867SOL     OW15459   2.599   9.980   0.977  0.1676  0.0235  0.6761
 1867SOL    HW115460   2.693   9.946   0.969 -0.8473 -2.1547 -3.8010
 1867SOL    HW215461   2.546   9.919   1.036  0.6899 -0.8342  0.2686
 1868SOL     OW15462   4.165   1.197   2.373 -0.3505 -0.5232 -0.8961
 1868SOL    HW115463   4.107   1.198   2.291  0.3088 -1.2307 -1.3785
 1868SOL    HW215464   4.259   1.219   2.347 -0.0482 -1.2222 -0.4004
 1869SOL     OW15465   2.977   5.924   2.123 -0.2177 -0.1602 -0.1188
 1869SOL    HW115466   2.916   5.855   2.162 -1.3169 -0.0411 -1.5556
 1869SOL    HW215467   3.071   5.902   2.146 -0.8550  0.3545  3.2311
 1870SOL     OW15468   4.636   1.912   0.410  0.0464  0.2257 -0.2539
 1870SOL    HW115469   4.666   1.831   0.361  0.8323  0.5873 -0.3875
 1870SOL    HW215470   4.594   1.977   0.347  0.5754  0.4643 -0.3635
 1871SOL     OW15471   3.166   3.331   2.614 -0.3730  0.4181 -0.7662
 1871SOL    HW115472   3.219   3.398   2.561 -1.1087 -0.9266 -3.2755
 1871SOL    HW215473   3.229   3.276   2.669  0.6416  0.3488 -1.9678
 1872SOL     OW15474   4.941   2.922   2.193 -0.1455 -0.4266  0.1994
 1872SOL    HW115475   4.958   2.898   2.097 -0.6931  0.3477 -0.0940
 1872SOL    HW215476   4.855   2.971   2.200 -0.9277 -1.9322  1.3250
 1873SOL     OW15477   3.984   1.396   1.409 -0.0160 -0.2976  0.4921
 1873SOL    HW115478   3.889   1.367   1.402  0.4252 -1.8513  0.6886
 1873SOL    HW215479   3.990   1.477   1.467 -1.3835  0.7263 -0.7554
 1874SOL     OW15480   4.990   3.318   0.490  0.1413  0.5000  0.5067
 1874SOL    HW115481   4.977   3.417   0.484 -0.0658  0.4968  0.9265
 1874SOL    HW215482   4.971   3.287   0.583 -0.9778 -0.1111  0.0803
 1875SOL     OW15483   3.508   5.926   0.064  1.1238 -0.1484 -0.2476
 1875SOL    HW115484   3.518   5.910  -0.034  3.7890 -0.1298 -0.0054
 1875SOL    HW215485   3.480   6.021   0.079  1.7130  0.1404 -0.9515
 1876SOL     OW15486   1.963   4.833   2.553  0.1679 -0.2274  0.4966
 1876SOL    HW115487   1.865   4.847   2.570  0.1416 -1.2517  1.2480
 1876SOL    HW215488   2.003   4.917   2.517 -1.1654 -0.0470 -0.6101
 1877SOL     OW15489   2.827   2.850   1.514  0.1232 -0.1374 -0.0353
 1877SOL    HW115490   2.800   2.889   1.602 -0.6116  1.1278 -0.8017
 1877SOL    HW215491   2.919   2.812   1.521  0.1408  0.1255  1.2348
 1878SOL     OW15492   1.979   4.125   0.900 -0.3336  0.4521 -0.2150
 1878SOL    HW115493   1.986   4.225   0.899  2.5265  0.3064  1.3071
 1878SOL    HW215494   2.021   4.088   0.817  2.1720  0.3693  1.0504
 1879SOL     OW15495   3.007   5.341   2.522  0.3420 -0.1736  0.0313
 1879SOL    HW115496   3.020   5.416   2.587  0.9356  0.5206 -0.8687
 1879SOL    HW215497   2.911   5.337   2.494  0.4193  0.6448 -0.3710
 1880SOL     OW15498   3.738   2.740   2.827  0.4126 -0.3509  0.4923
 1880SOL    HW115499   3.795   2.693   2.759  0.0068 -0.3680  0.1617
 1880SOL    HW215500   3.693   2.673   2.885 -0.2959 -0.3752 -0.0854
 1881SOL     OW15501   3.077   2.921   2.090  0.3336 -0.0458  0.4224
 1881SOL    HW115502   3.139   2.903   2.013 -0.8430  0.0262 -0.5539
 1881SOL    HW215503   3.130   2.953   2.169  1.8383 -2.4850  0.4391
 1882SOL     OW15504   2.718   3.488   2.467  0.1331 -0.8157  0.1319
 1882SOL    HW115505   2.771   3.404   2.470 -1.2375 -1.7474 -0.7741
 1882SOL    HW215506   2.621   3.466   2.454 -0.2283  0.8975 -0.3068
 1883SOL     OW15507   3.063   0.105   2.703 -0.0668  0.2030  0.0709
 1883SOL    HW115508   2.996   0.086   2.632  0.5134 -0.4763 -0.2983
 1883SOL    HW215509   3.141   0.043   2.694  0.0158  0.1016  1.2975
 1884SOL     OW15510   4.440   1.263   1.627  0.2882 -0.1900  0.2498
 1884SOL    HW115511   4.411   1.167   1.622 -0.2335  0.0375 -1.2250
 1884SOL    HW215512   4.528   1.274   1.582 -0.1030  0.2043 -0.4102
 1885SOL     OW15513   2.450   1.541   2.008  0.0197 -0.2994 -0.1245
 1885SOL    HW115514   2.379   1.566   1.942 -0.8413  1.9967  1.5827
 1885SOL    HW215515   2.534   1.591   1.987  0.8038 -2.1313 -1.4508
 1886SOL     OW15516   2.901   9.439   0.953 -0.0434 -0.1308 -0.3590
 1886SOL    HW115517   2.851   9.368   1.002 -0.4303  0.5958  0.3222
 1886SOL    HW215518   2.966   9.397   0.890  1.4540 -1.0940  1.7635
 1887SOL     OW15519   2.870   6.603   0.372 -0.4748 -1.0136  0.3233
 1887SOL    HW115520   2.808   6.539   0.327  0.4488 -0.2853 -2.0629
 1887SOL    HW215521   2.824   6.692   0.382  0.0507 -0.5586 -1.1768
 1888SOL     OW15522   3.833   3.068   0.496  0.2397  0.3447 -0.5002
 1888SOL    HW115523   3.903   3.028   0.555 -0.3795  1.0958  0.7515
 1888SOL    HW215524   3.774   2.995   0.461 -0.5463  0.0712  1.3354
 1889SOL     OW15525   3.254   3.806   1.132 -0.2987  0.7495  0.2398
 1889SOL    HW115526   3.183   3.876   1.131 -0.2888  0.7594  0.2398
 1889SOL    HW215527   3.238   3.743   1.208 -0.0122  1.0492  0.5441
 1890SOL     OW15528   3.339   8.707   2.733  0.0896  0.6695  0.2611
 1890SOL    HW115529   3.363   8.754   2.819 -2.0547 -1.0273  1.8344
 1890SOL    HW215530   3.423   8.676   2.688  1.2653  1.8699  1.5766
 1891SOL     OW15531   2.730   1.515   2.817 -0.3097 -0.4090 -0.6054
 1891SOL    HW115532   2.830   1.519   2.812 -0.2390 -0.5148  0.5431
 1891SOL    HW215533   2.702   1.424   2.848 -0.6425  0.3603  1.4286
 1892SOL     OW15534   4.258   2.407   0.988 -0.3948  0.0362  0.0427
 1892SOL    HW115535   4.351   2.383   1.015 -1.0280 -0.0453  2.2451
 1892SOL    HW215536   4.235   2.498   1.025 -1.3635 -0.1699 -0.0438
 1893SOL     OW15537   3.177   5.791   0.314  0.1034 -0.3449  0.2139
 1893SOL    HW115538   3.203   5.832   0.226 -0.3505 -0.7874 -0.1298
 1893SOL    HW215539   3.083   5.816   0.336 -0.1926 -1.2444 -0.0243
 1894SOL     OW15540   4.517   4.399   1.397  0.0508 -0.4365 -1.0756
 1894SOL    HW115541   4.482   4.492   1.397  0.2770 -0.3337  1.0400
 1894SOL    HW215542   4.549   4.375   1.305 -1.2169  1.0954 -1.9296
 1895SOL     OW15543   2.736   2.781   0.977  0.3258 -0.1814  0.1298
 1895SOL    HW115544   2.787   2.785   0.891 -1.1745 -1.3247 -0.8273
 1895SOL    HW215545   2.755   2.695   1.023 -0.9434 -0.7346 -0.3657
 1896SOL     OW15546   3.253   4.400   2.300 -0.3794 -0.3206  0.1987
 1896SOL    HW115547   3.158   4.401   2.332 -0.3464 -1.3600  0.3349
 1896SOL    HW215548   3.315   4.406   2.378 -0.3290 -0.3634  0.1622
 1897SOL     OW15549   2.998   9.746   1.300 -0.1448  0.1041 -0.2616
 1897SOL    HW115550   2.906   9.775   1.326  0.0087 -0.1174  0.5510
 1897SOL    HW215551   3.047   9.716   1.382 -0.3429 -2.5406 -1.0582
 1898SOL     OW15552   2.998   7.046   1.994  0.3158  0.1590  0.0183
 1898SOL    HW115553   3.012   7.097   1.910  0.1651  0.5595  0.2358
 1898SOL    HW215554   3.008   7.107   2.072 -0.3788 -0.0312  0.2598
 1899SOL     OW15555   2.451   0.403   1.135  0.0102  1.1941  0.2369
 1899SOL    HW115556   2.390   0.483   1.130  1.3050  2.2114  0.4746
 1899SOL    HW215557   2.421   0.334   1.069 -1.7809  1.4120  0.7946
 1900SOL     OW15558   2.213   3.310   0.882 -0.6172 -0.2275  0.1249
 1900SOL    HW115559   2.245   3.220   0.853 -1.1280 -0.4761  0.3195
 1900SOL    HW215560   2.114   3.316   0.869 -0.3488  0.9334 -1.5401
 1901SOL     OW15561   2.882   9.892   0.964  0.3385  0.2988  0.0375
 1901SOL    HW115562   2.901   9.800   1.000  0.5874 -1.0272 -3.2726
 1901SOL    HW215563   2.963   9.949   0.977  1.3980 -0.9618 -0.7630
 1902SOL     OW15564   3.874   2.202   2.287 -0.1103 -0.4573 -0.8955
 1902SOL    HW115565   3.813   2.241   2.356 -0.3791 -0.9189 -0.8674
 1902SOL    HW215566   3.828   2.200   2.198  0.4477  0.6645 -1.2067
 1903SOL     OW15567   3.356   2.931   1.949  0.3650 -0.1860 -0.4975
 1903SOL    HW115568   3.388   3.008   1.894 -0.1949  0.8828  0.6401
 1903SOL    HW215569   3.396   2.937   2.041  0.5159 -1.4010 -0.4711
 1904SOL     OW15570   2.165   6.937   1.995 -0.4362 -0.3470  0.1195
 1904SOL    HW115571   2.083   6.881   1.978 -0.4387 -0.2351 -0.2567
 1904SOL    HW215572   2.165   6.969   2.089 -0.7631 -0.4580  0.1578
 1905SOL     OW15573   3.181   9.595   0.365  0.1285  0.0550  0.3362
 1905SOL    HW115574   3.112   9.539   0.319 -0.9706  2.4986 -1.1664
 1905SOL    HW215575   3.135   9.658   0.428  1.1538  0.4603  0.6816
 1906SOL     OW15576   2.540   3.063   2.513 -0.5957 -0.1717 -0.3099
 1906SOL    HW115577   2.480   3.043   2.436 -1.0070  0.2055 -0.0892
 1906SOL    HW215578   2.523   2.998   2.587  0.6971 -1.3462 -1.0114
 1907SOL     OW15579   3.406   1.324   2.353  0.2377 -0.3267  0.3137
 1907SOL    HW115580   3.449   1.404   2.394  0.1891 -0.0121 -0.2413
 1907SOL    HW215581   3.440   1.312   2.259 -0.0759 -0.7041  0.2472
 1908SOL     OW15582   3.332   5.751   0.559  0.3387  0.4008  0.6538
 1908SOL    HW115583   3.296   5.791   0.475  0.4176 -1.3065 -0.2147
 1908SOL    HW215584   3.308   5.809   0.637 -2.7725  0.2066 -0.1157
 1909SOL     OW15585   1.626   4.433   2.717  0.2215  0.1150 -0.6824
 1909SOL    HW115586   1.632   4.507   2.651 -0.1986  0.2320 -0.5926
 1909SOL    HW215587   1.664   4.462   2.805 -0.4382  0.4098 -0.4904
 1910SOL     OW15588   3.037   8.334   2.335  0.2526  0.1658  1.0594
 1910SOL    HW115589   3.022   8.338   2.434 -1.9251  0.4068  0.7429
 1910SOL    HW215590   2.952   8.308   2.290  0.8465  1.4596 -0.8601
 1911SOL     OW15591   2.477   1.174   1.883  0.6979  0.2848  0.1366
 1911SOL    HW115592   2.573   1.161   1.910  1.0095 -1.0667 -1.5296
 1911SOL    HW215593   2.473   1.196   1.785 -0.7275 -0.1598  0.0898
 1912SOL     OW15594   3.108   6.811   2.060  0.2674 -0.0152 -0.4429
 1912SOL    HW115595   3.074   6.779   2.148  1.7635  0.1271  0.1982
 1912SOL    HW215596   3.071   6.902   2.041 -0.0901 -0.0627  0.0179
 1913SOL     OW15597   2.993   5.716   1.017 -0.0375 -0.0312 -0.2938
 1913SOL    HW115598   2.917   5.654   0.999  0.3534 -0.6008 -0.0038
 1913SOL    HW215599   3.072   5.663   1.051  0.5960  0.5075 -0.9085
 1914SOL     OW15600   3.073   4.190   2.123  0.0796 -0.1947  0.1582
 1914SOL    HW115601   3.155   4.194   2.179  0.7587 -1.6029 -0.7145
 1914SOL    HW215602   3.039   4.283   2.108  2.4208  0.5518 -0.7932
 1915SOL     OW15603   3.528   5.012   1.036  0.4487 -0.1166 -0.1088
 1915SOL    HW115604   3.465   5.061   0.975 -0.2555 -1.3238 -0.3690
 1915SOL    HW215605   3.496   5.018   1.130 -0.8769 -1.9310 -0.4108
 1916SOL     OW15606   2.288   4.832   1.998  0.4493 -0.7360 -0.3833
 1916SOL    HW115607   2.240   4.856   1.913  0.2994 -1.5760 -0.5413
 1916SOL    HW215608   2.237   4.866   2.076  1.0912  0.9061 -0.6709
 1917SOL     OW15609   2.439   2.640   0.534  0.1502  0.3969  0.1257
 1917SOL    HW115610   2.489   2.654   0.619 -0.2572 -0.7190  0.5556
 1917SOL    HW215611   2.480   2.565   0.482  1.0212  1.7319 -1.1521
 1918SOL     OW15612   3.638   5.238   0.338  0.4136 -1.0618  0.2042
 1918SOL    HW115613   3.640   5.314   0.402 -3.2838 -2.2909  1.8684
 1918SOL    HW215614   3.715   5.177   0.356  2.3619  1.2435  0.0214
 1919SOL     OW15615   2.109   3.596   2.061 -0.0361 -0.1407  0.1319
 1919SOL    HW115616   2.194   3.545   2.045  0.0715  0.6504 -1.9229
 1919SOL    HW215617   2.031   3.540   2.034 -0.1730 -0.7522  1.7375
 1920SOL     OW15618   2.922   4.961   2.808  0.4754  0.5022 -0.4566
 1920SOL    HW115619   2.839   4.931   2.760  0.2614  1.3764 -0.6355
 1920SOL    HW215620   2.949   4.891   2.874 -1.0628  0.7153  0.4174
 1921SOL     OW15621   2.136   2.370   2.713 -0.1693  0.2157 -0.2355
 1921SOL    HW115622   2.131   2.390   2.615 -1.2045 -0.1517 -0.2611
 1921SOL    HW215623   2.218   2.317   2.733 -1.2089 -1.7894 -1.2636
 1922SOL     OW15624   1.690   4.822   2.679  0.1975  0.0031  0.3004
 1922SOL    HW115625   1.657   4.903   2.728  3.4314  1.5514  0.0540
 1922SOL    HW215626   1.724   4.755   2.744  1.7693  0.8187  0.3418
 1923SOL     OW15627   4.501   1.278   1.059 -0.3606  0.0884  0.9368
 1923SOL    HW115628   4.465   1.331   1.135 -0.6753 -2.7095  2.7932
 1923SOL    HW215629   4.490   1.180   1.077  0.9499 -0.6817 -2.0146
 1924SOL     OW15630   3.847   4.194   0.275 -0.1220 -0.7138  0.4607
 1924SOL    HW115631   3.922   4.231   0.331 -0.4865 -0.0754  0.5288
 1924SOL    HW215632   3.847   4.094   0.281 -0.0494 -0.6559  1.4745
 1925SOL     OW15633   2.409   6.070   1.283  0.2627  0.9707 -0.3601
 1925SOL    HW115634   2.465   5.987   1.274  0.2164  0.9134 -0.1080
 1925SOL    HW215635   2.429   6.114   1.371 -1.7244 -0.2427  0.7132
 1926SOL     OW15636   2.577   7.721   0.683 -0.2992  0.2858 -0.3352
 1926SOL    HW115637   2.499   7.778   0.712 -1.6683 -1.3885 -0.6699
 1926SOL    HW215638   2.628   7.692   0.764 -0.0904  1.2828 -0.1012
 1927SOL     OW15639   4.251   5.336   0.690  0.3939 -0.2454 -0.4581
 1927SOL    HW115640   4.185   5.361   0.619  0.6372 -1.1866 -1.0236
 1927SOL    HW215641   4.319   5.274   0.652 -0.4726 -2.1522  1.0220
  10.00000  10.00000   2.84200
