Written by MDAnalysis
21218
    1CHTO  H203    1   5.906   6.796   2.476  2.2594  2.9701  3.4914
    1CHTO   O82    2   5.897   6.711   2.513 -0.7552  1.2313 -0.7271
    1CHTO  C123    3   5.979   6.683   2.624 -0.8453 -0.9842 -0.2759
    1CHTO  H227    4   5.981   6.765   2.697  1.2403 -1.3623  0.1371
    1CHTO   O77    5   5.922   6.560   2.681 -0.2821 -0.3783  0.3211
    1CHTO  C118    6   5.988   6.494   2.792  0.1257  0.5916  0.4473
    1CHTO  H222    7   6.012   6.562   2.874 -0.1632  0.4490  0.6516
    1CHTO  C125    8   5.893   6.379   2.836 -0.2585 -0.3508  0.4197
    1CHTO   O84    9   5.780   6.436   2.913  0.2945 -0.8119 -0.1704
    1CHTO  H205   10   5.697   6.406   2.881 -0.1685 -0.1055  0.3621
    1CHTO  C114   11   6.119   6.450   2.729 -0.4301 -0.1796 -0.4787
    1CHTO  H218   12   6.101   6.400   2.634  1.1324 -0.8667 -0.4241
    1CHTO  C116   13   6.211   6.571   2.694 -0.4131  0.3355 -0.2474
    1CHTO  H220   14   6.228   6.633   2.785  2.4999  0.2001 -0.6797
    1CHTO   O79   15   6.341   6.525   2.655 -0.1959  0.8669 -0.3403
    1CHTO  H201   16   6.350   6.542   2.563  0.6183 -0.6792 -0.5698
    1CHTO  C120   17   6.133   6.654   2.585 -0.1506 -0.1105  0.0081
    1CHTO  H224   18   6.145   6.589   2.495  1.0848 -0.5072  0.4405
    1CHTO   N21   19   6.217   6.775   2.566  0.3164 -0.1739 -0.6655
    1CHTO  H211   20   6.300   6.764   2.499  1.4082  1.8549  0.3177
    1CHTO  H212   21   6.153   6.857   2.538 -1.1846 -0.9755  0.3013
    1CHTO   O75   22   6.168   6.367   2.833  0.1083 -0.1735  0.5344
    1CHTO  C112   23   6.241   6.237   2.788  0.5237 -0.1175  0.2355
    1CHTO  H216   24   6.302   6.256   2.698  0.3443  0.5694  0.2546
    1CHTO   O73   25   6.139   6.140   2.771 -0.0239 -0.3284 -0.5520
    1CHTO  C113   26   6.170   6.004   2.734  0.4842 -0.3139  0.4322
    1CHTO  H217   27   6.225   6.007   2.637 -0.8802  0.7422 -0.3238
    1CHTO  C124   28   6.038   5.923   2.714 -0.7468 -0.1690 -0.1733
    1CHTO   O83   29   5.945   5.919   2.826 -0.5150  0.3845  0.2245
    1CHTO  H204   30   5.884   5.850   2.806 -0.3290  0.7567 -1.7145
    1CHTO  C109   31   6.261   5.939   2.838  0.0089 -0.3288  0.2140
    1CHTO  H213   32   6.198   5.930   2.928 -3.0059  1.1105 -1.6803
    1CHTO  C110   33   6.382   6.027   2.864  0.5867 -0.2992 -0.2779
    1CHTO  H214   34   6.441   6.018   2.773 -1.8513 -0.9028 -1.8456
    1CHTO   O78   35   6.468   5.969   2.969 -0.1851  0.3950 -0.1761
    1CHTO  H200   36   6.544   5.927   2.934 -0.4925 -0.7291  0.4965
    1CHTO  C111   37   6.340   6.178   2.899  0.1148 -0.6824  0.2756
    1CHTO  H215   38   6.286   6.184   2.994  1.4200  1.7185  0.9143
    1CHTO   N19   39   6.459   6.267   2.917  0.6573  0.4087  0.2841
    1CHTO  H207   40   6.499   6.302   2.823  1.1477 -2.9893 -0.8346
    1CHTO  H208   41   6.427   6.355   2.970 -2.5909  0.1024 -1.0115
    1CHTO   O74   42   6.291   5.810   2.786  0.3867  0.2214 -0.4818
    1CHTO  C115   43   6.358   5.697   2.862 -0.1541 -0.5067 -0.8655
    1CHTO  H219   44   6.345   5.706   2.970  1.1853 -2.0877 -0.5453
    1CHTO   O76   45   6.284   5.549   2.827 -0.2623 -0.0195 -0.5031
    1CHTO  C122   46   6.276   5.530   2.683 -0.1202  0.1185  0.4270
    1CHTO  H226   47   6.188   5.588   2.658  0.1148  0.2731 -0.0517
    1CHTO  C126   48   6.246   5.374   2.639 -0.0914 -0.2925 -0.7253
    1CHTO   O85   49   6.221   5.370   2.499 -0.0329 -0.1365  0.4258
    1CHTO  H206   50   6.217   5.280   2.472 -1.7582  1.1616 -4.1170
    1CHTO  C121   51   6.404   5.587   2.596 -0.5384 -0.3691 -0.1322
    1CHTO  H225   52   6.426   5.514   2.516  0.5613  0.6250 -0.7528
    1CHTO   O81   53   6.367   5.717   2.533  0.6108  0.1061 -0.5470
    1CHTO  H202   54   6.365   5.779   2.603  0.8022 -0.7313  0.2224
    1CHTO  C119   55   6.524   5.605   2.692 -0.0875 -0.4255  0.2450
    1CHTO  H223   56   6.542   5.502   2.720  1.5193 -0.7212 -1.7731
    1CHTO  C117   57   6.510   5.695   2.822 -0.4750  0.1019  0.9976
    1CHTO  H221   58   6.546   5.794   2.794  1.5803 -0.7998  0.3260
    1CHTO   N20   59   6.598   5.655   2.943  0.5160  0.1467 -0.1495
    1CHTO  H209   60   6.560   5.688   3.039 -0.1504  1.1433 -0.7379
    1CHTO  H210   61   6.624   5.551   2.946 -0.3937 -0.0728  0.0211
    1CHTO   O80   62   6.653   5.639   2.616  0.5570  0.0758  0.2247
    1CHTO  C103   63   6.786   5.560   2.638 -0.3128  0.3704 -0.1150
    1CHTO  H190   64   6.794   5.517   2.737 -1.1714 -1.4506 -0.8134
    1CHTO  C101   65   6.797   5.433   2.544 -0.1471 -0.0884 -0.4391
    1CHTO  H188   66   6.766   5.456   2.442 -0.6824 -0.2283 -0.3086
    1CHTO   O68   67   6.694   5.336   2.578  0.1499 -0.2817  0.8210
    1CHTO  H168   68   6.718   5.258   2.532  0.6083 -0.6357  1.6301
    1CHTO   C99   69   6.940   5.364   2.556 -0.3862 -0.8084 -0.6940
    1CHTO  H186   70   6.957   5.330   2.660 -1.2340  2.7289  0.6676
    1CHTO   N17   71   6.970   5.247   2.459 -0.8424  0.5595 -0.2901
    1CHTO  H174   72   7.067   5.212   2.490 -0.9191  2.0167  1.6514
    1CHTO  H175   73   6.890   5.176   2.468  0.5342 -0.8010  1.6420
    1CHTO   C97   74   7.053   5.472   2.530 -0.7785  0.0121 -0.5262
    1CHTO  H184   75   7.051   5.500   2.423 -1.9407 -0.9907 -0.7798
    1CHTO   O64   76   7.030   5.587   2.618  0.4660 -0.3825 -0.2676
    1CHTO  C104   77   6.906   5.658   2.614 -0.5092  1.2591 -0.6535
    1CHTO  H191   78   6.888   5.700   2.515 -2.9415  0.2216 -0.6872
    1CHTO  C108   79   6.911   5.770   2.720  0.4699  0.6520  0.4642
    1CHTO   O71   80   6.985   5.888   2.665  0.4281 -0.3249  0.7800
    1CHTO  H171   81   7.059   5.853   2.620 -0.6560 -0.4171 -0.9975
    1CHTO   O62   82   7.187   5.429   2.573  0.5852  0.0510 -0.5901
    1CHTO   C91   83   7.296   5.487   2.505  0.0392  0.0942 -0.1431
    1CHTO  H178   84   7.247   5.570   2.454 -0.5238 -0.9977 -1.4376
    1CHTO   C92   85   7.334   5.387   2.388  0.9822  0.0530 -0.7583
    1CHTO  H179   86   7.239   5.350   2.345  0.7950 -1.3972  0.7944
    1CHTO   O66   87   7.405   5.457   2.283 -0.2899 -0.0199 -0.1502
    1CHTO  H166   88   7.355   5.446   2.205 -2.8199  0.3557  1.3442
    1CHTO   C93   89   7.435   5.270   2.429 -0.6065  0.7776 -0.8150
    1CHTO  H180   90   7.477   5.225   2.337 -0.3993 -1.5048  0.3607
    1CHTO   N16   91   7.355   5.158   2.491 -0.5282 -0.2052 -0.1191
    1CHTO  H172   92   7.422   5.094   2.547  0.9643  1.1294 -0.3508
    1CHTO  H173   93   7.306   5.097   2.416  1.9655 -1.4158 -0.8020
    1CHTO   C94   94   7.550   5.321   2.518  0.0075  0.4552 -0.0930
    1CHTO  H181   95   7.604   5.238   2.564  0.5453  0.1082 -1.3410
    1CHTO   O61   96   7.510   5.421   2.619  0.0066 -0.6833  0.3294
    1CHTO   C95   97   7.420   5.527   2.596  0.8332  0.0518 -0.0816
    1CHTO  H182   98   7.373   5.546   2.693 -0.7110 -2.5169 -0.3008
    1CHTO  C106   99   7.495   5.658   2.548 -0.4302  0.0255  0.8425
    1CHTO   O69  100   7.619   5.690   2.619  0.3338 -0.2875  0.2696
    1CHTO  H169  101   7.636   5.781   2.607 -0.2418  0.0524  1.9217
    1CHTO   O63  102   7.652   5.409   2.423  0.1039 -0.3021  0.0677
    1CHTO   C96  103   7.781   5.384   2.457  0.5224 -0.0468 -0.2228
    1CHTO  H183  104   7.788   5.336   2.554 -1.3601  0.7974  0.3458
    1CHTO   C98  105   7.877   5.507   2.457 -0.5892  0.4852  0.6985
    1CHTO  H185  106   7.844   5.596   2.512 -0.4072  0.2113  1.2564
    1CHTO   O67  107   7.999   5.466   2.524 -0.4809  0.0561 -0.1401
    1CHTO  H167  108   8.079   5.478   2.476 -0.1924 -0.1678  0.2745
    1CHTO  C102  109   7.912   5.554   2.310  0.4745 -0.1807  0.6782
    1CHTO  H189  110   8.002   5.616   2.320  0.0784  0.2176  1.8700
    1CHTO   N18  111   7.818   5.641   2.233  0.2349  0.4842 -0.3343
    1CHTO  H176  112   7.788   5.729   2.288  0.6962 -0.6104  1.6807
    1CHTO  H177  113   7.875   5.685   2.152  0.0774  3.6865  1.2310
    1CHTO  C105  114   7.955   5.433   2.220  0.2260  0.0028  0.2269
    1CHTO  H192  115   7.950   5.457   2.114 -0.5832 -2.2838 -0.2891
    1CHTO   O65  116   7.872   5.313   2.225 -0.1763 -0.6010 -0.4127
    1CHTO  C100  117   7.825   5.270   2.356 -0.2092  0.0394  0.4535
    1CHTO  H187  118   7.734   5.211   2.337  0.7866 -1.1573 -0.6955
    1CHTO  C107  119   7.920   5.168   2.417 -0.6339  0.0309  0.2249
    1CHTO   O70  120   7.947   5.038   2.349 -0.2222 -0.2574  0.2835
    1CHTO  H170  121   7.864   4.995   2.349 -1.1918  1.5677  0.2391
    1CHTO   O57  122   8.102   5.398   2.263 -0.1557  0.0955 -0.6575
    1CHTO   C85  123   8.197   5.326   2.181 -0.3554  0.0343  0.4856
    1CHTO  H157  124   8.152   5.302   2.083 -0.7180 -1.5273  1.0261
    1CHTO   C83  125   8.231   5.194   2.243 -0.6993  0.5282  0.6424
    1CHTO  H155  126   8.151   5.120   2.238 -1.1248  0.9876  0.6814
    1CHTO   O56  127   8.256   5.210   2.384 -0.0533 -0.2211 -0.4204
    1CHTO  H135  128   8.324   5.151   2.409 -0.6575 -1.2069 -1.0526
    1CHTO   C81  129   8.351   5.125   2.163 -0.0557  0.8072 -0.3144
    1CHTO  H153  130   8.313   5.112   2.062  0.9800  0.1647 -0.6294
    1CHTO   N14  131   8.376   4.983   2.208 -0.4410 -0.2154 -0.0116
    1CHTO  H141  132   8.378   4.988   2.315 -0.3391 -4.0463  0.2333
    1CHTO  H142  133   8.295   4.920   2.178  0.1248 -0.6595 -0.6245
    1CHTO   C79  134   8.474   5.221   2.162 -0.5743  0.6081  0.5862
    1CHTO  H151  135   8.552   5.167   2.108 -0.1683  1.5768  0.1982
    1CHTO   O52  136   8.443   5.347   2.097  0.2546 -0.6248  0.1798
    1CHTO   C86  137   8.327   5.424   2.165 -0.1252 -0.0892  0.1206
    1CHTO  H158  138   8.364   5.445   2.268 -2.5042  0.8290  0.8305
    1CHTO   C90  139   8.301   5.557   2.096  0.3776  0.2524 -0.2693
    1CHTO   O60  140   8.250   5.526   1.968  0.1087  0.4626  0.0381
    1CHTO  H138  141   8.176   5.582   1.957 -0.0646  0.1045 -0.6468
    1CHTO   O50  142   8.544   5.246   2.289 -0.3122 -0.3024  0.5067
    1CHTO   C73  143   8.660   5.297   2.364 -0.1270  0.3879  0.2054
    1CHTO  H145  144   8.709   5.377   2.307  0.7669 -0.1428  0.2109
    1CHTO   C74  145   8.764   5.175   2.380  0.3261 -0.2756 -1.0308
    1CHTO  H146  146   8.784   5.126   2.284  2.1646 -1.7188  0.0649
    1CHTO   O54  147   8.886   5.236   2.427  0.4781 -0.6291  0.2524
    1CHTO  H133  148   8.873   5.268   2.514  1.5782 -1.7498  0.8481
    1CHTO   C75  149   8.696   5.070   2.479  0.4448 -0.2177 -0.1631
    1CHTO  H147  150   8.610   5.020   2.433 -0.0940  1.1724 -0.6733
    1CHTO   N13  151   8.787   4.958   2.518  0.0204 -0.2609 -0.1807
    1CHTO  H139  152   8.830   4.913   2.430  0.5009 -0.5250  0.1892
    1CHTO  H140  153   8.739   4.886   2.583  1.1394 -1.1319 -0.3253
    1CHTO   C76  154   8.626   5.141   2.611 -0.4192 -0.2465  0.1818
    1CHTO  H148  155   8.709   5.163   2.678 -0.6797  0.8326  0.1471
    1CHTO   O49  156   8.546   5.260   2.571  0.1490  0.2099  0.4146
    1CHTO   C77  157   8.619   5.356   2.497 -0.1796 -0.0879  0.1902
    1CHTO  H149  158   8.707   5.390   2.552 -1.5425  2.0979  1.0376
    1CHTO   C88  159   8.544   5.484   2.470 -0.4627  0.6833  0.5152
    1CHTO   O58  160   8.489   5.538   2.583  0.1675 -0.0706  0.0105
    1CHTO  H136  161   8.448   5.620   2.565 -1.1745 -0.1151  2.5350
    1CHTO   O51  162   8.514   5.032   2.685 -0.5127 -0.0273 -0.6998
    1CHTO   C78  163   8.434   5.103   2.788 -0.4612  0.6185  1.0258
    1CHTO  H150  164   8.413   5.209   2.762 -1.8581  0.8311  2.8460
    1CHTO   C80  165   8.507   5.103   2.923 -0.0376 -0.0030 -0.0196
    1CHTO  H152  166   8.517   4.997   2.954  1.1714  0.5957  1.7586
    1CHTO   O55  167   8.639   5.156   2.915 -0.9083 -0.7396 -0.7356
    1CHTO  H134  168   8.644   5.248   2.901  2.1500 -0.8141 -0.5102
    1CHTO   C84  169   8.430   5.185   3.036  0.8341 -0.0323  0.0580
    1CHTO  H156  170   8.448   5.291   3.018 -1.4434  0.4620  0.5256
    1CHTO   N15  171   8.487   5.165   3.177  0.0385 -0.2314  0.3058
    1CHTO  H143  172   8.512   5.062   3.191  5.1556  0.9897  1.0262
    1CHTO  H144  173   8.576   5.225   3.183  0.1136 -0.4094  0.9768
    1CHTO   C87  174   8.275   5.158   3.029  0.5224 -0.1887  0.4415
    1CHTO  H159  175   8.253   5.074   3.094 -1.9877  0.0592 -0.0130
    1CHTO   O53  176   8.222   5.134   2.893  0.1946 -0.0234 -0.1955
    1CHTO   C82  177   8.294   5.044   2.803  0.2893 -0.0517 -0.5388
    1CHTO  H154  178   8.293   4.943   2.845  1.2490  0.5877  1.0889
    1CHTO   C89  179   8.209   5.044   2.676 -0.4524 -0.0459  0.1495
    1CHTO   O59  180   8.083   4.979   2.695 -0.5836  0.2797 -0.1307
    1CHTO  H137  181   8.070   4.889   2.671  0.7112 -0.8762  3.1279
    1CHTO   O45  182   8.189   5.293   3.106 -0.8118 -0.4934 -0.2417
    1CHTO   C67  183   8.174   5.407   3.022 -0.2611  1.1820  0.4391
    1CHTO  H124  184   8.260   5.412   2.954  0.2018  1.7596  1.0626
    1CHTO   C65  185   8.045   5.387   2.931  0.9519  0.4449  0.0495
    1CHTO  H122  186   7.998   5.292   2.958  1.1432  0.1276 -0.7179
    1CHTO   O44  187   8.088   5.380   2.796  0.1903 -0.2932  0.2911
    1CHTO  H102  188   8.139   5.454   2.768  1.1696 -1.7074 -1.7812
    1CHTO   C63  189   7.939   5.508   2.955  0.5400  0.1234 -0.5414
    1CHTO  H120  190   7.904   5.509   3.058  0.2731 -1.8295 -0.5924
    1CHTO   N11  191   7.811   5.498   2.879 -0.2613 -0.2035  0.3848
    1CHTO  H108  192   7.828   5.470   2.777 -2.9689 -3.3925  0.7037
    1CHTO  H109  193   7.739   5.436   2.929 -0.9188  0.4727  0.2868
    1CHTO   C61  194   8.018   5.650   2.954  1.0607  0.1145  0.4443
    1CHTO  H118  195   7.952   5.724   3.001  0.0470  0.2322 -1.1256
    1CHTO   O40  196   8.140   5.650   3.019 -0.7263 -0.2574 -0.2985
    1CHTO   C68  197   8.180   5.537   3.103 -0.4870 -0.2426  0.3589
    1CHTO  H125  198   8.109   5.527   3.188 -1.0117 -0.9666 -0.1665
    1CHTO   C72  199   8.323   5.562   3.162  0.3204  0.1682 -0.1328
    1CHTO   O48  200   8.350   5.475   3.275 -0.4094 -0.1300  0.7463
    1CHTO  H105  201   8.400   5.526   3.336  0.8427 -0.6230  0.1605
    1CHTO   O38  202   8.038   5.695   2.820 -0.4085  0.1247  0.0161
    1CHTO   C55  203   8.030   5.835   2.786  0.0695 -0.3574 -0.0632
    1CHTO  H112  204   8.018   5.886   2.883 -0.6930 -0.1281 -0.2708
    1CHTO   C56  205   7.898   5.853   2.697  0.0881 -0.5500  0.3011
    1CHTO  H113  206   7.880   5.761   2.640 -1.7984 -0.5096  0.8203
    1CHTO   O42  207   7.791   5.864   2.792 -0.0352  0.4823 -0.8197
    1CHTO  H100  208   7.774   5.783   2.836 -0.0696  0.8526 -0.1430
    1CHTO   C57  209   7.907   5.982   2.601  0.4976 -0.1518 -0.2584
    1CHTO  H114  210   7.809   6.031   2.597  0.9122  0.7404  0.3112
    1CHTO   N10  211   7.937   5.957   2.462  0.1749  0.3049 -0.0700
    1CHTO  H106  212   7.849   5.963   2.400  0.1564 -0.6362 -0.1460
    1CHTO  H107  213   7.978   5.857   2.455 -1.0879 -0.2993  0.9514
    1CHTO   C58  214   8.008   6.088   2.657  0.2692 -0.2440  0.1409
    1CHTO  H115  215   8.027   6.171   2.585 -0.6507 -1.9185 -2.0856
    1CHTO   O37  216   8.134   6.028   2.680 -0.0710 -0.0020 -0.4160
    1CHTO   C59  217   8.155   5.895   2.722 -0.6277 -0.0829  0.0210
    1CHTO  H116  218   8.190   5.837   2.637  1.4893  0.3774  0.5591
    1CHTO   C70  219   8.265   5.890   2.823  1.2257 -0.6266  0.5219
    1CHTO   O46  220   8.395   5.914   2.761  0.5327  0.3003  0.1810
    1CHTO  H103  221   8.447   5.836   2.759 -1.0071 -0.7515 -0.1001
    1CHTO   O39  222   7.966   6.155   2.798 -0.1881  0.5523  0.4175
    1CHTO   C60  223   7.870   6.264   2.789 -0.1889 -0.7282 -0.4418
    1CHTO  H117  224   7.839   6.290   2.688  0.6517  1.8711 -0.0644
    1CHTO   C62  225   7.735   6.217   2.850  0.1152 -0.8060  0.1330
    1CHTO  H119  226   7.701   6.132   2.787 -0.6580 -1.9974  2.1072
    1CHTO   O43  227   7.752   6.173   2.986 -0.6052 -0.1128 -0.0670
    1CHTO  H101  228   7.807   6.096   2.986 -0.1425  0.1783 -2.5588
    1CHTO   C66  229   7.624   6.337   2.842 -0.2708  0.5117  0.0572
    1CHTO  H123  230   7.621   6.377   2.740 -0.1170  0.3683 -0.0042
    1CHTO   N12  231   7.485   6.292   2.884 -0.0016 -0.4524  0.1897
    1CHTO  H110  232   7.478   6.310   2.990 -1.3147  1.3442 -0.1680
    1CHTO  H111  233   7.407   6.349   2.835  1.4413  0.4608 -1.0593
    1CHTO   C69  234   7.685   6.456   2.922 -0.1242  1.2563  0.4369
    1CHTO  H126  235   7.716   6.430   3.025 -0.7319  1.1000  0.5795
    1CHTO   O41  236   7.826   6.503   2.850 -0.2438  0.7040 -0.6327
    1CHTO   C64  237   7.925   6.388   2.856 -0.4050  0.4816  0.3953
    1CHTO  H121  238   7.943   6.354   2.960 -1.4995  0.9980  0.7671
    1CHTO   C71  239   8.060   6.433   2.798 -0.2612 -0.2708 -0.3721
    1CHTO   O47  240   8.109   6.552   2.860 -0.2343  0.5681 -0.0938
    1CHTO  H104  241   8.136   6.535   2.948  0.5569  1.6591 -0.1132
    1CHTO   O34  242   7.595   6.592   2.935 -0.0848  0.0094  0.1612
    1CHTO   C49  243   7.616   6.729   2.891 -0.4545  0.3705  0.1458
    1CHTO   H91  244   7.668   6.720   2.796  0.1916  0.7312  0.4636
    1CHTO   C47  245   7.698   6.809   2.991  0.1693 -0.9534 -0.1512
    1CHTO   H89  246   7.722   6.906   2.941 -1.2628 -0.5701 -0.1113
    1CHTO   O33  247   7.819   6.737   3.004 -0.3099  0.0022 -0.3626
    1CHTO   H70  248   7.861   6.741   2.920  0.4121  1.1416  0.0349
    1CHTO   C45  249   7.612   6.825   3.123 -0.2593  0.5123  0.0296
    1CHTO   H87  250   7.581   6.725   3.157 -0.5192  1.0928  1.5393
    1CHTO    N8  251   7.689   6.883   3.238 -0.8536 -0.2222  0.2810
    1CHTO   H75  252   7.783   6.829   3.244  0.3740  1.9070  0.8494
    1CHTO   H76  253   7.707   6.988   3.216  3.0453 -0.7916  0.3419
    1CHTO   C43  254   7.478   6.901   3.095  0.0324 -1.3576  0.8546
    1CHTO   H85  255   7.428   6.890   3.191  2.5384  0.3842  2.4392
    1CHTO   O29  256   7.412   6.824   2.992  0.1216 -0.0785  0.8112
    1CHTO   C50  257   7.479   6.806   2.869  0.2878 -0.0914  0.3553
    1CHTO   H92  258   7.417   6.735   2.811 -2.9176 -0.1674  3.6979
    1CHTO   C54  259   7.489   6.928   2.781  0.2124 -0.9405 -0.6859
    1CHTO   O36  260   7.358   6.976   2.736  0.0014  0.1422 -0.2383
    1CHTO   H72  261   7.324   7.039   2.797 -0.9807  0.3773 -1.0317
    1CHTO   O27  262   7.494   7.041   3.063  0.0952  0.4440 -0.1621
    1CHTO   C37  263   7.454   7.166   3.020  0.0547 -0.4034  0.3688
    1CHTO   H79  264   7.479   7.176   2.913 -0.0398 -1.4276  0.2440
    1CHTO   C38  265   7.308   7.185   3.051  0.2015 -0.4503  0.5600
    1CHTO   H80  266   7.282   7.176   3.157 -0.8702  0.6299  0.3994
    1CHTO   O31  267   7.234   7.082   2.981 -0.5236  0.3091  0.5382
    1CHTO   H68  268   7.244   6.997   3.019  0.7504 -0.4498 -1.4121
    1CHTO   C39  269   7.263   7.327   3.006 -0.2933  0.0180 -0.4033
    1CHTO   H81  270   7.277   7.342   2.899  1.8096  0.7790 -0.0358
    1CHTO    N7  271   7.119   7.360   3.025  0.7275  0.5445  0.3647
    1CHTO   H73  272   7.096   7.370   3.130  0.0470 -0.1605  0.2930
    1CHTO   H74  273   7.096   7.451   2.972 -0.5467 -0.8012 -1.4514
    1CHTO   C40  274   7.352   7.433   3.083 -0.3979  0.5807  0.2002
    1CHTO   H82  275   7.330   7.427   3.189 -2.6227  0.2382 -0.2394
    1CHTO   O26  276   7.494   7.408   3.059  0.1984  0.2682 -0.0349
    1CHTO   C41  277   7.532   7.275   3.096  0.0090  0.9979  0.4703
    1CHTO   H83  278   7.522   7.263   3.205  2.6382 -1.1875  0.5379
    1CHTO   C52  279   7.679   7.247   3.044  0.4417 -0.1501  0.0240
    1CHTO   O35  280   7.777   7.330   3.073  0.3091  0.3716  0.0188
    1CHTO   H71  281   7.849   7.278   3.105 -0.9077 -1.5524 -0.2859
    1CHTO   O28  282   7.340   7.575   3.047 -0.1411  0.6466 -0.2750
    1CHTO   C42  283   7.397   7.645   2.931 -0.2825 -0.3392 -0.8318
    1CHTO   H84  284   7.444   7.571   2.865 -1.4525 -2.0001  0.1781
    1CHTO   C44  285   7.512   7.741   2.977  0.3549  0.9410 -0.3512
    1CHTO   H86  286   7.469   7.827   3.027  3.1716  2.3732 -0.2824
    1CHTO   O32  287   7.608   7.674   3.055  0.0613  0.3217  0.0773
    1CHTO   H69  288   7.582   7.640   3.138  3.3762 -2.1390  0.2103
    1CHTO   C48  289   7.569   7.802   2.840 -0.2160 -0.7493 -0.4528
    1CHTO   H90  290   7.619   7.722   2.785 -0.2867 -0.3095 -1.1551
    1CHTO    N9  291   7.682   7.908   2.859  0.3096 -0.8541 -0.7920
    1CHTO   H77  292   7.783   7.877   2.884 -0.3785 -3.5567 -1.2382
    1CHTO   H78  293   7.655   7.978   2.936  1.2679  1.9651 -2.9310
    1CHTO   C51  294   7.456   7.870   2.757  0.8954 -0.0782 -0.1614
    1CHTO   H93  295   7.425   7.960   2.810  0.5585 -0.0703 -0.3709
    1CHTO   O30  296   7.344   7.779   2.736 -0.0209  0.4931 -0.0994
    1CHTO   C46  297   7.290   7.732   2.852 -0.3489  0.2427 -0.0123
    1CHTO   H88  298   7.251   7.814   2.912 -0.0909 -0.4889  1.1704
    1CHTO   C53  299   7.171   7.651   2.818  0.3517  0.5106 -0.3793
    1CHTO   O72  300   7.199   7.527   2.749 -0.1795 -0.1862 -0.0123
    1CHTO  H199  301   7.273   7.529   2.692 -1.6219 -1.3249 -1.9788
    1CHTO   O22  302   7.506   7.907   2.633  0.5154 -0.1848  0.2459
    1CHTO   C31  303   7.466   7.882   2.493  0.5425  0.6238  0.4059
    1CHTO   H59  304   7.417   7.782   2.498  0.5596  0.7001  2.3697
    1CHTO   C29  305   7.361   7.978   2.439 -0.2546 -0.4215 -0.4908
    1CHTO   H57  306   7.406   8.078   2.439 -0.1921 -0.4445 -1.1428
    1CHTO   O21  307   7.247   7.988   2.530 -0.1998 -0.3220 -0.7919
    1CHTO   H37  308   7.185   8.043   2.486 -0.7683 -0.6956 -0.4553
    1CHTO   C27  309   7.321   7.936   2.289 -0.4642  0.4230  0.5668
    1CHTO   H55  310   7.267   7.840   2.297  1.7783 -0.8572  0.8564
    1CHTO    N5  311   7.234   8.034   2.222 -0.2840 -0.6149  0.1360
    1CHTO   H43  312   7.283   8.128   2.239  0.0739 -0.9893  1.2287
    1CHTO   H44  313   7.134   8.027   2.263 -0.6945  1.8459 -0.3597
    1CHTO   C25  314   7.443   7.895   2.201  0.3991  0.4821  0.3316
    1CHTO   H53  315   7.510   7.974   2.162  0.9285  0.3152  0.9025
    1CHTO   O17  316   7.519   7.796   2.283  0.7991 -0.8206  0.1380
    1CHTO   C32  317   7.584   7.860   2.392  0.2838  0.0736 -0.1881
    1CHTO   H60  318   7.633   7.956   2.374  1.6908 -0.6009 -0.0589
    1CHTO   C36  319   7.679   7.751   2.442  0.0029 -0.1288  0.4943
    1CHTO   O25  320   7.773   7.815   2.530 -0.0426  0.0227 -0.1918
    1CHTO   H40  321   7.858   7.833   2.496  0.2187  0.7888  0.8346
    1CHTO   O15  322   7.386   7.814   2.060 -0.0472 -0.2073  0.4086
    1CHTO   C19  323   7.304   7.781   1.940  0.5421  0.8073  0.0394
    1CHTO   H47  324   7.242   7.872   1.937  3.5343  2.9323  0.0802
    1CHTO   C20  325   7.386   7.781   1.810 -0.0368 -0.5025  0.4148
    1CHTO   H48  326   7.468   7.707   1.817  0.2852  0.0287  2.6476
    1CHTO   O19  327   7.453   7.907   1.799 -0.4452  0.1056 -0.1412
    1CHTO   H35  328   7.514   7.918   1.728 -0.4088  2.1199  0.1653
    1CHTO   C21  329   7.293   7.762   1.684  0.1788 -0.3559  0.5948
    1CHTO   H49  330   7.220   7.842   1.687 -1.5070 -1.8493  0.2994
    1CHTO    N4  331   7.368   7.769   1.553  0.4395  0.2011  1.0307
    1CHTO   H41  332   7.410   7.671   1.532  0.0214  0.5876 -1.7056
    1CHTO   H42  333   7.443   7.846   1.550  2.0708 -1.3519  0.5842
    1CHTO   C22  334   7.221   7.631   1.716  0.6471  0.3226  0.3367
    1CHTO   H50  335   7.292   7.551   1.738 -0.0254  0.4606  3.1363
    1CHTO   O14  336   7.138   7.646   1.832  0.6110  0.3221 -0.6619
    1CHTO   C23  337   7.210   7.658   1.955 -0.0261  1.3700  0.3945
    1CHTO   H51  338   7.264   7.563   1.961 -0.4383  1.0544 -0.9096
    1CHTO   C34  339   7.103   7.681   2.066 -0.7274  0.7840 -0.2059
    1CHTO   O23  340   7.039   7.553   2.090  0.0600  0.9983 -0.2909
    1CHTO   H38  341   7.005   7.548   2.178 -0.1375  1.4168 -0.3461
    1CHTO   O16  342   7.122   7.600   1.623  0.2671 -0.2078  0.2954
    1CHTO   C24  343   7.130   7.456   1.576 -0.0690 -0.2210  0.2807
    1CHTO   H52  344   7.226   7.410   1.600  0.2129 -1.3249 -2.7045
    1CHTO   C26  345   7.127   7.448   1.422  0.3111 -0.5811  0.4299
    1CHTO   H54  346   7.037   7.502   1.387  1.0628 -0.2274 -1.0048
    1CHTO   O20  347   7.247   7.510   1.374  1.0724 -0.2919  0.4271
    1CHTO   H36  348   7.327   7.466   1.397  1.5765 -1.5207 -3.2340
    1CHTO   C30  349   7.112   7.304   1.367 -0.4693  0.4715  0.1513
    1CHTO   H58  350   7.208   7.253   1.387  0.1111  2.0099  1.3747
    1CHTO    N6  351   7.094   7.306   1.221 -0.3962 -0.7943  0.4191
    1CHTO   H45  352   7.034   7.393   1.200  2.3620  0.7548 -1.3960
    1CHTO   H46  353   7.191   7.318   1.176 -0.4152  0.1946  0.6367
    1CHTO   C33  354   7.003   7.229   1.448 -0.2842 -0.5914 -0.1568
    1CHTO   H61  355   6.911   7.285   1.426  0.5494  0.4084 -1.1935
    1CHTO   O18  356   7.025   7.234   1.587 -0.3306 -0.5405  0.9801
    1CHTO   C28  357   7.017   7.370   1.641 -0.7883 -0.3475  0.4874
    1CHTO   H56  358   6.924   7.421   1.617 -0.2204 -0.7898 -2.8793
    1CHTO   C35  359   7.033   7.359   1.794 -0.3352  0.8145 -0.5365
    1CHTO   O24  360   6.923   7.294   1.853 -0.2941 -0.4900 -0.3294
    1CHTO   H39  361   6.930   7.202   1.840 -0.9020 -0.3821 -1.4965
    1CHTO    O9  362   6.992   7.094   1.401 -0.1226  0.3223 -0.2409
    1CHTO   C13  363   6.909   6.981   1.498 -0.4646  0.4882  0.0081
    1CHTO   H26  364   6.818   7.030   1.537 -0.1546  1.2384 -0.2131
    1CHTO   C11  365   7.009   6.937   1.625 -0.3622 -0.4001 -0.0729
    1CHTO   H24  366   7.011   7.012   1.706  0.3603  0.1430 -0.5975
    1CHTO    O8  367   7.139   6.917   1.566  0.1302 -0.1476  0.2141
    1CHTO    H3  368   7.123   6.887   1.479  0.0638 -1.1672  0.5672
    1CHTO    C9  369   6.953   6.802   1.684 -0.1805  0.2609 -0.1181
    1CHTO   H22  370   6.845   6.821   1.695  0.0512  0.5804  1.7596
    1CHTO    N2  371   7.005   6.770   1.815  0.3764 -0.3170 -0.6493
    1CHTO   H10  372   6.965   6.682   1.864  0.2786 -0.3019 -0.7017
    1CHTO   H11  373   6.987   6.853   1.881  0.2790  0.0916 -1.1908
    1CHTO    C7  374   6.966   6.695   1.568  0.1714  0.8254  0.4917
    1CHTO   H20  375   6.874   6.637   1.589 -1.6551  2.9938 -1.2302
    1CHTO    O4  376   6.959   6.745   1.432  0.8585 -0.0298  0.5693
    1CHTO   C14  377   6.864   6.852   1.423  0.4009  0.0872  0.3567
    1CHTO   H27  378   6.764   6.823   1.460 -1.1457  1.6157 -2.4699
    1CHTO   C18  379   6.844   6.888   1.278  0.4917 -0.1115  0.0217
    1CHTO   O13  380   6.715   6.941   1.238  0.0944 -0.2687 -0.0342
    1CHTO    H7  381   6.674   6.893   1.169 -0.9914  0.6094 -0.0320
    1CHTO    O2  382   7.091   6.577   1.575  0.0053 -0.0865  0.2318
    1CHTO    C1  383   7.187   6.569   1.468 -0.9201  0.0482  0.0253
    1CHTO   H14  384   7.206   6.673   1.435 -0.0678 -0.3815 -0.8442
    1CHTO    C2  385   7.154   6.472   1.340 -0.0352  0.0133  0.1621
    1CHTO   H15  386   7.134   6.370   1.377 -2.2921  0.4151  0.1253
    1CHTO    O6  387   7.040   6.528   1.273  0.3857 -0.5484  0.4215
    1CHTO    H1  388   7.000   6.469   1.212  1.3259 -1.4963  0.6844
    1CHTO    C3  389   7.285   6.471   1.243  0.0946 -0.3291 -0.4151
    1CHTO   H16  390   7.308   6.575   1.215 -1.1103  0.8461  2.8149
    1CHTO    N1  391   7.268   6.396   1.115  0.0383  0.0767  0.2107
    1CHTO    H8  392   7.355   6.415   1.054 -0.6748  0.4945 -0.6755
    1CHTO    H9  393   7.240   6.292   1.126  0.0719  0.0846  0.3706
    1CHTO    C4  394   7.414   6.423   1.328  0.8389  0.7544 -0.2598
    1CHTO   H17  395   7.400   6.319   1.354  1.4150  1.1171  1.5601
    1CHTO    O1  396   7.428   6.510   1.435  0.3988 -0.3185 -0.4801
    1CHTO    C5  397   7.321   6.522   1.532  0.1798 -0.0765  0.3642
    1CHTO   H18  398   7.298   6.422   1.569  0.1963 -0.1156  0.2689
    1CHTO   C16  399   7.379   6.601   1.642  0.0620 -0.2323 -0.0172
    1CHTO   O11  400   7.438   6.731   1.602  0.3935 -0.2293 -0.1905
    1CHTO    H5  401   7.370   6.796   1.597  1.1597  0.5216 -0.9260
    1CHTO    O3  402   7.538   6.431   1.255  0.4446  0.4859 -0.5745
    1CHTO    C6  403   7.639   6.324   1.275  0.5967 -0.2992 -0.6749
    1CHTO   H19  404   7.609   6.246   1.345  0.7196  1.9532  1.9849
    1CHTO    C8  405   7.677   6.256   1.139 -0.8218 -0.0683 -0.2107
    1CHTO   H21  406   7.702   6.336   1.069  1.5419  0.9269  1.6948
    1CHTO    O7  407   7.554   6.196   1.097 -0.4564  0.6975  0.1921
    1CHTO    H2  408   7.566   6.144   1.020 -0.1840 -1.4373  1.6386
    1CHTO   C12  409   7.806   6.166   1.145  0.3076 -0.0560 -1.1867
    1CHTO   H25  410   7.775   6.087   1.217  1.0523  2.6713  2.2417
    1CHTO    N3  411   7.842   6.098   1.015  0.8563 -0.0185  0.3808
    1CHTO   H12  412   7.882   6.000   1.036  0.0390 -0.2572  0.8464
    1CHTO   H13  413   7.912   6.155   0.956  1.8864 -1.4575  0.1675
    1CHTO   C15  414   7.922   6.242   1.202  0.7457  0.0206  0.4054
    1CHTO   H28  415   7.962   6.313   1.130  1.0581  0.2465  0.8030
    1CHTO   O10  416   8.039   6.154   1.258  0.0259 -0.2554 -0.0583
    1CHTO    H4  417   8.101   6.140   1.189 -0.7342 -1.5551 -0.4922
    1CHTO    O5  418   7.885   6.304   1.324 -0.4434 -0.0734 -0.4109
    1CHTO   C10  419   7.772   6.388   1.332  0.6263  0.4163  0.1334
    1CHTO   H23  420   7.801   6.477   1.277  0.1624  0.5239  0.0620
    1CHTO   C17  421   7.745   6.435   1.475 -0.4740 -0.8067  0.0313
    1CHTO   O12  422   7.692   6.333   1.559 -0.2111 -0.6151 -0.3614
    1CHTO    H6  423   7.691   6.351   1.652  0.2369 -1.7186 -0.1417
    2CHTO  H203  424   6.621   4.383   0.639 -0.9381 -2.9779 -3.0242
    2CHTO   O82  425   6.663   4.436   0.574 -0.0480  0.2686  0.0182
    2CHTO  C123  426   6.590   4.500   0.467  0.6041  0.1650  0.3044
    2CHTO  H227  427   6.659   4.531   0.388 -0.6108  3.6167  0.5205
    2CHTO   O77  428   6.495   4.393   0.440  0.1517  0.0465  0.3010
    2CHTO  C118  429   6.380   4.432   0.363  0.7167  0.1660  0.4863
    2CHTO  H222  430   6.418   4.481   0.273  0.7035 -0.9154 -0.1235
    2CHTO  C125  431   6.303   4.298   0.318  0.0751  0.5241 -0.4537
    2CHTO   O84  432   6.269   4.219   0.427 -0.0125  0.3128 -0.4359
    2CHTO  H205  433   6.322   4.222   0.504  1.3397 -1.4044 -1.2588
    2CHTO  C114  434   6.292   4.534   0.435  0.0351 -0.0188  0.1398
    2CHTO  H218  435   6.275   4.495   0.535 -2.0750 -0.9575 -0.5566
    2CHTO  C116  436   6.370   4.661   0.462 -0.3497 -0.0241 -0.7228
    2CHTO  H220  437   6.390   4.715   0.368 -0.1761 -1.3299 -1.4502
    2CHTO   O79  438   6.295   4.747   0.550  0.1623 -0.4799 -0.5619
    2CHTO  H201  439   6.331   4.833   0.554 -0.1131 -0.3756 -0.3404
    2CHTO  C120  440   6.515   4.625   0.524 -0.0639 -0.1566 -0.4126
    2CHTO  H224  441   6.483   4.604   0.629  2.2332 -0.2946  0.2756
    2CHTO   N21  442   6.599   4.744   0.525  0.2341 -0.1221 -0.2601
    2CHTO  H211  443   6.666   4.741   0.609  1.2664  0.3220 -1.0516
    2CHTO  H212  444   6.664   4.753   0.439 -0.3602 -0.3512 -0.7395
    2CHTO   O75  445   6.173   4.561   0.359 -0.2414  0.4966  0.0446
    2CHTO  C112  446   6.018   4.515   0.397 -1.1745 -0.8565  0.4897
    2CHTO  H216  447   6.023   4.450   0.486 -1.8955  0.2525  1.3582
    2CHTO   O73  448   5.970   4.444   0.282 -0.2565 -0.5643 -0.1833
    2CHTO  C113  449   5.839   4.386   0.300  0.0136  0.8768 -0.2190
    2CHTO  H217  450   5.843   4.314   0.385  1.4534  1.1787 -0.0116
    2CHTO  C124  451   5.819   4.302   0.172  0.2113 -0.2793  0.2722
    2CHTO   O83  452   5.906   4.192   0.165 -0.1651  0.5126 -0.0481
    2CHTO  H204  453   5.890   4.142   0.086 -3.3185  0.7663  0.3713
    2CHTO  C109  454   5.729   4.491   0.318  0.1977 -0.1807 -0.4357
    2CHTO  H213  455   5.720   4.548   0.225  0.3035 -1.4432 -1.2252
    2CHTO  C110  456   5.765   4.591   0.431  0.2657 -0.1490 -0.3021
    2CHTO  H214  457   5.745   4.552   0.531  1.4825 -1.1452 -0.4456
    2CHTO   O78  458   5.687   4.711   0.411 -0.1610 -0.2535 -0.0039
    2CHTO  H200  459   5.673   4.738   0.323  2.5156  2.3389  0.3068
    2CHTO  C111  460   5.920   4.631   0.426 -0.0154 -0.0422  0.2956
    2CHTO  H215  461   5.929   4.696   0.338  0.2191  0.7096  0.8765
    2CHTO   N19  462   5.971   4.714   0.541 -0.3059 -0.5462 -0.4698
    2CHTO  H207  463   5.977   4.654   0.630 -0.0517  1.0535  0.6189
    2CHTO  H208  464   6.055   4.780   0.523 -1.4261  0.8947 -0.5376
    2CHTO   O74  465   5.597   4.435   0.353 -0.7260 -0.6166  0.4836
    2CHTO  C115  466   5.503   4.380   0.202 -0.1548  0.2495  0.5729
    2CHTO  H219  467   5.557   4.408   0.111  2.6193 -0.3284  1.9880
    2CHTO   O76  468   5.486   4.210   0.201  0.4601  0.2288 -0.0845
    2CHTO  C122  469   5.406   4.164   0.086 -0.1464 -0.6291 -0.9177
    2CHTO  H226  470   5.380   4.059   0.105 -1.6893 -0.2860 -1.0554
    2CHTO  C126  471   5.485   4.164  -0.044  0.3225 -0.1344 -0.0668
    2CHTO   O85  472   5.598   4.073  -0.041  0.2748  1.3569  0.1245
    2CHTO  H206  473   5.671   4.131  -0.051  1.1288  0.2518 -0.1150
    2CHTO  C121  474   5.266   4.233   0.081 -0.3800  0.2285 -0.5136
    2CHTO  H225  475   5.218   4.190  -0.009 -1.6108  1.4586 -0.4477
    2CHTO   O81  476   5.178   4.191   0.187  0.8300  0.6644  0.7401
    2CHTO  H202  477   5.163   4.099   0.198 -1.4920  0.8319 -0.6032
    2CHTO  C119  478   5.276   4.387   0.072  0.1672  0.2342 -0.4117
    2CHTO  H223  479   5.323   4.421  -0.021  2.6157  1.3044  1.1512
    2CHTO  C117  480   5.366   4.445   0.193 -0.0874 -0.0495  0.1299
    2CHTO  H221  481   5.320   4.429   0.291  0.9259  0.8792  0.7636
    2CHTO   N20  482   5.394   4.588   0.190 -0.1933 -0.5473 -0.3901
    2CHTO  H209  483   5.336   4.642   0.264  2.2904 -1.0678  2.0201
    2CHTO  H210  484   5.386   4.630   0.091  0.7063 -1.3519 -0.8155
    2CHTO   O80  485   5.131   4.449   0.061 -0.3615 -0.2573 -0.7665
    2CHTO  C103  486   5.094   4.530  -0.068 -0.0702  0.6551 -0.1038
    2CHTO  H190  487   5.173   4.600  -0.094 -0.9548  1.6675 -0.1170
    2CHTO  C101  488   5.049   4.431  -0.189  0.2585  0.2734 -0.5124
    2CHTO  H188  489   4.999   4.346  -0.143 -0.2754  2.6168  3.5202
    2CHTO   O68  490   5.180   4.373  -0.268 -0.5534  1.0439  0.6273
    2CHTO  H168  491   5.144   4.301  -0.317  1.3110 -1.1581  2.4241
    2CHTO   C99  492   4.948   4.504  -0.293 -0.6494  0.3078  0.1377
    2CHTO  H186  493   5.004   4.587  -0.343  1.4289  0.3559  2.4362
    2CHTO   N17  494   4.895   4.412  -0.405  0.5094  0.4472 -0.3640
    2CHTO  H174  495   4.806   4.464  -0.439 -0.3510 -1.0126 -0.4241
    2CHTO  H175  496   4.966   4.398  -0.484  0.8323  0.1135 -0.0171
    2CHTO   C97  497   4.834   4.577  -0.213  0.6821  0.4678  0.2911
    2CHTO  H184  498   4.767   4.507  -0.162  0.4101 -1.7821 -2.9514
    2CHTO   O64  499   4.898   4.672  -0.121  0.2307 -0.1831 -0.1057
    2CHTO  C104  500   4.974   4.615  -0.012 -0.1107  0.2581 -0.3913
    2CHTO  H191  501   4.908   4.549   0.043 -0.7367  1.9471  0.9151
    2CHTO  C108  502   5.020   4.727   0.084  0.5624 -0.0161  0.3377
    2CHTO   O71  503   5.110   4.818   0.020 -0.4526  1.2739  0.7703
    2CHTO  H171  504   5.059   4.863  -0.044 -2.5636 -3.5830 -1.1601
    2CHTO   O62  505   4.752   4.669  -0.293 -0.0270  0.4227  0.4346
    2CHTO   C91  506   4.616   4.693  -0.257 -0.5433  0.3463 -0.4423
    2CHTO  H178  507   4.588   4.625  -0.177 -1.5880  2.0229  0.6477
    2CHTO   C92  508   4.518   4.672  -0.378  0.3870 -0.0547  0.1534
    2CHTO  H179  509   4.541   4.574  -0.421  1.3557 -0.3023  1.2006
    2CHTO   O66  510   4.379   4.673  -0.328  0.0761 -0.0957 -0.6744
    2CHTO  H166  511   4.370   4.601  -0.269  2.2942 -0.0966 -0.3076
    2CHTO   C93  512   4.527   4.788  -0.487 -0.7868  0.1089  0.3203
    2CHTO  H180  513   4.430   4.779  -0.538 -0.7098  1.2283 -0.0345
    2CHTO   N16  514   4.629   4.781  -0.594  0.0628 -0.0720 -0.0481
    2CHTO  H172  515   4.582   4.781  -0.692  1.7661  0.6345 -0.8942
    2CHTO  H173  516   4.711   4.716  -0.568  0.1986  0.6073  1.2539
    2CHTO   C94  517   4.534   4.932  -0.414 -0.0999 -0.3825 -0.4727
    2CHTO  H181  518   4.626   4.986  -0.432 -1.4512  1.9169 -0.6378
    2CHTO   O61  519   4.509   4.919  -0.269 -0.0846 -0.0545  0.5164
    2CHTO   C95  520   4.593   4.834  -0.194 -0.1678  0.4864 -0.3144
    2CHTO  H182  521   4.692   4.880  -0.192  0.8441 -1.6025 -0.7834
    2CHTO  C106  522   4.541   4.822  -0.045  0.2002 -0.4183  0.4106
    2CHTO   O69  523   4.628   4.740   0.035 -0.2474 -0.1978  0.1990
    2CHTO  H169  524   4.645   4.782   0.117 -0.4387  1.7505 -0.7201
    2CHTO   O63  525   4.424   5.018  -0.462 -0.1913 -0.2281 -0.0969
    2CHTO   C96  526   4.409   5.171  -0.411  0.1270  0.1958  0.4976
    2CHTO  H183  527   4.476   5.195  -0.328 -0.2020  1.0894  0.5062
    2CHTO   C98  528   4.270   5.202  -0.355 -0.2949 -0.2221 -0.0604
    2CHTO  H185  529   4.194   5.170  -0.427 -0.3483 -0.2938  0.0275
    2CHTO   O67  530   4.250   5.126  -0.233 -0.7101  0.6429  0.9314
    2CHTO  H167  531   4.192   5.052  -0.238 -0.2173  0.3156 -0.2144
    2CHTO  C102  532   4.260   5.363  -0.322  0.6749  0.4527 -0.0280
    2CHTO  H189  533   4.303   5.368  -0.220 -0.1268 -3.2356  0.5782
    2CHTO   N18  534   4.122   5.402  -0.298 -0.2700  0.2395  0.0468
    2CHTO  H176  535   4.062   5.393  -0.388  0.4705  3.3207 -0.8450
    2CHTO  H177  536   4.114   5.503  -0.261 -0.9916 -0.1047  0.8463
    2CHTO  C105  537   4.331   5.458  -0.425  0.1738 -0.4809  0.2366
    2CHTO  H192  538   4.264   5.469  -0.511 -0.6903  0.6187  1.0352
    2CHTO   O65  539   4.461   5.409  -0.466  0.1905  0.5399 -0.0610
    2CHTO  C100  540   4.455   5.278  -0.524  0.6571 -0.1891 -0.7804
    2CHTO  H187  541   4.398   5.271  -0.617  0.5437 -0.1075 -0.7172
    2CHTO  C107  542   4.599   5.241  -0.566 -0.5967  0.3134  0.2554
    2CHTO   O70  543   4.693   5.236  -0.459 -0.1214 -0.3314  0.2100
    2CHTO  H170  544   4.783   5.222  -0.482  0.1877  2.1784 -0.2663
    2CHTO   O57  545   4.352   5.600  -0.351 -0.5593  0.5493  0.1195
    2CHTO   C85  546   4.275   5.718  -0.376  0.6098  1.1016 -0.5517
    2CHTO  H157  547   4.170   5.681  -0.379  0.5905  1.1967 -1.1339
    2CHTO   C83  548   4.291   5.789  -0.512  0.2337 -0.1287  0.7038
    2CHTO  H155  549   4.253   5.726  -0.592  0.7764 -1.0057  1.1303
    2CHTO   O56  550   4.434   5.788  -0.545  0.0240 -0.4053 -0.2973
    2CHTO  H135  551   4.482   5.798  -0.465 -0.8843 -2.2270  0.5085
    2CHTO   C81  552   4.223   5.929  -0.516  0.3545 -1.0986 -0.3069
    2CHTO  H153  553   4.117   5.921  -0.492  0.2584  0.7004 -0.1079
    2CHTO   N14  554   4.214   5.993  -0.648 -0.7863 -0.1357  0.1580
    2CHTO  H141  555   4.122   6.043  -0.669  0.1679  1.0121 -1.4469
    2CHTO  H142  556   4.251   5.940  -0.734  3.4388 -0.2843  1.9454
    2CHTO   C79  557   4.296   6.018  -0.402  0.1545  1.0140  0.2201
    2CHTO  H151  558   4.241   6.111  -0.394 -0.0070  0.8266  1.2659
    2CHTO   O52  559   4.265   5.956  -0.274 -1.2000 -0.0088  0.0046
    2CHTO   C86  560   4.297   5.813  -0.256 -0.8541 -0.3243  0.3128
    2CHTO  H158  561   4.402   5.813  -0.219 -0.4813 -0.1070 -0.7132
    2CHTO   C90  562   4.216   5.757  -0.138 -0.4423 -0.4772  0.6374
    2CHTO   O60  563   4.239   5.847  -0.023  0.2596 -0.6061  0.3348
    2CHTO  H138  564   4.166   5.837   0.034  0.4189  1.0141  0.8508
    2CHTO   O50  565   4.435   6.037  -0.412 -0.0944 -1.2945  0.0652
    2CHTO   C73  566   4.501   6.157  -0.369  0.7274 -0.4218 -0.3027
    2CHTO  H145  567   4.436   6.217  -0.303 -0.9829 -1.2953 -1.1665
    2CHTO   C74  568   4.532   6.250  -0.490 -0.1527  0.3255  0.1840
    2CHTO  H146  569   4.440   6.262  -0.549 -0.0901  0.3894  0.0989
    2CHTO   O54  570   4.569   6.383  -0.442 -0.7587 -0.1399 -0.8981
    2CHTO  H133  571   4.539   6.444  -0.506  0.6170 -0.9047 -2.2921
    2CHTO   C75  572   4.653   6.188  -0.572  0.6625 -0.5062 -0.4994
    2CHTO  H147  573   4.613   6.097  -0.621  1.5414  0.3442 -2.8739
    2CHTO   N13  574   4.720   6.267  -0.676 -0.3581 -0.6384  0.3336
    2CHTO  H139  575   4.720   6.374  -0.660 -2.1247 -0.9068  2.2148
    2CHTO  H140  576   4.826   6.249  -0.688 -0.4509  0.3403 -2.5629
    2CHTO   C76  577   4.769   6.133  -0.474 -0.2751  0.0845 -0.0208
    2CHTO  H148  578   4.835   6.213  -0.439  0.3293 -0.1362 -0.6503
    2CHTO   O49  579   4.716   6.054  -0.358  0.7030  0.1357  0.0764
    2CHTO   C77  580   4.627   6.130  -0.281 -0.2009  0.2058 -0.0618
    2CHTO  H149  581   4.670   6.224  -0.246 -0.0414 -0.5949  1.9352
    2CHTO   C88  582   4.579   6.054  -0.153 -0.0211  0.3463  0.0934
    2CHTO   O58  583   4.513   6.119  -0.060  0.0398  0.5273 -0.6036
    2CHTO  H136  584   4.428   6.083  -0.047  0.0502  0.5644 -0.4223
    2CHTO   O51  585   4.864   6.012  -0.562 -0.1849  0.0988 -0.3326
    2CHTO   C78  586   4.937   5.897  -0.476  0.3004  0.0107 -0.4216
    2CHTO  H150  587   4.912   5.918  -0.370  0.5145 -0.2998 -0.3095
    2CHTO   C80  588   5.091   5.904  -0.492 -0.7935  0.1439  0.7273
    2CHTO  H152  589   5.120   5.867  -0.592 -0.0596 -0.1291  1.0325
    2CHTO   O55  590   5.131   6.042  -0.465 -0.3620  0.2821  0.3855
    2CHTO  H134  591   5.211   6.052  -0.514 -1.9506 -1.5020 -2.7154
    2CHTO   C84  592   5.153   5.812  -0.382  0.3440  0.6524  0.1031
    2CHTO  H156  593   5.113   5.834  -0.283  2.2271  0.6060  0.8874
    2CHTO   N15  594   5.301   5.823  -0.376  0.1386  0.1254  0.0259
    2CHTO  H143  595   5.353   5.736  -0.340 -1.9928 -2.0639 -2.0323
    2CHTO  H144  596   5.338   5.911  -0.327  0.2779  1.2229 -2.0075
    2CHTO   C87  597   5.107   5.666  -0.410 -0.2413  0.8692  0.2434
    2CHTO  H159  598   5.144   5.628  -0.505  0.4710 -0.8844  1.2115
    2CHTO   O53  599   4.947   5.661  -0.427  0.9225 -0.2396 -0.2550
    2CHTO   C82  600   4.895   5.755  -0.518 -1.2125  0.1444 -0.3496
    2CHTO  H154  601   4.926   5.741  -0.621 -3.7312  1.2494 -1.2959
    2CHTO   C89  602   4.743   5.741  -0.514 -0.4158  0.1204 -0.2816
    2CHTO   O59  603   4.704   5.620  -0.580 -0.0729  0.5039  0.0603
    2CHTO  H137  604   4.626   5.587  -0.540  0.6599 -3.0171 -1.2222
    2CHTO   O45  605   5.148   5.564  -0.284 -0.5493 -0.5140  0.5267
    2CHTO   C67  606   5.054   5.482  -0.212  0.3880  0.2906 -0.1124
    2CHTO  H124  607   4.959   5.537  -0.210  0.9816  1.3080  1.2711
    2CHTO   C65  608   5.035   5.344  -0.277 -0.3991 -0.8069  0.4718
    2CHTO  H122  609   5.132   5.311  -0.315  1.1159  2.5279  1.2441
    2CHTO   O44  610   4.950   5.370  -0.384  0.1908  0.2567  0.4097
    2CHTO  H102  611   4.943   5.293  -0.437  0.4230 -2.0758  3.6270
    2CHTO   C63  612   4.989   5.232  -0.169 -0.1156  0.1180 -0.6441
    2CHTO  H120  613   5.078   5.197  -0.117  0.6897 -0.0943 -2.1341
    2CHTO   N11  614   4.937   5.105  -0.225  0.2182  0.5900 -0.1770
    2CHTO  H108  615   4.851   5.120  -0.286 -0.2489 -1.0285  0.0572
    2CHTO  H109  616   5.012   5.050  -0.277  1.1187 -0.3143  1.9957
    2CHTO   C61  617   4.900   5.301  -0.062  0.0257 -0.3035 -0.1958
    2CHTO  H118  618   4.896   5.223   0.016 -2.8921  1.1801  1.2447
    2CHTO   O40  619   4.979   5.417  -0.001  0.0990  0.0477 -0.2400
    2CHTO   C68  620   5.099   5.469  -0.063  0.4700 -0.5967  0.1133
    2CHTO  H125  621   5.183   5.399  -0.046  0.2590 -1.0190 -0.5856
    2CHTO   C72  622   5.136   5.601  -0.005 -0.4116 -0.4534  0.5453
    2CHTO   O48  623   5.022   5.688   0.003 -0.3477 -0.3962 -0.0437
    2CHTO  H105  624   5.006   5.739  -0.074  0.9804  0.9894  0.5918
    2CHTO   O38  625   4.768   5.338  -0.108  0.6356 -0.2566 -0.2208
    2CHTO   C55  626   4.661   5.351  -0.013  0.5507 -0.1014 -0.3387
    2CHTO  H112  627   4.717   5.378   0.078  0.4315  1.2034 -0.6386
    2CHTO   C56  628   4.585   5.214   0.002  0.3759  0.9959 -0.3080
    2CHTO  H113  629   4.540   5.203  -0.098 -1.2149 -1.2325  0.5923
    2CHTO   O42  630   4.680   5.112   0.028  0.5327  0.2793  0.0736
    2CHTO  H100  631   4.690   5.062  -0.051 -2.6763  2.4905 -1.8342
    2CHTO   C57  632   4.477   5.237   0.111  0.7568 -0.2889  0.2295
    2CHTO  H114  633   4.541   5.251   0.198  0.8420  2.2413 -0.2205
    2CHTO   N10  634   4.386   5.123   0.132 -0.0521  0.4463  0.2497
    2CHTO  H106  635   4.437   5.033   0.102 -0.1480  0.1533  0.9550
    2CHTO  H107  636   4.371   5.117   0.239  2.8078  1.5107  0.7449
    2CHTO   C58  637   4.392   5.372   0.083  0.1270 -0.0689  0.7010
    2CHTO  H115  638   4.322   5.351  -0.001  1.2446 -2.0060  0.2108
    2CHTO   O37  639   4.472   5.485   0.047  0.4060 -0.0304 -0.4965
    2CHTO   C59  640   4.557   5.467  -0.059 -0.9600  0.1865  0.1479
    2CHTO  H116  641   4.501   5.448  -0.150 -0.4387  2.3222 -0.6372
    2CHTO   C70  642   4.632   5.600  -0.075  0.6489  0.4723 -0.4459
    2CHTO   O46  643   4.699   5.610  -0.197  0.0069  0.1518  0.4819
    2CHTO  H103  644   4.634   5.611  -0.265  0.9890 -1.7281 -0.4975
    2CHTO   O39  645   4.317   5.421   0.208 -0.4123 -0.3690 -0.2309
    2CHTO   C60  646   4.201   5.508   0.180 -0.9053 -0.4360 -0.2094
    2CHTO  H117  647   4.217   5.563   0.088 -2.1974  1.0756  0.4360
    2CHTO   C62  648   4.077   5.423   0.159 -0.0709  0.4988 -0.1711
    2CHTO  H119  649   4.109   5.358   0.075 -1.6509  0.0031 -0.4022
    2CHTO   O43  650   4.060   5.345   0.273  0.0409  0.1344 -0.4679
    2CHTO  H101  651   4.032   5.262   0.241 -2.5789  1.7377 -2.5797
    2CHTO   C66  652   3.958   5.520   0.118  0.9306  0.3584 -0.1873
    2CHTO  H123  653   3.991   5.581   0.034  0.0906  2.7711  1.1810
    2CHTO   N12  654   3.845   5.444   0.060 -0.3776 -0.0331 -0.0931
    2CHTO  H110  655   3.874   5.412  -0.039  1.6832  3.2620 -0.6244
    2CHTO  H111  656   3.826   5.353   0.115 -0.0281  2.0923  3.7825
    2CHTO   C69  657   3.918   5.614   0.236 -0.4671 -0.0891 -0.8621
    2CHTO  H126  658   3.858   5.557   0.310 -0.7878 -2.5786 -2.9495
    2CHTO   O41  659   4.059   5.690   0.290  0.1332 -0.6548  0.3681
    2CHTO   C64  660   4.191   5.610   0.293  0.5965 -0.0682 -0.3775
    2CHTO  H121  661   4.192   5.563   0.393 -0.0448  0.0924 -0.2893
    2CHTO   C71  662   4.312   5.705   0.296 -0.7311  0.7376  0.0372
    2CHTO   O47  663   4.297   5.816   0.389  0.1399  0.1119  0.7057
    2CHTO  H104  664   4.212   5.853   0.373  0.2480  0.2028  0.3401
    2CHTO   O34  665   3.807   5.743   0.182 -0.4386  0.1157 -0.1948
    2CHTO   C49  666   3.858   5.896   0.176 -0.3194 -0.0751  0.2670
    2CHTO   H91  667   3.966   5.889   0.169 -0.4809 -1.8899 -0.6131
    2CHTO   C47  668   3.814   5.975   0.293  0.0457  0.0267 -0.0295
    2CHTO   H89  669   3.868   6.071   0.282  1.9063 -1.2072 -2.3466
    2CHTO   O33  670   3.863   5.909   0.409  0.1466 -0.2480 -0.1872
    2CHTO   H70  671   3.822   5.824   0.414  0.7592 -0.5229  0.1535
    2CHTO   C45  672   3.651   5.995   0.290  0.1605  0.0227  0.0825
    2CHTO   H87  673   3.604   5.896   0.281 -0.9874  0.5242  0.4839
    2CHTO    N8  674   3.598   6.062   0.409  0.3078  0.0289  0.4733
    2CHTO   H75  675   3.527   5.995   0.454 -1.1285  0.6732 -0.7952
    2CHTO   H76  676   3.673   6.087   0.482  0.7383 -1.2097  0.4687
    2CHTO   C43  677   3.617   6.071   0.153 -0.3835  0.0684 -0.4525
    2CHTO   H85  678   3.508   6.070   0.157 -0.2985  0.9629  2.7896
    2CHTO   O29  679   3.672   6.002   0.038 -0.3276 -0.1108 -0.0701
    2CHTO   C50  680   3.809   5.966   0.050 -0.0447 -0.4126  0.6473
    2CHTO   H92  681   3.832   5.898  -0.034 -0.6784  1.0153 -0.7165
    2CHTO   C54  682   3.891   6.089   0.008  1.0367  0.1169 -0.4616
    2CHTO   O36  683   4.029   6.065  -0.025 -0.0941 -0.5287  0.3591
    2CHTO   H72  684   4.038   6.055  -0.118 -0.2971  1.0356  0.1611
    2CHTO   O27  685   3.649   6.218   0.146  0.2082  0.7091  0.1922
    2CHTO   C37  686   3.589   6.332   0.087 -1.1217  0.5639 -0.1669
    2CHTO   H79  687   3.571   6.323  -0.021  1.8633  0.0786 -0.6626
    2CHTO   C38  688   3.451   6.369   0.147 -0.1516 -0.2021 -1.0418
    2CHTO   H80  689   3.466   6.377   0.256 -0.2566  0.6315 -1.0823
    2CHTO   O31  690   3.355   6.260   0.128  0.6690 -0.1285 -0.1770
    2CHTO   H68  691   3.346   6.213   0.209 -0.9058 -0.3221 -0.4427
    2CHTO   C39  692   3.386   6.506   0.099  0.3509  0.8318 -0.1118
    2CHTO   H81  693   3.363   6.500  -0.007 -2.0947  0.9177  0.3966
    2CHTO    N7  694   3.260   6.533   0.171 -0.0968 -0.4745  0.2764
    2CHTO   H73  695   3.297   6.560   0.268  2.1516  0.3411 -0.7782
    2CHTO   H74  696   3.211   6.622   0.133 -0.1397 -0.6352 -0.0462
    2CHTO   C40  697   3.499   6.614   0.122  0.2526  0.0152 -1.1415
    2CHTO   H82  698   3.518   6.620   0.230 -1.1115  0.8577 -0.9404
    2CHTO   O26  699   3.616   6.573   0.050 -0.1526 -0.3495  0.0661
    2CHTO   C41  700   3.685   6.455   0.107 -0.1951 -0.7613 -0.5294
    2CHTO   H83  701   3.686   6.480   0.215 -0.2018 -0.1439 -0.6700
    2CHTO   C52  702   3.829   6.432   0.050 -0.0853 -0.2072 -0.2984
    2CHTO   O35  703   3.904   6.515   0.074 -0.3878  0.0080  0.4702
    2CHTO   H71  704   3.963   6.529   0.002 -0.0296 -1.3015  0.4892
    2CHTO   O28  705   3.450   6.740   0.077 -0.0560 -0.0049 -0.1551
    2CHTO   C42  706   3.511   6.865   0.124  0.0445  0.1515 -0.1577
    2CHTO   H84  707   3.497   6.930   0.038 -2.5623  0.1617  0.2461
    2CHTO   C44  708   3.657   6.873   0.151  0.4145  0.1310 -0.1076
    2CHTO   H86  709   3.688   6.788   0.212  2.2666  0.5132 -0.4744
    2CHTO   O32  710   3.724   6.848   0.027  0.3226  0.2317 -0.1404
    2CHTO   H69  711   3.806   6.805   0.041 -0.6612 -1.6636 -0.0765
    2CHTO   C48  712   3.708   6.998   0.225  0.4707 -0.3166  0.2851
    2CHTO   H90  713   3.691   7.082   0.158  0.6108  0.0210  0.6720
    2CHTO    N9  714   3.849   6.998   0.265  0.7677 -0.0118  0.0317
    2CHTO   H77  715   3.896   7.094   0.282  2.4402 -0.5375 -1.4019
    2CHTO   H78  716   3.853   6.936   0.353 -1.3924 -0.0356  0.1431
    2CHTO   C51  717   3.609   7.020   0.348 -0.8655 -0.6220 -0.1689
    2CHTO   H93  718   3.610   6.932   0.411 -0.8748 -0.5861 -0.1185
    2CHTO   O30  719   3.483   7.039   0.281 -0.7707  0.1363  0.0255
    2CHTO   C46  720   3.425   6.929   0.231 -0.6239  0.0698  0.7180
    2CHTO   H88  721   3.415   6.857   0.312  1.5675  0.0870  1.0332
    2CHTO   C53  722   3.295   6.980   0.171  0.0288 -0.4739  0.5557
    2CHTO   O72  723   3.189   6.895   0.139 -0.7348  0.7353 -0.0591
    2CHTO  H199  724   3.182   6.824   0.199 -0.3186 -2.1323 -3.2516
    2CHTO   O22  725   3.629   7.136   0.431 -0.0066  0.0102 -0.1212
    2CHTO   C31  726   3.596   7.117   0.574  0.6435 -0.9111 -0.0338
    2CHTO   H59  727   3.608   7.216   0.623  2.1057 -1.9486  1.7947
    2CHTO   C29  728   3.458   7.058   0.617 -0.4611  0.3656  0.1399
    2CHTO   H57  729   3.458   6.963   0.561  2.9167  0.1702  0.4016
    2CHTO   O21  730   3.373   7.147   0.556  0.3222 -0.0108  0.3445
    2CHTO   H37  731   3.291   7.153   0.603 -0.7820 -1.7908 -1.2901
    2CHTO   C27  732   3.447   7.035   0.769  0.6868  0.1507  0.4535
    2CHTO   H55  733   3.460   7.133   0.818  1.0157  0.7338 -0.7719
    2CHTO    N5  734   3.316   6.971   0.800 -0.4708 -0.4862  0.3260
    2CHTO   H43  735   3.262   7.041   0.862  0.6068  1.9906 -1.4477
    2CHTO   H44  736   3.340   6.894   0.872  0.9425  0.1190  0.5097
    2CHTO   C25  737   3.572   6.948   0.808 -0.1706 -0.3554 -0.0117
    2CHTO   H53  738   3.580   6.847   0.764  1.5225 -0.7421  1.1418
    2CHTO   O17  739   3.697   7.018   0.783 -0.3148 -0.1166  0.3991
    2CHTO   C32  740   3.714   7.027   0.637  0.7123 -0.3438  0.6729
    2CHTO   H60  741   3.714   6.928   0.591  1.0000  0.5321 -1.2783
    2CHTO   C36  742   3.854   7.097   0.605 -0.0870 -0.4959 -0.4754
    2CHTO   O25  743   3.965   7.006   0.633  0.2588 -0.0912 -0.3134
    2CHTO   H40  744   4.046   7.051   0.650  0.4605 -1.1238  1.5389
    2CHTO   O15  745   3.563   6.929   0.973  0.1566  0.1516  0.1206
    2CHTO   C19  746   3.518   6.817   1.056 -0.0926 -0.4054 -0.6707
    2CHTO   H47  747   3.441   6.764   0.998 -1.0215 -2.1909  2.0959
    2CHTO   C20  748   3.634   6.712   1.082  0.1124 -0.2674 -0.0322
    2CHTO   H48  749   3.718   6.754   1.139 -1.0663  0.4635  1.1689
    2CHTO   O19  750   3.681   6.683   0.950  0.1648  0.3733 -0.6714
    2CHTO   H35  751   3.614   6.640   0.900  0.1778  0.8598 -1.1134
    2CHTO   C21  752   3.578   6.583   1.155 -0.1845  0.2427 -0.1735
    2CHTO   H49  753   3.503   6.540   1.088 -2.4817  0.7772  1.9993
    2CHTO    N4  754   3.675   6.480   1.177  0.1706 -0.1732 -0.2290
    2CHTO   H41  755   3.777   6.507   1.152  1.0612  0.0847  3.4465
    2CHTO   H42  756   3.649   6.391   1.122  1.0839 -1.4759  1.4148
    2CHTO   C22  757   3.500   6.623   1.284 -0.1066 -0.3071  0.5311
    2CHTO   H50  758   3.566   6.651   1.366 -0.1084 -1.0565  0.7923
    2CHTO   O14  759   3.407   6.726   1.257  0.1698  0.2535 -0.0715
    2CHTO   C23  760   3.453   6.850   1.199  0.4840 -0.3869 -0.7019
    2CHTO   H51  761   3.527   6.894   1.267 -1.5376  1.0785  0.6236
    2CHTO   C34  762   3.336   6.950   1.194  1.0521 -0.5925  0.1520
    2CHTO   O23  763   3.262   6.972   1.317 -0.9194 -0.1608  0.1053
    2CHTO   H38  764   3.247   6.894   1.367 -1.2149 -0.4501 -0.4328
    2CHTO   O16  765   3.426   6.513   1.332  0.5959  0.7003  0.0896
    2CHTO   C24  766   3.377   6.554   1.500 -0.5884 -0.1936 -0.5979
    2CHTO   H52  767   3.398   6.659   1.522  1.4623 -0.9689  1.3060
    2CHTO   C26  768   3.464   6.470   1.596  0.0531  0.6769 -0.2433
    2CHTO   H54  769   3.430   6.365   1.584 -0.6242  0.8680 -0.0033
    2CHTO   O20  770   3.600   6.484   1.560 -0.0154 -0.1154  0.3032
    2CHTO   H36  771   3.648   6.454   1.635  1.5640  0.0528 -0.6292
    2CHTO   C30  772   3.430   6.517   1.740  0.1410 -0.3415 -0.4789
    2CHTO   H58  773   3.464   6.620   1.758 -0.3783  0.2079 -2.4813
    2CHTO    N6  774   3.514   6.435   1.836  0.3433 -0.7125 -0.1028
    2CHTO   H45  775   3.447   6.372   1.893 -0.8941  1.7184  1.2094
    2CHTO   H46  776   3.577   6.494   1.900  1.9949 -1.9960 -0.4995
    2CHTO   C33  777   3.275   6.510   1.770  0.1308  1.3082  0.7204
    2CHTO   H61  778   3.251   6.403   1.777  2.9154  0.5067 -1.0111
    2CHTO   O18  779   3.199   6.572   1.664  0.6723  0.3410 -0.0423
    2CHTO   C28  780   3.231   6.534   1.533  0.7773  0.3681  0.1941
    2CHTO   H56  781   3.196   6.432   1.513 -1.3960  1.2468 -0.6162
    2CHTO   C35  782   3.144   6.619   1.434  0.4567  0.1206 -0.2063
    2CHTO   O24  783   3.009   6.570   1.412 -0.2234 -0.2403  0.2575
    2CHTO   H39  784   2.997   6.586   1.320  0.8417  3.0268  0.6325
    2CHTO    O9  785   3.245   6.561   1.903 -0.0336 -0.5342 -0.3098
    2CHTO   C13  786   3.171   6.696   1.937  0.9760  0.4838 -0.0284
    2CHTO   H26  787   3.067   6.692   1.898 -0.2953 -0.7017  3.3419
    2CHTO   C11  788   3.250   6.823   1.880  0.2299  0.2314 -0.5257
    2CHTO   H24  789   3.253   6.810   1.770 -0.0547  0.8575 -0.6087
    2CHTO    O8  790   3.389   6.811   1.930 -0.3088 -1.0068 -0.0498
    2CHTO    H3  791   3.447   6.791   1.859  2.3042 -0.5528  1.9017
    2CHTO    C9  792   3.177   6.953   1.925  0.0242  0.4045  0.0385
    2CHTO   H22  793   3.075   6.944   1.884 -0.5862 -0.3687  1.6639
    2CHTO    N2  794   3.230   7.073   1.855  0.4422  0.1884 -0.1149
    2CHTO   H10  795   3.336   7.067   1.832  0.4706  1.9641 -0.5079
    2CHTO   H11  796   3.180   7.071   1.760 -0.4206  0.9919  0.3134
    2CHTO    C7  797   3.170   6.959   2.083 -0.2709  0.1804 -0.0836
    2CHTO   H20  798   3.124   7.057   2.109  1.1711  0.2642  2.2822
    2CHTO    O4  799   3.094   6.849   2.137  0.0185  0.8332  0.1889
    2CHTO   C14  800   3.138   6.717   2.093  0.4342 -0.1167 -0.7264
    2CHTO   H27  801   3.046   6.657   2.115  0.7231 -0.8879 -1.5751
    2CHTO   C18  802   3.248   6.659   2.187  0.1738  0.2489  0.1831
    2CHTO   O13  803   3.204   6.659   2.323 -0.3397 -0.0728  0.2885
    2CHTO    H7  804   3.275   6.615   2.366  1.5908  1.8219 -0.8111
    2CHTO    O2  805   3.323   6.950   2.151  0.6039  0.5649 -0.4613
    2CHTO    C1  806   3.340   6.993   2.288  0.1177 -0.1034  0.2955
    2CHTO   H14  807   3.327   6.907   2.357 -0.9145  0.1677  0.4423
    2CHTO    C2  808   3.244   7.116   2.337  0.3946 -0.0883  0.0796
    2CHTO   H15  809   3.241   7.167   2.240  0.7473  0.2958  0.2669
    2CHTO    O6  810   3.126   7.068   2.393  0.1295  0.5948  0.0602
    2CHTO    H1  811   3.136   7.029   2.478  0.7719 -0.2071 -0.3731
    2CHTO    C3  812   3.318   7.219   2.444 -0.2265  0.0027 -0.1143
    2CHTO   H16  813   3.306   7.194   2.550 -0.0917 -0.7121 -0.2640
    2CHTO    N1  814   3.259   7.357   2.435 -0.3600 -0.6916 -0.1364
    2CHTO    H8  815   3.185   7.359   2.514 -0.7675 -0.3855 -0.5187
    2CHTO    H9  816   3.209   7.364   2.340 -0.1274 -0.8732 -0.2725
    2CHTO    C4  817   3.475   7.223   2.419 -0.0771 -0.1076 -0.2196
    2CHTO   H17  818   3.495   7.261   2.319 -0.0490  0.5571  0.0371
    2CHTO    O1  819   3.523   7.084   2.426 -0.5428  0.3264  0.2368
    2CHTO    C5  820   3.493   7.019   2.301  0.1255  0.7287 -0.3596
    2CHTO   H18  821   3.517   7.078   2.213  1.7136 -1.2098 -1.2987
    2CHTO   C16  822   3.569   6.884   2.288  0.7530 -0.3497  0.0106
    2CHTO   O11  823   3.713   6.892   2.289 -0.0407 -0.2941 -0.4461
    2CHTO    H5  824   3.742   6.978   2.268  0.0511 -0.2395 -0.1021
    2CHTO    O3  825   3.543   7.298   2.515  0.4782 -0.7615 -0.4157
    2CHTO    C6  826   3.656   7.371   2.473 -0.1287  0.1901  0.3794
    2CHTO   H19  827   3.683   7.357   2.369 -0.1685  1.8822  0.1300
    2CHTO    C8  828   3.619   7.521   2.498  0.2291  0.2918  0.4834
    2CHTO   H21  829   3.585   7.523   2.601 -0.8903 -3.3177  0.2475
    2CHTO    O7  830   3.511   7.563   2.405  0.0531 -0.0617 -0.0533
    2CHTO    H2  831   3.458   7.626   2.450  0.0861 -0.6094  0.7700
    2CHTO   C12  832   3.753   7.600   2.474 -0.2959  0.5289  0.6162
    2CHTO   H25  833   3.790   7.587   2.370  0.7670 -0.6418  1.1255
    2CHTO    N3  834   3.724   7.752   2.496 -0.1778 -0.2401  0.3503
    2CHTO   H12  835   3.818   7.801   2.479 -1.2607  1.6588 -0.2946
    2CHTO   H13  836   3.660   7.772   2.411 -0.1439 -2.5962 -0.2621
    2CHTO   C15  837   3.874   7.542   2.556  0.2575 -1.0018  0.1041
    2CHTO   H28  838   3.861   7.551   2.664 -1.9569  0.6214 -0.2581
    2CHTO   O10  839   4.023   7.599   2.500  0.7659 -0.3863 -0.5054
    2CHTO    H4  840   4.046   7.557   2.419  3.8626 -0.0918  0.1605
    2CHTO    O5  841   3.895   7.403   2.532  0.2267  0.5729 -0.7396
    2CHTO   C10  842   3.776   7.322   2.560 -0.0925 -0.3266  0.4133
    2CHTO   H23  843   3.757   7.320   2.668 -0.9404 -1.8889  0.2553
    2CHTO   C17  844   3.809   7.173   2.516  0.3457  0.3304 -0.0618
    2CHTO   O12  845   3.940   7.126   2.557  0.2824  0.4829 -0.0169
    2CHTO    H6  846   4.011   7.137   2.497 -0.1141  2.5313 -0.1538
    3CHTO  H203  847   7.950   1.918   2.051 -0.1605 -0.5425 -0.6863
    3CHTO   O82  848   7.933   1.856   2.121 -0.3212  0.7236  0.4202
    3CHTO  C123  849   7.896   1.728   2.069  0.2301  0.2051  0.2172
    3CHTO  H227  850   7.987   1.675   2.039 -0.0224  0.0270 -0.2548
    3CHTO   O77  851   7.839   1.657   2.184  0.3527 -0.2774 -0.1289
    3CHTO  C118  852   7.820   1.518   2.145  0.1441 -0.1019  0.0950
    3CHTO  H222  853   7.906   1.463   2.104  0.5519  1.0442 -0.6258
    3CHTO  C125  854   7.771   1.443   2.268 -0.3094 -0.3333 -0.1364
    3CHTO   O84  855   7.785   1.303   2.252 -0.0268 -0.1541 -0.0035
    3CHTO  H205  856   7.863   1.273   2.294 -0.8413  0.9272  2.3615
    3CHTO  C114  857   7.707   1.508   2.040 -0.0406 -0.2575  0.4579
    3CHTO  H218  858   7.620   1.562   2.077 -0.0073  0.3474 -0.3552
    3CHTO  C116  859   7.742   1.597   1.916 -0.1232  0.0362  0.3910
    3CHTO  H220  860   7.813   1.536   1.856  1.2126 -0.1131  2.0873
    3CHTO   O79  861   7.614   1.606   1.838  0.1110 -0.0831  0.0029
    3CHTO  H201  862   7.559   1.673   1.875  0.7495 -0.2526  1.2973
    3CHTO  C120  863   7.793   1.739   1.958  1.3528  0.4882  0.7532
    3CHTO  H224  864   7.703   1.785   2.005  0.6847 -0.6832  0.6423
    3CHTO   N21  865   7.845   1.807   1.839 -0.3423 -0.3849 -0.7614
    3CHTO  H211  866   7.789   1.784   1.750 -0.7120  0.0374 -0.6391
    3CHTO  H212  867   7.834   1.913   1.859 -0.5492 -0.2943 -1.3471
    3CHTO   O75  868   7.689   1.369   2.019  0.2227 -0.3387  0.5746
    3CHTO  C112  869   7.550   1.300   1.962 -0.4784 -0.6327  0.1386
    3CHTO  H216  870   7.570   1.289   1.854  2.7342  1.8470  0.4003
    3CHTO   O73  871   7.448   1.394   1.986  0.2422 -0.5313 -0.0757
    3CHTO  C113  872   7.329   1.359   1.929 -0.1105  0.4932  0.1140
    3CHTO  H217  873   7.328   1.339   1.820 -1.6355 -0.4666  0.2900
    3CHTO  C124  874   7.235   1.479   1.931  0.2901  0.5302 -0.1624
    3CHTO   O83  875   7.106   1.460   1.863  0.2853 -0.1856  0.0482
    3CHTO  H204  876   7.102   1.524   1.795  0.6115 -0.0169  0.1860
    3CHTO  C109  877   7.272   1.230   1.996 -0.3048  0.0172 -0.1842
    3CHTO  H213  878   7.265   1.245   2.104  2.6573 -0.4461  0.1196
    3CHTO  C110  879   7.375   1.111   1.991  0.1535 -0.0565 -0.1413
    3CHTO  H214  880   7.378   1.074   1.888 -2.1623  1.5201 -0.8140
    3CHTO   O78  881   7.326   0.995   2.066  0.1833  0.1904 -0.4507
    3CHTO  H200  882   7.393   0.930   2.069 -1.1668 -1.2001  0.2024
    3CHTO  C111  883   7.517   1.161   2.031  0.4953 -0.7027  0.1641
    3CHTO  H215  884   7.513   1.187   2.138 -0.8088  3.0088 -0.7012
    3CHTO   N19  885   7.626   1.065   2.012 -0.5378  0.1002 -0.1210
    3CHTO  H207  886   7.681   1.037   2.101 -1.8310  1.4526  1.1351
    3CHTO  H208  887   7.609   0.984   1.943 -0.0082  1.0607 -1.4158
    3CHTO   O74  888   7.142   1.199   1.942 -0.3948 -0.0497  0.4683
    3CHTO  C115  889   7.029   1.115   2.041 -0.3128  0.0877 -0.0640
    3CHTO  H219  890   7.076   1.036   2.100  2.3895  2.5783  1.2758
    3CHTO   O76  891   6.971   1.208   2.150 -0.1231 -0.6508 -0.3749
    3CHTO  C122  892   6.870   1.301   2.108 -0.0050  0.5445  1.0908
    3CHTO  H226  893   6.913   1.366   2.031  1.3127 -0.2763  1.1079
    3CHTO  C126  894   6.819   1.394   2.229  0.4048 -0.4123 -0.5122
    3CHTO   O85  895   6.919   1.482   2.290  0.2441 -0.4809 -0.1743
    3CHTO  H206  896   7.001   1.437   2.279 -0.7098 -2.1542 -0.6157
    3CHTO  C121  897   6.744   1.226   2.045  0.7398 -0.4579 -0.6578
    3CHTO  H225  898   6.661   1.233   2.118  0.2430 -1.0377 -1.1643
    3CHTO   O81  899   6.705   1.297   1.924 -0.0451  0.1629 -0.4746
    3CHTO  H202  900   6.689   1.386   1.950 -1.5334 -0.4618  0.8119
    3CHTO  C119  901   6.775   1.078   2.024  0.0482  0.1911 -0.3995
    3CHTO  H223  902   6.784   1.032   2.123  0.2040  1.5672  0.2499
    3CHTO  C117  903   6.916   1.066   1.947  0.5060  0.1635 -0.2574
    3CHTO  H221  904   6.919   1.134   1.861  0.3508  1.6966  0.9314
    3CHTO   N20  905   6.947   0.931   1.890 -0.0372 -0.2128 -0.4060
    3CHTO  H209  906   6.979   0.945   1.788 -0.6836  0.3823 -0.5267
    3CHTO  H210  907   6.853   0.879   1.905 -0.4929  0.7596  0.1829
    3CHTO   O80  908   6.663   1.011   1.973  0.3736 -0.3703  0.6585
    3CHTO  C103  909   6.535   0.981   2.066  0.0825  0.1757 -0.3312
    3CHTO  H190  910   6.550   0.990   2.174  0.2522 -1.5985 -0.1762
    3CHTO  C101  911   6.411   1.070   2.031 -0.3152 -0.9630 -0.6362
    3CHTO  H188  912   6.410   1.073   1.922 -1.5439 -0.4812 -0.6166
    3CHTO   O68  913   6.423   1.192   2.085  0.5451  0.0408 -0.0785
    3CHTO  H168  914   6.444   1.189   2.176  0.1571 -0.0376  0.0079
    3CHTO   C99  915   6.270   0.995   2.077 -0.2034  0.1754  0.0941
    3CHTO  H186  916   6.278   0.990   2.187 -1.0696  0.5321  0.1752
    3CHTO   N17  917   6.144   1.074   2.048  0.3289 -0.7995  0.5535
    3CHTO  H174  918   6.060   1.011   2.070  0.9951 -2.0449 -0.4241
    3CHTO  H175  919   6.146   1.161   2.113  0.8501  0.8432 -1.5774
    3CHTO   C97  920   6.265   0.852   2.021  1.1994 -0.2792  0.2028
    3CHTO  H184  921   6.271   0.847   1.911 -1.5684 -0.2063  0.0298
    3CHTO   O64  922   6.376   0.785   2.084 -0.2156 -0.2500  0.1463
    3CHTO  C104  923   6.507   0.827   2.039  0.4226 -0.8799 -0.1139
    3CHTO  H191  924   6.532   0.809   1.935 -0.3920 -1.7980 -0.1619
    3CHTO  C108  925   6.615   0.747   2.125  0.1408  0.2664  0.0460
    3CHTO   O71  926   6.604   0.608   2.085 -0.1559  0.2416  0.1174
    3CHTO  H171  927   6.519   0.598   2.047  0.0745  0.7373 -0.5352
    3CHTO   O62  928   6.151   0.769   2.059 -0.2687 -0.0004  0.3609
    3CHTO   C91  929   6.124   0.644   1.983 -0.2981  0.6592  0.1748
    3CHTO  H178  930   6.146   0.675   1.881  0.2729  0.4307  0.2261
    3CHTO   C92  931   5.975   0.620   1.987 -0.0369 -0.1036 -0.9306
    3CHTO  H179  932   5.938   0.620   2.091  0.1590 -0.1677 -0.8612
    3CHTO   O66  933   5.900   0.734   1.934  0.0728 -0.6236  0.0690
    3CHTO  H166  934   5.895   0.747   1.841  0.3546  0.7943  0.2493
    3CHTO   C93  935   5.935   0.482   1.915  0.4916  0.1226 -0.0079
    3CHTO  H180  936   5.972   0.480   1.811 -0.5511  1.3229 -0.4189
    3CHTO   N16  937   5.792   0.472   1.903 -0.5186  0.1635 -0.2593
    3CHTO  H172  938   5.768   0.457   1.799 -1.5589  1.5846 -0.2333
    3CHTO  H173  939   5.748   0.398   1.968  0.3914 -0.2119 -0.0652
    3CHTO   C94  940   5.997   0.365   1.999  0.8215 -0.4257 -0.8247
    3CHTO  H181  941   5.930   0.324   2.075  0.3209 -2.2615 -2.2292
    3CHTO   O61  942   6.110   0.407   2.080  0.0024  0.7726 -0.3915
    3CHTO   C95  943   6.201   0.509   2.040  1.2615  0.2549  0.6908
    3CHTO  H182  944   6.256   0.537   2.129 -0.7022 -0.4206  2.1551
    3CHTO  C106  945   6.308   0.451   1.938  0.0951 -0.0232 -0.7453
    3CHTO   O69  946   6.403   0.366   1.999  0.1066  0.1735 -0.3820
    3CHTO  H169  947   6.490   0.385   1.970  0.3356 -1.9332 -1.1674
    3CHTO   O63  948   6.052   0.248   1.889  0.3865  0.4331 -0.0160
    3CHTO   C96  949   5.978   0.119   1.863 -0.5695 -0.5104  0.5315
    3CHTO  H183  950   6.036   0.069   1.786  0.0163  2.2871 -0.9135
    3CHTO   C98  951   5.829   0.133   1.818  0.5895 -0.0394 -0.6813
    3CHTO  H185  952   5.780   0.204   1.886  0.4193 -0.6348 -0.1892
    3CHTO   O67  953   5.840   0.198   1.689  0.2914  0.7864  0.0697
    3CHTO  H167  954   5.753   0.197   1.653 -0.3098 -0.4711  1.4860
    3CHTO  C102  955   5.753  -0.006   1.823  0.4418  0.8222 -0.0602
    3CHTO  H189  956   5.800  -0.070   1.746  0.9343  1.6101 -0.4187
    3CHTO   N18  957   5.606  -0.001   1.780 -0.8151 -0.5785 -0.7611
    3CHTO  H176  958   5.551   0.066   1.845  1.3419 -0.4261  0.9576
    3CHTO  H177  959   5.611   0.030   1.677  0.3139  1.7311 -0.0514
    3CHTO  C105  960   5.787  -0.090   1.946 -0.7849  0.6794  0.4291
    3CHTO  H192  961   5.725  -0.062   2.031  1.2556  0.8123  1.9010
    3CHTO   O65  962   5.921  -0.090   1.995  0.4837  0.0896 -0.0156
    3CHTO  C100  963   5.986   0.038   2.000 -0.0705 -0.2295 -0.5804
    3CHTO  H187  964   5.939   0.101   2.078  1.1037  0.8803 -0.7458
    3CHTO  C107  965   6.133   0.017   2.040 -0.4171 -0.1368 -1.0183
    3CHTO   O70  966   6.136  -0.009   2.179 -0.1800  0.4019 -0.5623
    3CHTO  H170  967   6.094  -0.091   2.193  0.3932  0.2810  0.5230
    3CHTO   O57  968   5.746  -0.250   1.915 -0.9704  0.6209  0.4783
    3CHTO   C85  969   5.682  -0.344   2.008  0.1083 -0.1826 -0.6284
    3CHTO  H157  970   5.699  -0.440   1.957  1.1876 -0.1884 -0.2642
    3CHTO   C83  971   5.529  -0.321   2.013 -0.0840 -0.3129  0.1011
    3CHTO  H155  972   5.487  -0.370   1.925 -1.0329  0.3956  0.1519
    3CHTO   O56  973   5.503  -0.180   2.014  0.4840  0.3780 -0.0813
    3CHTO  H135  974   5.467  -0.153   1.931 -0.2070 -1.0484 -0.2575
    3CHTO   C81  975   5.459  -0.395   2.131 -0.2336 -0.2716  0.8046
    3CHTO  H153  976   5.472  -0.502   2.116 -2.8987 -0.7868  1.8524
    3CHTO   N14  977   5.311  -0.391   2.118 -0.0796  0.5091  0.3692
    3CHTO  H141  978   5.270  -0.486   2.089  0.0766  0.1216  1.4006
    3CHTO  H142  979   5.277  -0.315   2.050  0.6462  0.4479 -0.0611
    3CHTO   C79  980   5.525  -0.360   2.272 -0.1523 -0.3854  0.3423
    3CHTO  H151  981   5.488  -0.425   2.352  1.1976 -0.9178  0.5390
    3CHTO   O52  982   5.673  -0.394   2.260 -0.1602  0.0281  0.4125
    3CHTO   C86  983   5.749  -0.338   2.157  0.8515 -0.2560  0.1316
    3CHTO  H158  984   5.751  -0.231   2.187  0.7109 -0.3047  0.3122
    3CHTO   C90  985   5.899  -0.382   2.145  0.1407 -0.6532  0.0016
    3CHTO   O60  986   5.972  -0.376   2.265  0.3750  0.4849 -0.0464
    3CHTO  H138  987   6.063  -0.389   2.247  0.1167 -0.6492 -0.5624
    3CHTO   O50  988   5.511  -0.216   2.305 -0.0456 -0.3688 -0.0033
    3CHTO   C73  989   5.524  -0.164   2.436 -0.1999 -0.5809 -0.1963
    3CHTO  H145  990   5.589  -0.225   2.500  0.4043 -0.3099 -0.5423
    3CHTO   C74  991   5.389  -0.145   2.500  0.3768 -0.3562  0.6896
    3CHTO  H146  992   5.339  -0.243   2.507 -0.7396  0.1981  0.5782
    3CHTO   O54  993   5.411  -0.106   2.636 -0.0371  0.5694  0.0528
    3CHTO  H133  994   5.356  -0.159   2.691  0.6157 -1.2580 -0.9968
    3CHTO   C75  995   5.303  -0.039   2.417 -0.5804  0.0943 -0.0809
    3CHTO  H147  996   5.264  -0.082   2.323 -1.5727  1.7484 -0.4536
    3CHTO   N13  997   5.175  -0.014   2.491  0.0233 -0.0546  0.2618
    3CHTO  H139  998   5.140   0.088   2.481 -0.8078 -0.5368 -1.9666
    3CHTO  H140  999   5.175  -0.042   2.595 -1.9980 -1.5817 -0.1123
    3CHTO   C76 1000   5.384   0.098   2.379  0.2498  0.1281  0.3126
    3CHTO  H148 1001   5.396   0.176   2.454 -0.1201  0.0145  0.4949
    3CHTO   O49 1002   5.518   0.056   2.333  0.1304  0.3479  0.3959
    3CHTO   C77 1003   5.599  -0.026   2.424 -0.4358 -0.0053  0.0671
    3CHTO  H149 1004   5.606   0.023   2.521  1.2559  1.7146 -0.8883
    3CHTO   C88 1005   5.745  -0.042   2.386 -0.2551 -0.4423 -0.2093
    3CHTO   O58 1006   5.794   0.059   2.296  0.2950 -0.5481  0.6592
    3CHTO  H136 1007   5.878   0.042   2.260  0.1791  2.1930 -1.0083
    3CHTO   O51 1008   5.317   0.161   2.234  0.1014  0.6119 -0.1257
    3CHTO   C78 1009   5.327   0.336   2.257 -0.5245 -0.3407 -0.4994
    3CHTO  H150 1010   5.407   0.361   2.331 -0.2467 -1.2196 -0.5045
    3CHTO   C80 1011   5.192   0.403   2.302 -1.2490 -0.5457  0.7441
    3CHTO  H152 1012   5.112   0.380   2.228  0.1594 -3.0232 -0.0348
    3CHTO   O55 1013   5.154   0.345   2.432  0.1494 -0.1108 -0.7436
    3CHTO  H134 1014   5.095   0.403   2.476  0.5179 -0.9059  0.8221
    3CHTO   C84 1015   5.214   0.560   2.328 -0.0178 -0.5376  0.1951
    3CHTO  H156 1016   5.289   0.568   2.407 -0.2889 -1.0737  0.5110
    3CHTO   N15 1017   5.093   0.631   2.377 -0.3616  0.6166  0.3050
    3CHTO  H143 1018   5.055   0.594   2.470 -0.0364 -2.6752 -0.7962
    3CHTO  H144 1019   5.118   0.734   2.391 -1.9306  0.9823  0.4219
    3CHTO   C87 1020   5.279   0.630   2.206  0.1912  0.5850 -0.5502
    3CHTO  H159 1021   5.205   0.651   2.129  0.3739  1.4367 -0.4968
    3CHTO   O53 1022   5.409   0.540   2.151 -0.2108 -0.0268  0.2611
    3CHTO   C82 1023   5.373   0.404   2.126  0.6602 -0.8519  0.2329
    3CHTO  H154 1024   5.292   0.413   2.053 -0.5208  0.5281  1.6668
    3CHTO   C89 1025   5.485   0.319   2.058 -0.8591  0.0150  0.0025
    3CHTO   O59 1026   5.577   0.278   2.162 -0.2361  0.0181  0.7454
    3CHTO  H137 1027   5.622   0.350   2.202 -1.2582  2.4617 -2.2780
    3CHTO   O45 1028   5.335   0.790   2.260 -0.9477 -0.1063  0.4532
    3CHTO   C67 1029   5.466   0.791   2.311  0.1303  1.0150  0.1374
    3CHTO  H124 1030   5.507   0.690   2.312  0.4666  1.1564  0.5728
    3CHTO   C65 1031   5.548   0.872   2.197 -0.1547  0.8272 -0.1312
    3CHTO  H122 1032   5.468   0.936   2.159 -1.2333  0.5809  1.6677
    3CHTO   O44 1033   5.579   0.765   2.101  0.0934  0.0023 -0.1571
    3CHTO  H102 1034   5.535   0.796   2.024 -1.4252 -2.2846 -0.2465
    3CHTO   C63 1035   5.673   0.953   2.243 -1.3716 -0.0074  0.2156
    3CHTO  H120 1036   5.636   1.043   2.290 -0.8912  0.1676  0.2652
    3CHTO   N11 1037   5.768   1.005   2.138  0.3188 -0.1069  0.3576
    3CHTO  H108 1038   5.819   1.088   2.181 -0.7097  0.2194  0.9672
    3CHTO  H109 1039   5.721   1.022   2.043  0.0337  1.2264  0.7359
    3CHTO   C61 1040   5.745   0.868   2.355 -0.2428  0.0290  0.0750
    3CHTO  H118 1041   5.822   0.934   2.397 -2.5038  2.6084  0.2976
    3CHTO   O40 1042   5.647   0.833   2.468 -0.0041 -0.5383 -0.2138
    3CHTO   C68 1043   5.509   0.860   2.444 -0.5298 -0.0105  0.7779
    3CHTO  H125 1044   5.481   0.967   2.435  1.2664  0.3331 -1.2188
    3CHTO   C72 1045   5.423   0.803   2.557 -0.1279 -0.0189 -0.2737
    3CHTO   O48 1046   5.303   0.871   2.571 -0.6950 -0.0464 -0.9880
    3CHTO  H105 1047   5.313   0.958   2.604 -2.5422 -0.6884  1.4360
    3CHTO   O38 1048   5.797   0.748   2.301 -0.0047 -0.8502 -0.1080
    3CHTO   C55 1049   5.893   0.688   2.383 -0.0326  0.2120 -0.5638
    3CHTO  H112 1050   5.871   0.698   2.490  0.5178  0.2768 -0.4525
    3CHTO   C56 1051   6.035   0.742   2.346 -0.1471  0.3901  0.3573
    3CHTO  H113 1052   6.049   0.733   2.238 -0.5309 -1.0565  0.4203
    3CHTO   O42 1053   6.054   0.885   2.377 -0.2203 -0.2680  0.3605
    3CHTO  H100 1054   5.979   0.921   2.421 -0.3085 -0.7472  0.6057
    3CHTO   C57 1055   6.145   0.655   2.420 -0.3325  0.3458 -0.6062
    3CHTO  H114 1056   6.138   0.685   2.525 -0.3362  0.5553 -0.6676
    3CHTO   N10 1057   6.280   0.680   2.360  0.6216 -0.6588 -0.2914
    3CHTO  H106 1058   6.289   0.781   2.324 -0.7474 -0.5436 -0.3436
    3CHTO  H107 1059   6.350   0.663   2.441 -0.0476 -0.0338  0.4279
    3CHTO   C58 1060   6.117   0.502   2.405 -0.6699 -0.0724  0.7723
    3CHTO  H115 1061   6.122   0.487   2.295 -0.5512  2.0091  0.4682
    3CHTO   O37 1062   5.986   0.482   2.450  0.3267  0.1756  0.1770
    3CHTO   C59 1063   5.883   0.535   2.360  1.2462  0.2107 -0.2056
    3CHTO  H116 1064   5.908   0.507   2.257  2.1567  0.9045 -0.1798
    3CHTO   C70 1065   5.742   0.482   2.394  0.0919 -0.1157  0.7812
    3CHTO   O46 1066   5.720   0.344   2.370  0.0765 -0.2155 -0.5801
    3CHTO  H103 1067   5.636   0.313   2.396  0.5358 -2.0243 -1.1953
    3CHTO   O39 1068   6.221   0.418   2.501 -0.8196  0.9776  0.2999
    3CHTO   C60 1069   6.269   0.306   2.417  0.5665 -0.5500 -0.1210
    3CHTO  H117 1070   6.207   0.294   2.328  1.0772  1.1700 -0.7344
    3CHTO   C62 1071   6.414   0.340   2.371  0.3621 -0.0923 -0.3187
    3CHTO  H119 1072   6.405   0.427   2.303 -1.4725  0.6951  0.9074
    3CHTO   O43 1073   6.508   0.383   2.478 -0.2280  0.4396 -0.1028
    3CHTO  H101 1074   6.511   0.317   2.545  0.5923  0.7954  0.2204
    3CHTO   C66 1075   6.474   0.216   2.290 -0.2436 -0.0076  0.1191
    3CHTO  H123 1076   6.405   0.178   2.214  0.5339 -1.7271  0.2578
    3CHTO   N12 1077   6.602   0.254   2.228  0.3606 -0.0376 -0.0417
    3CHTO  H110 1078   6.670   0.289   2.304  1.6111  1.8344 -1.9607
    3CHTO  H111 1079   6.596   0.324   2.146 -1.0379  1.4213  1.2657
    3CHTO   C69 1080   6.481   0.083   2.369 -0.1810  0.5332  0.9347
    3CHTO  H126 1081   6.542   0.089   2.462 -0.6341  1.1689  1.1905
    3CHTO   O41 1082   6.333   0.054   2.417 -0.4671 -0.0437 -0.3950
    3CHTO   C64 1083   6.260   0.175   2.497  0.4156  0.4886 -0.7152
    3CHTO  H121 1084   6.308   0.193   2.596  0.8431 -0.4829 -0.7443
    3CHTO   C71 1085   6.115   0.127   2.514 -0.3973 -0.0571 -0.3897
    3CHTO   O47 1086   6.117   0.008   2.603  0.3644  0.1713 -0.0946
    3CHTO  H104 1087   6.104   0.027   2.694 -3.3949 -1.0901 -0.2915
    3CHTO   O34 1088   6.540  -0.048   2.277 -0.5163  0.7691 -0.4624
    3CHTO   C49 1089   6.684  -0.116   2.265  0.9518  0.0663 -0.3505
    3CHTO   H91 1090   6.759  -0.037   2.277 -0.1871  1.2807 -1.0773
    3CHTO   C47 1091   6.697  -0.182   2.126 -0.3054 -0.0784 -0.6949
    3CHTO   H89 1092   6.762  -0.114   2.067  0.8739 -0.0019  0.6995
    3CHTO   O33 1093   6.570  -0.190   2.059 -1.0953  0.9031  0.0982
    3CHTO   H70 1094   6.575  -0.220   1.970 -0.0759 -1.4334  0.9253
    3CHTO   C45 1095   6.755  -0.330   2.137  0.3699  0.6982  0.1410
    3CHTO   H87 1096   6.686  -0.396   2.192  1.8217  0.2529  1.4742
    3CHTO    N8 1097   6.787  -0.394   2.003 -0.6333 -0.0898  0.1851
    3CHTO   H75 1098   6.755  -0.497   1.997 -0.3890 -0.0720 -1.5947
    3CHTO   H76 1099   6.894  -0.386   1.987 -1.0166  0.6093 -2.2162
    3CHTO   C43 1100   6.882  -0.326   2.239 -0.0905 -0.3344 -0.5991
    3CHTO   H85 1101   6.926  -0.426   2.246 -0.7520 -0.4643  2.2645
    3CHTO   O29 1102   6.846  -0.275   2.368 -0.2767 -0.2486 -0.1445
    3CHTO   C50 1103   6.717  -0.217   2.380 -0.0620  0.7711  0.1734
    3CHTO   H92 1104   6.658  -0.310   2.376  0.5188  0.4483 -1.2188
    3CHTO   C54 1105   6.711  -0.156   2.521 -0.3943  0.3917  0.6100
    3CHTO   O36 1106   6.805  -0.052   2.529 -0.5371  0.9024 -0.7685
    3CHTO   H72 1107   6.856  -0.068   2.606 -0.2819  2.6283 -0.5676
    3CHTO   O27 1108   6.993  -0.254   2.192 -0.1918 -0.1389 -0.1027
    3CHTO   C37 1109   7.105  -0.183   2.133  0.3722  0.4467 -0.0053
    3CHTO   H79 1110   7.193  -0.217   2.190  0.4231 -1.1893 -1.0368
    3CHTO   C38 1111   7.136  -0.219   1.981 -0.2717 -0.6009  0.2184
    3CHTO   H80 1112   7.037  -0.228   1.934 -0.0499 -1.2655 -0.1252
    3CHTO   O31 1113   7.190  -0.348   1.968 -0.3591  0.5952  0.3784
    3CHTO   H68 1114   7.142  -0.402   2.027  1.2171 -2.2453 -0.8430
    3CHTO   C39 1115   7.231  -0.110   1.910 -0.1177 -0.2344 -0.3613
    3CHTO   H81 1116   7.329  -0.119   1.956 -0.1721 -0.2448 -0.2458
    3CHTO    N7 1117   7.235  -0.125   1.761  0.3303  0.2023  0.5400
    3CHTO   H73 1118   7.137  -0.091   1.730  0.7362  0.4920 -0.4598
    3CHTO   H74 1119   7.310  -0.064   1.712  0.2241 -1.6796 -2.0853
    3CHTO   C40 1120   7.179   0.035   1.953  0.4898  0.7971 -0.1751
    3CHTO   H82 1121   7.077   0.050   1.917  0.6518  1.6825 -0.2590
    3CHTO   O26 1122   7.184   0.047   2.098 -0.1031  0.0082 -0.0294
    3CHTO   C41 1123   7.080  -0.027   2.162 -0.0756 -0.0466 -0.9532
    3CHTO   H83 1124   6.980  -0.007   2.121 -1.3340 -2.3257  0.9079
    3CHTO   C52 1125   7.068   0.017   2.303  0.2264  0.0439 -0.5091
    3CHTO   O35 1126   7.024   0.148   2.314 -0.0267  0.3558 -1.0415
    3CHTO   H71 1127   6.954   0.154   2.375  1.5801 -1.0671  0.9996
    3CHTO   O28 1128   7.258   0.142   1.906 -0.3640 -0.1381  0.0135
    3CHTO   C42 1129   7.195   0.265   1.872  0.1178  0.7316  1.4740
    3CHTO   H84 1130   7.282   0.331   1.869  1.3644 -0.9322  0.2262
    3CHTO   C44 1131   7.096   0.327   1.977  0.0222 -0.2305  0.2521
    3CHTO   H86 1132   7.010   0.261   1.980 -0.6009  0.5996  0.6047
    3CHTO   O32 1133   7.154   0.325   2.109 -0.4481  0.4289  0.0942
    3CHTO   H69 1134   7.221   0.390   2.122 -0.1277  0.4690 -1.6381
    3CHTO   C48 1135   7.045   0.475   1.928 -1.0505  0.1639  0.1444
    3CHTO   H90 1136   7.135   0.536   1.918  0.9157 -2.7290 -0.2505
    3CHTO    N9 1137   6.959   0.542   2.025 -0.4310 -0.7689  0.5025
    3CHTO   H77 1138   6.949   0.468   2.103  0.2926  0.7077  2.0199
    3CHTO   H78 1139   7.020   0.620   2.069  0.3859 -0.6905 -0.7461
    3CHTO   C51 1140   6.982   0.473   1.789 -0.5600  0.1757  1.2470
    3CHTO   H93 1141   6.891   0.415   1.801  0.1707 -1.0411  0.9805
    3CHTO   O30 1142   7.078   0.408   1.705  0.0852 -0.3341  0.2667
    3CHTO   C46 1143   7.126   0.275   1.728  0.3497  0.0511  0.0943
    3CHTO   H88 1144   7.046   0.200   1.731  2.4976 -2.2905 -0.1271
    3CHTO   C53 1145   7.225   0.246   1.615  0.0952  0.8518  0.4133
    3CHTO   O72 1146   7.172   0.264   1.479 -0.4933 -0.6286 -0.3219
    3CHTO  H199 1147   7.080   0.250   1.472 -0.5207 -0.6998  0.1198
    3CHTO   O22 1148   6.955   0.603   1.731  1.1628  0.0395 -0.2555
    3CHTO   C31 1149   6.858   0.593   1.621  0.2161  1.0309  0.0372
    3CHTO   H59 1150   6.865   0.493   1.574  1.3388  0.5837  1.1092
    3CHTO   C29 1151   6.706   0.620   1.659 -0.1595  0.3782 -0.1603
    3CHTO   H57 1152   6.717   0.719   1.707  2.1915 -0.5944  1.4072
    3CHTO   O21 1153   6.660   0.534   1.766 -0.6403  0.0499 -0.1810
    3CHTO   H37 1154   6.568   0.520   1.762 -0.8256  1.2613 -0.3990
    3CHTO   C27 1155   6.608   0.625   1.533 -0.2551 -0.7615  0.3071
    3CHTO   H55 1156   6.596   0.524   1.491 -1.3899 -0.6557  0.3544
    3CHTO    N5 1157   6.468   0.677   1.563  0.2099 -0.0560 -0.0928
    3CHTO   H43 1158   6.456   0.778   1.525  1.1955  0.0453 -0.1571
    3CHTO   H44 1159   6.440   0.656   1.665  0.8656 -1.5672 -0.2217
    3CHTO   C25 1160   6.675   0.712   1.427 -0.1899 -0.1172  0.1786
    3CHTO   H53 1161   6.683   0.813   1.471 -2.3668  0.4250 -0.6012
    3CHTO   O17 1162   6.816   0.675   1.400  0.3375  0.1571  0.7523
    3CHTO   C32 1163   6.903   0.700   1.510 -0.2373  0.0678 -0.4779
    3CHTO   H60 1164   6.897   0.801   1.550  2.8616 -0.2601  1.0094
    3CHTO   C36 1165   7.042   0.672   1.442  0.5963  0.3267 -0.0679
    3CHTO   O25 1166   7.072   0.541   1.416 -0.4732  0.1213  0.4003
    3CHTO   H40 1167   7.077   0.494   1.497 -2.4794  0.3094  0.6602
    3CHTO   O15 1168   6.579   0.703   1.282  0.1765 -0.0761 -0.4226
    3CHTO   C19 1169   6.540   0.804   1.196  0.7102 -1.2940  0.6950
    3CHTO   H47 1170   6.509   0.755   1.102 -0.4453  1.1939 -0.2790
    3CHTO   C20 1171   6.415   0.883   1.250 -0.2690  1.0025 -0.0597
    3CHTO   H48 1172   6.440   0.937   1.343 -1.9727  1.2007  0.3005
    3CHTO   O19 1173   6.309   0.785   1.286 -0.2571  0.5808 -0.0062
    3CHTO   H35 1174   6.241   0.760   1.227 -0.3059 -0.4166  0.4703
    3CHTO   C21 1175   6.371   0.990   1.141  0.4899 -0.2721 -1.3661
    3CHTO   H49 1176   6.341   0.938   1.050 -0.2978 -1.8548 -0.2212
    3CHTO    N4 1177   6.259   1.074   1.180  0.1115  0.3491 -0.2827
    3CHTO   H41 1178   6.296   1.174   1.198 -0.3823  0.8063 -1.6852
    3CHTO   H42 1179   6.207   1.035   1.266 -1.1217  0.5275 -0.9242
    3CHTO   C22 1180   6.490   1.077   1.099 -0.8160  0.2100  0.3331
    3CHTO   H50 1181   6.512   1.145   1.181 -1.7662 -0.1314  0.8762
    3CHTO   O14 1182   6.599   0.995   1.054  0.7621  0.5511 -0.1671
    3CHTO   C23 1183   6.643   0.914   1.155  0.2143  0.4062 -0.4898
    3CHTO   H51 1184   6.673   0.977   1.240 -0.8546  0.7491 -0.3630
    3CHTO   C34 1185   6.775   0.847   1.112  0.3179  0.4155  0.4106
    3CHTO   O23 1186   6.847   0.933   1.025  0.4285  0.0802  0.1624
    3CHTO   H38 1187   6.880   1.006   1.072  1.2838  0.0521 -0.3948
    3CHTO   O16 1188   6.467   1.157   0.985  0.0278  0.5727 -0.7831
    3CHTO   C24 1189   6.556   1.282   0.976  0.4396 -0.3807  0.1203
    3CHTO   H52 1190   6.636   1.275   1.049 -0.3073 -3.0144  0.7732
    3CHTO   C26 1191   6.469   1.408   0.983 -0.3464 -0.0106 -0.3720
    3CHTO   H54 1192   6.394   1.407   0.901  0.3685  0.0950 -1.0322
    3CHTO   O20 1193   6.406   1.404   1.113  0.4885  0.3061  0.2022
    3CHTO   H36 1194   6.317   1.373   1.106  0.2091  1.2127 -0.3257
    3CHTO   C30 1195   6.550   1.541   0.956  0.1171 -0.3942  0.1042
    3CHTO   H58 1196   6.626   1.542   1.037  1.0797 -2.2859 -0.7476
    3CHTO    N6 1197   6.466   1.659   0.982  0.5000  0.0759  0.3310
    3CHTO   H45 1198   6.391   1.632   1.054 -0.8004  0.8288 -0.7116
    3CHTO   H46 1199   6.420   1.699   0.892  0.1953 -0.8080  0.0903
    3CHTO   C33 1200   6.637   1.537   0.830  0.0115 -0.2972  0.1891
    3CHTO   H61 1201   6.575   1.540   0.740 -0.1088  1.0665  0.3096
    3CHTO   O18 1202   6.703   1.416   0.840 -0.6825  0.0890  0.1687
    3CHTO   C28 1203   6.625   1.289   0.846  0.3697  0.1435  0.3375
    3CHTO   H56 1204   6.547   1.289   0.770 -0.6002  0.9462  1.3279
    3CHTO   C35 1205   6.720   1.175   0.820  0.0655  0.0233  0.3702
    3CHTO   O24 1206   6.814   1.202   0.719  0.3720  0.1209  0.2965
    3CHTO   H39 1207   6.893   1.248   0.742  0.9335  0.2089 -1.6687
    3CHTO    O9 1208   6.728   1.646   0.809  0.3790 -0.9946  0.8129
    3CHTO   C13 1209   6.849   1.654   0.908 -0.0337 -0.7610 -0.2438
    3CHTO   H26 1210   6.807   1.622   1.006  1.8078 -1.5063  0.3152
    3CHTO   C11 1211   6.913   1.804   0.920 -0.7824 -0.4263 -0.1165
    3CHTO   H24 1212   6.834   1.864   0.968  1.2289  1.4150  0.9735
    3CHTO    O8 1213   6.951   1.855   0.791  0.3096  0.7853  0.1637
    3CHTO    H3 1214   6.876   1.857   0.735  0.6172 -1.2915 -0.3408
    3CHTO    C9 1215   7.024   1.801   1.023  0.7975  0.0546  1.2597
    3CHTO   H22 1216   6.982   1.752   1.112  4.0776 -2.1859  1.6492
    3CHTO    N2 1217   7.065   1.941   1.063  0.0636 -0.0691  0.1765
    3CHTO   H10 1218   7.152   1.937   1.127  0.9471  1.5366 -0.8940
    3CHTO   H11 1219   7.086   2.007   0.980 -1.1454  0.9124  0.6311
    3CHTO    C7 1220   7.139   1.708   0.967 -0.5501 -0.7429 -0.5510
    3CHTO   H20 1221   7.212   1.703   1.051 -2.3822 -0.4409  1.0887
    3CHTO    O4 1222   7.094   1.574   0.940  0.1226  0.2855  0.2514
    3CHTO   C14 1223   6.967   1.546   0.883 -0.1364  0.0546 -0.1827
    3CHTO   H27 1224   6.921   1.457   0.930 -0.1316 -0.4544 -1.1180
    3CHTO   C18 1225   6.996   1.510   0.731  0.0823 -0.1149 -0.4683
    3CHTO   O13 1226   7.074   1.391   0.711 -0.2916 -0.3075  0.3103
    3CHTO    H7 1227   7.139   1.400   0.644  0.4176 -0.3725  0.9883
    3CHTO    O2 1228   7.218   1.765   0.859  0.2924 -0.0620  0.1564
    3CHTO    C1 1229   7.328   1.692   0.801 -0.3236 -0.0879  0.4534
    3CHTO   H14 1230   7.310   1.582   0.791  0.3423  0.0449 -2.8447
    3CHTO    C2 1231   7.465   1.709   0.877  0.0973 -0.2708  0.2001
    3CHTO   H15 1232   7.485   1.816   0.894 -0.7005 -0.3711  1.8929
    3CHTO    O6 1233   7.458   1.658   1.015  0.0013  0.2847  1.1160
    3CHTO    H1 1234   7.515   1.704   1.074  1.2024  1.1719 -0.6723
    3CHTO    C3 1235   7.588   1.638   0.795  0.0488  0.5397 -0.4632
    3CHTO   H16 1236   7.571   1.529   0.790 -0.2183  0.6786 -2.9658
    3CHTO    N1 1237   7.721   1.666   0.861 -0.1064  0.3792 -0.2928
    3CHTO    H8 1238   7.693   1.696   0.961 -1.4119 -1.7449  0.0108
    3CHTO    H9 1239   7.766   1.570   0.882 -1.1282  0.0537  0.4345
    3CHTO    C4 1240   7.593   1.685   0.648  1.0124 -0.1728 -0.6239
    3CHTO   H17 1241   7.633   1.786   0.649  0.6638 -0.0309  1.1031
    3CHTO    O1 1242   7.456   1.667   0.592  0.3925 -0.1470  0.1089
    3CHTO    C5 1243   7.354   1.741   0.653 -0.2747 -0.0579 -0.3801
    3CHTO   H18 1244   7.381   1.847   0.647 -1.0857  0.1891  0.1439
    3CHTO   C16 1245   7.222   1.721   0.568 -0.7695  0.2842  0.3988
    3CHTO   O11 1246   7.191   1.831   0.488 -0.1821 -0.0315 -0.9467
    3CHTO    H5 1247   7.097   1.839   0.486 -0.0246  2.2624 -1.2725
    3CHTO    O3 1248   7.672   1.609   0.563 -0.3178  0.5150  0.3019
    3CHTO    C6 1249   7.689   1.653   0.426 -0.4153 -0.2035 -0.3719
    3CHTO   H19 1250   7.599   1.701   0.389  0.1678  0.2071 -1.2999
    3CHTO    C8 1251   7.818   1.752   0.408  0.0658  0.3313 -0.4512
    3CHTO   H21 1252   7.903   1.703   0.456 -1.1236 -2.8377 -1.4669
    3CHTO    O7 1253   7.786   1.878   0.471 -0.1075 -0.1087 -0.3277
    3CHTO    H2 1254   7.829   1.894   0.552 -0.7842  0.5744 -0.0930
    3CHTO   C12 1255   7.856   1.772   0.257  0.1013  0.3872  0.3962
    3CHTO   H25 1256   7.767   1.821   0.211 -0.4748  1.6397  2.7193
    3CHTO    N3 1257   7.972   1.865   0.231 -0.4713 -0.2201 -0.0017
    3CHTO   H12 1258   7.947   1.913   0.137 -2.8886 -2.3567 -0.4837
    3CHTO   H13 1259   8.066   1.812   0.219 -0.2156 -0.1391  1.5415
    3CHTO   C15 1260   7.873   1.626   0.201  0.5674  0.3110  0.1398
    3CHTO   H28 1261   7.957   1.574   0.247 -0.0601  0.0757  1.0392
    3CHTO   O10 1262   7.903   1.632   0.031 -0.3654  0.0052  0.2556
    3CHTO    H4 1263   7.876   1.554  -0.014 -2.2318  0.8215 -0.0768
    3CHTO    O5 1264   7.749   1.550   0.210 -0.5226 -0.1959 -0.0015
    3CHTO   C10 1265   7.704   1.522   0.340 -0.7559 -1.5807  0.1626
    3CHTO   H23 1266   7.775   1.447   0.372  0.6361 -0.3693 -0.0191
    3CHTO   C17 1267   7.565   1.463   0.329  0.1703 -0.2430  0.2933
    3CHTO   O12 1268   7.580   1.328   0.295  0.1224  0.2241 -0.0813
    3CHTO    H6 1269   7.528   1.270   0.347  1.6921 -0.3050  0.9421
    4CHTO  H203 1270   6.409   7.254   2.484  0.4132 -1.8482 -0.4626
    4CHTO   O82 1271   6.405   7.268   2.576  0.0263 -0.1105 -0.7179
    4CHTO  C123 1272   6.426   7.406   2.611  0.3286  0.2558 -0.2403
    4CHTO  H227 1273   6.387   7.421   2.713 -0.4813  2.2140 -0.8324
    4CHTO   O77 1274   6.576   7.424   2.611 -0.5258  0.1071 -0.4362
    4CHTO  C118 1275   6.631   7.554   2.649 -0.6487 -0.4025  0.5919
    4CHTO  H222 1276   6.608   7.582   2.753  2.0203 -1.7669  1.5731
    4CHTO  C125 1277   6.788   7.537   2.638 -0.4982 -0.8137 -0.4764
    4CHTO   O84 1278   6.847   7.638   2.712  0.0446 -0.5950  0.1788
    4CHTO  H205 1279   6.814   7.724   2.697 -0.8435 -1.0933 -0.7714
    4CHTO  C114 1280   6.574   7.662   2.554 -0.9806  0.0094 -0.7392
    4CHTO  H218 1281   6.617   7.655   2.454  0.7646 -2.9216  0.1429
    4CHTO  C116 1282   6.417   7.655   2.552 -0.8752  0.5832  0.2491
    4CHTO  H220 1283   6.381   7.681   2.654 -0.7778  0.1124  0.4043
    4CHTO   O79 1284   6.373   7.765   2.471  0.0498 -0.3016  0.1037
    4CHTO  H201 1285   6.332   7.739   2.391 -0.8374  1.3415  0.0053
    4CHTO  C120 1286   6.364   7.512   2.509 -0.0292  0.5854  0.0587
    4CHTO  H224 1287   6.419   7.493   2.415  0.9018  0.2643  0.6576
    4CHTO   N21 1288   6.221   7.496   2.487 -0.4035  0.5828  0.2241
    4CHTO  H211 1289   6.171   7.585   2.453  0.7840  1.3333  0.3828
    4CHTO  H212 1290   6.186   7.482   2.588  0.1491 -0.6165  0.2579
    4CHTO   O75 1291   6.619   7.792   2.605 -0.0485 -0.2711  0.2617
    4CHTO  C112 1292   6.756   7.868   2.548  0.6591 -0.0303  0.5233
    4CHTO  H216 1293   6.828   7.797   2.505 -1.9738 -1.5331 -1.6436
    4CHTO   O73 1294   6.805   7.940   2.661 -0.2323  0.5375 -0.3094
    4CHTO  C113 1295   6.915   8.028   2.637 -0.0265  0.0093  0.5379
    4CHTO  H217 1296   7.006   7.972   2.607 -0.2502  1.4772 -3.1538
    4CHTO  C124 1297   6.955   8.113   2.754  0.4233  0.3993 -0.7808
    4CHTO   O83 1298   6.977   8.049   2.875  0.0937  0.7892  0.0093
    4CHTO  H204 1299   7.054   7.997   2.868  1.9583  3.3506  0.8900
    4CHTO  C109 1300   6.881   8.134   2.521  0.2040 -0.3077  0.0086
    4CHTO  H213 1301   6.798   8.196   2.557  1.0929  0.4123  0.8322
    4CHTO  C110 1302   6.840   8.056   2.395  0.2497 -0.6787  0.0825
    4CHTO  H214 1303   6.922   7.986   2.375  0.1926 -1.0889  1.2499
    4CHTO   O78 1304   6.819   8.157   2.294  0.0504 -0.4788 -0.7054
    4CHTO  H200 1305   6.801   8.117   2.211 -0.4688 -0.3729 -0.6463
    4CHTO  C111 1306   6.714   7.967   2.428 -0.0824 -0.5095  0.1526
    4CHTO  H215 1307   6.637   8.029   2.476 -0.2260 -1.4601  1.1718
    4CHTO   N19 1308   6.649   7.882   2.323 -0.0056 -0.6084 -0.2920
    4CHTO  H207 1309   6.561   7.833   2.362  0.0632 -0.9113 -0.5118
    4CHTO  H208 1310   6.630   7.937   2.233  1.4336  0.5486  0.0944
    4CHTO   O74 1311   6.997   8.223   2.483  0.2506 -0.5933  0.0036
    4CHTO  C115 1312   7.007   8.374   2.544  0.3436  0.4540 -0.1966
    4CHTO  H219 1313   6.926   8.396   2.615  2.2069  0.9539  1.8524
    4CHTO   O76 1314   7.142   8.393   2.636  0.4940 -0.2624 -0.4663
    4CHTO  C122 1315   7.258   8.379   2.553 -0.1107  0.0206 -0.0859
    4CHTO  H226 1316   7.257   8.272   2.529 -0.4072  0.2016 -0.9046
    4CHTO  C126 1317   7.382   8.406   2.640  0.1167  0.2215 -0.3863
    4CHTO   O85 1318   7.401   8.298   2.742 -0.0512  0.2340  0.3030
    4CHTO  H206 1319   7.455   8.233   2.702  0.1067  0.9221 -0.6218
    4CHTO  C121 1320   7.258   8.467   2.423  0.9558  0.1521 -0.6659
    4CHTO  H225 1321   7.343   8.538   2.433  0.2630  1.0008 -0.7548
    4CHTO   O81 1322   7.262   8.374   2.310  0.1232  0.0817  0.5555
    4CHTO  H202 1323   7.314   8.412   2.242 -2.1963  0.2049 -1.1963
    4CHTO  C119 1324   7.136   8.553   2.398 -0.0720 -0.3719  0.0112
    4CHTO  H223 1325   7.135   8.630   2.474 -0.0217  0.0460 -0.4075
    4CHTO  C117 1326   7.004   8.479   2.423 -0.6978 -0.4967  0.0580
    4CHTO  H221 1327   6.972   8.422   2.336 -0.0194 -1.5292  0.4780
    4CHTO   N20 1328   6.899   8.581   2.449  0.2505  0.0191  0.0753
    4CHTO  H209 1329   6.801   8.540   2.427 -0.5349  1.4441  0.8260
    4CHTO  H210 1330   6.921   8.675   2.402  0.0997 -0.2840 -0.5969
    4CHTO   O80 1331   7.131   8.649   2.263  0.1468 -0.9526 -0.0926
    4CHTO  C103 1332   7.238   8.774   2.254 -0.5080 -0.4142  0.2872
    4CHTO  H190 1333   7.271   8.806   2.353 -0.0641  1.4488 -0.4314
    4CHTO  C101 1334   7.363   8.751   2.166  0.2125  0.2980  0.2276
    4CHTO  H188 1335   7.335   8.692   2.079 -0.9252 -0.0695  0.8405
    4CHTO   O68 1336   7.472   8.663   2.253  0.0797  0.3986 -0.3502
    4CHTO  H168 1337   7.472   8.573   2.225  4.3415  0.9775 -2.5457
    4CHTO   C99 1338   7.428   8.884   2.107  0.3447  0.1140  0.5340
    4CHTO  H186 1339   7.475   8.934   2.195 -0.2015  0.0640  0.8591
    4CHTO   N17 1340   7.535   8.866   2.011 -0.1306  0.0206  0.2342
    4CHTO  H174 1341   7.498   8.822   1.920  1.4364 -0.5261 -0.1498
    4CHTO  H175 1342   7.571   8.966   1.991 -1.4591  0.8648  1.9105
    4CHTO   C97 1343   7.319   8.986   2.050  0.3836  0.4932  0.8291
    4CHTO  H184 1344   7.274   8.946   1.958 -2.7794  0.4488  2.3593
    4CHTO   O64 1345   7.224   9.005   2.145 -0.1358 -0.0010  0.2230
    4CHTO  C104 1346   7.152   8.892   2.196 -0.1614  0.4325  0.1811
    4CHTO  H191 1347   7.083   8.853   2.121  2.2959 -1.2570 -1.2477
    4CHTO  C108 1348   7.071   8.942   2.312  0.3544  0.3199  0.3836
    4CHTO   O71 1349   6.951   9.027   2.290  0.0735 -0.5064  0.2975
    4CHTO  H171 1350   6.918   9.064   2.369 -2.0691  0.7629 -1.1401
    4CHTO   O62 1351   7.373   9.122   2.021  0.1026  0.6061 -0.3548
    4CHTO   C91 1352   7.323   9.192   1.906  0.4046 -0.3324  0.2754
    4CHTO  H178 1353   7.255   9.122   1.858 -1.4036  0.6901  1.2956
    4CHTO   C92 1354   7.437   9.233   1.810 -0.5219  0.1345 -0.6139
    4CHTO  H179 1355   7.506   9.298   1.865 -0.7089  0.2576 -0.5245
    4CHTO   O66 1356   7.513   9.124   1.764  0.0581 -0.1785 -0.4080
    4CHTO  H166 1357   7.566   9.091   1.834 -0.1343 -0.1385 -0.2405
    4CHTO   C93 1358   7.396   9.305   1.684 -0.6200  0.3566 -0.2912
    4CHTO  H180 1359   7.344   9.232   1.621  1.3683 -0.4323 -1.0398
    4CHTO   N16 1360   7.509   9.370   1.600  0.1199  0.4336 -0.6895
    4CHTO  H172 1361   7.555   9.294   1.539  0.6710  0.1524  0.0710
    4CHTO  H173 1362   7.580   9.408   1.672  1.2427  0.4760 -1.8120
    4CHTO   C94 1363   7.298   9.424   1.726  0.1444 -0.3815 -0.1267
    4CHTO  H181 1364   7.349   9.507   1.774  0.6620 -0.5312 -0.4116
    4CHTO   O61 1365   7.193   9.380   1.811 -0.0369  1.0748  0.1315
    4CHTO   C95 1366   7.237   9.327   1.939 -0.4811  0.2706 -0.0766
    4CHTO  H182 1367   7.304   9.398   1.987  0.4368 -1.6519  1.5781
    4CHTO  C106 1368   7.114   9.291   2.029 -0.0789  0.0025 -0.0636
    4CHTO   O69 1369   7.075   9.418   2.088 -0.2485  0.1758  0.0176
    4CHTO  H169 1370   7.026   9.409   2.168  0.3268 -3.3432  0.0493
    4CHTO   O63 1371   7.230   9.497   1.593 -0.0318  0.4679 -0.4296
    4CHTO   C96 1372   7.137   9.399   1.508  0.3943 -0.4219  0.8014
    4CHTO  H183 1373   7.137   9.301   1.557 -1.0719 -1.4480 -1.2006
    4CHTO   C98 1374   7.182   9.391   1.362  0.0516  0.2372  0.2020
    4CHTO  H185 1375   7.217   9.492   1.334  1.7090  0.1387  1.8517
    4CHTO   O67 1376   7.293   9.309   1.361  0.4834  0.4766  0.0033
    4CHTO  H167 1377   7.360   9.342   1.305 -0.5452  0.0192 -1.5569
    4CHTO  C102 1378   7.070   9.335   1.259 -0.0033  0.1937 -0.4392
    4CHTO  H189 1379   7.118   9.248   1.211  1.1445  0.0886  0.8732
    4CHTO   N18 1380   7.031   9.419   1.151 -0.0882 -0.4194 -0.3719
    4CHTO  H176 1381   7.118   9.472   1.115  1.2523 -0.1463  3.0877
    4CHTO  H177 1382   6.958   9.492   1.183  1.5846  1.3493 -0.5228
    4CHTO  C105 1383   6.944   9.287   1.341  0.6636 -0.2216 -0.2679
    4CHTO  H192 1384   6.865   9.264   1.270  1.1833 -1.6708 -0.3804
    4CHTO   O65 1385   6.892   9.380   1.438 -0.5955 -0.0390 -0.4502
    4CHTO  C100 1386   6.987   9.459   1.513 -0.3950 -0.2585 -0.1772
    4CHTO  H187 1387   6.995   9.562   1.473 -1.4125  0.8070  2.2473
    4CHTO  C107 1388   6.934   9.464   1.663 -0.0151  0.5549 -0.2906
    4CHTO   O70 1389   6.815   9.537   1.689  0.0809 -0.0138 -0.1225
    4CHTO  H170 1390   6.844   9.611   1.738  1.4527  1.1775 -2.6589
    4CHTO   O57 1391   6.984   9.138   1.405  0.1541 -0.3248  0.1159
    4CHTO   C85 1392   6.892   9.057   1.481 -0.1691  0.5520 -0.1696
    4CHTO  H157 1393   6.790   9.096   1.465 -0.5902 -1.1293 -1.6811
    4CHTO   C83 1394   6.931   9.072   1.634  0.3166 -0.0339 -0.2562
    4CHTO  H155 1395   6.891   9.167   1.668  2.5754  0.0539  2.2992
    4CHTO   O56 1396   7.077   9.077   1.646 -0.1437 -0.8317  0.3988
    4CHTO  H135 1397   7.116   8.992   1.640 -0.5701 -1.0182  0.2308
    4CHTO   C81 1398   6.867   8.958   1.718 -0.8103 -0.6975 -0.0719
    4CHTO  H153 1399   6.759   8.966   1.711 -0.7338  2.5039  1.3397
    4CHTO   N14 1400   6.896   8.968   1.866 -0.3339 -0.0398 -0.1374
    4CHTO  H141 1401   6.824   8.987   1.942 -1.6067  0.1942 -1.3812
    4CHTO  H142 1402   6.987   9.018   1.893 -0.3086  0.6787 -1.5003
    4CHTO   C79 1403   6.907   8.826   1.659 -0.4953 -0.1511  0.2672
    4CHTO  H151 1404   6.848   8.748   1.708  1.1725 -0.9267  1.0732
    4CHTO   O52 1405   6.871   8.801   1.523 -0.1998 -0.3151 -0.4013
    4CHTO   C86 1406   6.908   8.912   1.429 -0.2887 -0.5665  0.7332
    4CHTO  H158 1407   7.009   8.874   1.403  0.6868  2.3420  0.0899
    4CHTO   C90 1408   6.830   8.901   1.302  0.5814  0.4172  0.2530
    4CHTO   O60 1409   6.834   8.758   1.265  0.2776 -0.0495  0.0136
    4CHTO  H138 1410   6.748   8.724   1.281  0.6288 -0.8161  0.3019
    4CHTO   O50 1411   7.049   8.807   1.662  0.1574  0.6133  0.1680
    4CHTO   C73 1412   7.165   8.722   1.688  0.7295  0.3036  0.5132
    4CHTO  H145 1413   7.168   8.673   1.786  0.9378  0.1801  0.4467
    4CHTO   C74 1414   7.301   8.807   1.677 -0.2261  0.3537 -0.0193
    4CHTO  H146 1415   7.290   8.894   1.742 -0.0385 -1.2646  2.2480
    4CHTO   O54 1416   7.418   8.722   1.714  0.4166  0.0023 -0.2080
    4CHTO  H133 1417   7.498   8.761   1.687  1.5615 -1.3825  1.0690
    4CHTO   C75 1418   7.322   8.856   1.524  0.3080  0.8279 -0.5526
    4CHTO  H147 1419   7.241   8.926   1.497  0.9705  1.2778 -1.4356
    4CHTO   N13 1420   7.454   8.933   1.505  0.0738  0.2794  0.3583
    4CHTO  H139 1421   7.540   8.868   1.508  0.0759  0.2146 -0.7339
    4CHTO  H140 1422   7.449   8.987   1.411  1.2796  1.6154  1.0480
    4CHTO   C76 1423   7.312   8.729   1.425 -0.0491 -0.5076  0.9241
    4CHTO  H148 1424   7.393   8.661   1.452 -1.1685 -2.2367  0.0005
    4CHTO   O49 1425   7.185   8.670   1.444 -0.1272  0.1219 -0.0547
    4CHTO   C77 1426   7.173   8.609   1.574 -0.2990  0.3917 -0.0377
    4CHTO  H149 1427   7.258   8.544   1.598  0.0635 -0.0897 -2.4581
    4CHTO   C88 1428   7.049   8.525   1.566  0.4320  0.2269  0.2198
    4CHTO   O58 1429   7.056   8.437   1.436  0.3778 -0.5642  0.5910
    4CHTO  H136 1430   6.969   8.426   1.403 -0.2264  0.5508  1.7934
    4CHTO   O51 1431   7.305   8.759   1.256  0.1283  0.1408 -0.1888
    4CHTO   C78 1432   7.355   8.646   1.163  0.1263  0.7604  0.0854
    4CHTO  H150 1433   7.360   8.552   1.222  0.8448  1.8188  1.7668
    4CHTO   C80 1434   7.497   8.678   1.108 -0.2000  0.2604  0.0958
    4CHTO  H152 1435   7.492   8.774   1.052 -1.1119  0.0124 -0.2480
    4CHTO   O55 1436   7.589   8.695   1.219 -0.2800 -0.5526 -0.4062
    4CHTO  H134 1437   7.654   8.762   1.204 -2.4785  1.9874  0.8902
    4CHTO   C84 1438   7.548   8.578   1.002 -0.1735  0.0400  0.3281
    4CHTO  H156 1439   7.563   8.485   1.057  0.2614 -0.2250 -0.2328
    4CHTO   N15 1440   7.687   8.607   0.941  0.3716  0.3049 -0.7803
    4CHTO  H143 1441   7.690   8.710   0.912 -2.1925  0.4726 -0.5845
    4CHTO  H144 1442   7.764   8.586   1.012 -0.2163 -0.5152 -0.3809
    4CHTO   C87 1443   7.436   8.549   0.899 -0.4329  0.1157 -0.0811
    4CHTO  H159 1444   7.417   8.631   0.830  1.3758  1.0909  0.5609
    4CHTO   O53 1445   7.303   8.516   0.967 -0.4775  0.4164  0.0382
    4CHTO   C82 1446   7.256   8.623   1.046  0.2119 -0.2075 -0.1373
    4CHTO  H154 1447   7.232   8.715   0.992  0.2969  0.4861  1.0054
    4CHTO   C89 1448   7.130   8.566   1.112 -0.2284 -0.7445  0.2938
    4CHTO   O59 1449   7.026   8.535   1.013 -0.1097 -0.3488 -0.0193
    4CHTO  H137 1450   7.045   8.449   0.981  0.1495  0.4672 -2.1639
    4CHTO   O45 1451   7.468   8.410   0.819  0.5695  0.0190 -0.2930
    4CHTO   C67 1452   7.471   8.290   0.898 -0.3780 -0.9739 -0.6339
    4CHTO  H124 1453   7.426   8.301   0.997 -0.0882 -0.4859 -0.5546
    4CHTO   C65 1454   7.399   8.179   0.812  0.0981 -0.0778 -0.4740
    4CHTO  H122 1455   7.301   8.221   0.790  0.6285  0.4980 -1.8412
    4CHTO   O44 1456   7.377   8.054   0.878 -0.6121 -0.2610  0.0690
    4CHTO  H102 1457   7.433   7.996   0.829  0.3025  1.2275 -0.6855
    4CHTO   C63 1458   7.466   8.171   0.675  0.0686 -0.7651  0.3571
    4CHTO  H120 1459   7.477   8.271   0.631 -0.4726 -0.5302  0.7569
    4CHTO   N11 1460   7.386   8.099   0.568  0.0674 -0.0549 -0.2514
    4CHTO  H108 1461   7.280   8.110   0.579  0.0739 -0.5183  0.3000
    4CHTO  H109 1462   7.425   8.125   0.472 -1.0424  2.1824 -0.1371
    4CHTO   C61 1463   7.617   8.118   0.697  0.0854  0.2505 -0.0086
    4CHTO  H118 1464   7.652   8.137   0.594  1.0472  0.5059  0.3614
    4CHTO   O40 1465   7.688   8.203   0.789 -0.1265  0.2063 -0.0410
    4CHTO   C68 1466   7.622   8.250   0.917 -0.4938  0.0993 -0.3601
    4CHTO  H125 1467   7.678   8.338   0.954  3.4418 -2.6102  0.4326
    4CHTO   C72 1468   7.649   8.148   1.029 -0.1005  0.2769 -0.4266
    4CHTO   O48 1469   7.590   8.185   1.151 -0.3611 -0.5399 -0.0993
    4CHTO  H105 1470   7.651   8.242   1.194 -0.3851 -1.7642  1.5711
    4CHTO   O38 1471   7.626   7.979   0.734 -0.4782  0.1510  0.4682
    4CHTO   C55 1472   7.740   7.902   0.772  0.1803  0.1539 -0.7369
    4CHTO  H112 1473   7.794   7.953   0.854  3.8109 -1.0723 -2.2862
    4CHTO   C56 1474   7.837   7.879   0.644  0.2704  0.1138  0.2969
    4CHTO  H113 1475   7.782   7.810   0.579  0.4454 -0.6490  0.9528
    4CHTO   O42 1476   7.862   8.005   0.577  0.1511  0.1879  0.5835
    4CHTO  H100 1477   7.782   8.051   0.562  0.5872  0.0545 -2.3246
    4CHTO   C57 1478   7.956   7.805   0.692 -0.4740  0.8082 -0.0336
    4CHTO  H114 1479   7.999   7.871   0.767 -0.3480 -0.1444  0.7384
    4CHTO   N10 1480   8.056   7.774   0.583 -0.4030 -0.7167  0.6481
    4CHTO  H106 1481   8.156   7.780   0.623  0.0746 -2.5461 -0.2239
    4CHTO  H107 1482   8.044   7.845   0.503 -0.2482  0.1625  1.3896
    4CHTO   C58 1483   7.915   7.675   0.762  0.0777 -0.0042 -0.3567
    4CHTO  H115 1484   7.862   7.611   0.688  0.6702 -1.4424  0.4514
    4CHTO   O37 1485   7.830   7.702   0.872 -0.0448  0.2961  0.4861
    4CHTO   C59 1486   7.701   7.767   0.834  0.3935  1.0538  0.0778
    4CHTO  H116 1487   7.648   7.710   0.758 -2.4244  3.0813  0.4364
    4CHTO   C70 1488   7.611   7.771   0.963 -0.1576 -0.0442  0.5086
    4CHTO   O46 1489   7.577   7.641   1.021 -0.1211  0.0142  1.0981
    4CHTO  H103 1490   7.583   7.655   1.114 -0.7469 -2.5793  1.5860
    4CHTO   O39 1491   8.054   7.595   0.819 -0.0538 -0.0433 -0.2190
    4CHTO   C60 1492   8.022   7.460   0.866 -0.5587 -0.1024 -0.0481
    4CHTO  H117 1493   7.915   7.458   0.888 -0.2925  0.7805  1.4289
    4CHTO   C62 1494   8.048   7.351   0.755  0.3103  0.1215 -0.8642
    4CHTO  H119 1495   8.000   7.384   0.660  1.7814 -2.0596 -2.3963
    4CHTO   O43 1496   8.185   7.340   0.720  0.3301 -0.4258 -0.2860
    4CHTO  H101 1497   8.221   7.425   0.701  4.1462 -1.9453 -0.1850
    4CHTO   C66 1498   7.985   7.205   0.805  1.3020 -0.0216  0.6729
    4CHTO  H123 1499   7.879   7.221   0.822  1.4438  2.5841 -0.7274
    4CHTO   N12 1500   7.996   7.092   0.705  0.3866  0.3278  0.7998
    4CHTO  H110 1501   7.900   7.056   0.670  0.7094 -1.1175  1.3580
    4CHTO  H111 1502   8.058   7.124   0.622 -2.9826 -2.2815 -2.9453
    4CHTO   C69 1503   8.039   7.165   0.945 -0.0656  1.0905  0.0832
    4CHTO  H126 1504   8.143   7.127   0.935 -0.3480  0.2638  0.2604
    4CHTO   O41 1505   8.043   7.300   1.051 -0.3406  0.5092 -0.0672
    4CHTO   C64 1506   8.096   7.429   1.001 -0.8972  0.1064 -0.4036
    4CHTO  H121 1507   8.203   7.413   0.974 -1.0734  0.3489 -1.2609
    4CHTO   C71 1508   8.084   7.534   1.115  1.0344  0.3961  0.3644
    4CHTO   O47 1509   8.162   7.662   1.093  0.4990  0.4934 -0.3651
    4CHTO  H104 1510   8.173   7.706   1.176  2.3325  0.4847 -0.5893
    4CHTO   O34 1511   7.950   7.047   1.003  0.1669 -0.2828 -0.3008
    4CHTO   C49 1512   7.913   6.912   0.998 -0.5507 -0.0556  0.4574
    4CHTO   H91 1513   7.908   6.880   0.894  1.9960 -1.9647  0.8956
    4CHTO   C47 1514   7.766   6.897   1.039 -0.2110  0.0096 -0.0615
    4CHTO   H89 1515   7.700   6.950   0.967  1.4573  3.1540  0.6387
    4CHTO   O33 1516   7.743   6.961   1.165 -0.1875 -0.2414  0.4552
    4CHTO   H70 1517   7.737   7.055   1.162  0.0500 -0.2060  1.0488
    4CHTO   C45 1518   7.724   6.739   1.071 -0.1322 -0.2582  0.4716
    4CHTO   H87 1519   7.733   6.722   1.179  3.3409  1.4448  0.5084
    4CHTO    N8 1520   7.585   6.715   1.024 -0.8062 -0.3103  0.3180
    4CHTO   H75 1521   7.556   6.618   1.061 -2.1698  0.9738  2.6853
    4CHTO   H76 1522   7.603   6.721   0.917 -3.0654 -1.7153 -0.1716
    4CHTO   C43 1523   7.831   6.635   1.011 -0.0536 -0.6454 -0.6813
    4CHTO   H85 1524   7.798   6.541   1.056 -0.6479 -0.1271 -0.0151
    4CHTO   O29 1525   7.963   6.668   1.059  0.0925  0.0163 -0.0315
    4CHTO   C50 1526   7.992   6.808   1.084  0.2071 -0.9699 -0.4605
    4CHTO   H92 1527   7.961   6.816   1.189 -1.0181 -1.5423 -0.7651
    4CHTO   C54 1528   8.149   6.831   1.072 -0.3160 -0.1972 -0.1876
    4CHTO   O36 1529   8.210   6.804   1.194  0.3091  0.0784  0.1138
    4CHTO   H72 1530   8.205   6.713   1.214  0.7734 -0.1743 -0.9472
    4CHTO   O27 1531   7.825   6.628   0.870  0.0861  0.1863  0.8153
    4CHTO   C37 1532   7.879   6.563   0.752 -0.0884 -0.2071 -0.3894
    4CHTO   H79 1533   7.832   6.588   0.656  0.8772 -0.5395 -0.9493
    4CHTO   C38 1534   8.023   6.616   0.733  0.6379  0.4977  0.0629
    4CHTO   H80 1535   8.076   6.606   0.829 -0.0805  1.3177  0.5432
    4CHTO   O31 1536   8.005   6.749   0.691 -0.2542  0.2290 -0.1180
    4CHTO   H68 1537   8.078   6.769   0.635 -0.9189 -0.7960 -1.3651
    4CHTO   C39 1538   8.105   6.532   0.625  0.2756 -0.5707  0.4534
    4CHTO   H81 1539   8.050   6.534   0.531 -0.9103  2.9736  1.1499
    4CHTO    N7 1540   8.243   6.583   0.597  0.0600 -0.1765 -0.0155
    4CHTO   H73 1541   8.245   6.691   0.588 -1.9859 -0.2080 -1.1708
    4CHTO   H74 1542   8.294   6.525   0.521  1.9119  1.5238 -0.1012
    4CHTO   C40 1543   8.092   6.387   0.669  1.0775 -0.5113 -0.4064
    4CHTO   H82 1544   8.127   6.383   0.773  0.8675 -0.9633 -0.3499
    4CHTO   O26 1545   7.948   6.350   0.658  1.1926  0.0408 -0.2175
    4CHTO   C41 1546   7.864   6.405   0.765  0.2697  0.2626  0.2942
    4CHTO   H83 1547   7.902   6.363   0.859 -0.1990  0.0827  0.4065
    4CHTO   C52 1548   7.714   6.369   0.749 -0.0254  0.1954  0.2822
    4CHTO   O35 1549   7.687   6.240   0.717  0.0908  0.2147  0.2114
    4CHTO   H71 1550   7.702   6.184   0.791 -1.8394 -0.2003  0.3177
    4CHTO   O28 1551   8.158   6.290   0.588 -0.2763  0.5265  0.0979
    4CHTO   C42 1552   8.176   6.151   0.629  0.4565 -0.4920  0.0452
    4CHTO   H84 1553   8.247   6.114   0.555  1.2138 -0.6075  0.8120
    4CHTO   C44 1554   8.042   6.051   0.625  0.5407 -0.5497 -0.5841
    4CHTO   H86 1555   7.968   6.091   0.695  0.8967 -1.9902  0.6297
    4CHTO   O32 1556   7.996   6.070   0.497  0.2307 -0.4307  0.4328
    4CHTO   H69 1557   7.915   6.024   0.486  0.2628  0.0134 -1.9041
    4CHTO   C48 1558   8.071   5.901   0.667 -0.1097 -0.7199  0.0116
    4CHTO   H90 1559   8.138   5.849   0.599  0.0894  0.4552 -0.7021
    4CHTO    N9 1560   7.942   5.824   0.678  0.2742  0.2391  0.1217
    4CHTO   H77 1561   7.934   5.789   0.780 -1.8316  0.5183  0.0763
    4CHTO   H78 1562   7.859   5.891   0.662 -0.6140 -0.8522  0.1507
    4CHTO   C51 1563   8.152   5.912   0.807  0.2310 -0.1555 -0.0120
    4CHTO   H93 1564   8.087   5.950   0.885  1.4942  2.2529 -0.0712
    4CHTO   O30 1565   8.272   5.993   0.796 -0.1979 -0.2757  0.0000
    4CHTO   C46 1566   8.248   6.146   0.765 -0.0563 -0.2048 -0.1877
    4CHTO   H88 1567   8.183   6.186   0.844 -0.2864  0.5507 -0.7562
    4CHTO   C53 1568   8.382   6.224   0.750  0.0215 -0.3619  0.3590
    4CHTO   O72 1569   8.473   6.189   0.854 -0.3995  0.4945 -0.2319
    4CHTO  H199 1570   8.560   6.213   0.828 -0.7368  0.6931 -1.1919
    4CHTO   O22 1571   8.198   5.779   0.842  0.1481  0.1113  0.3106
    4CHTO   C31 1572   8.218   5.744   0.986 -0.7418 -1.0927  1.3917
    4CHTO   H59 1573   8.232   5.837   1.044 -0.7402 -0.7607  0.8596
    4CHTO   C29 1574   8.104   5.668   1.052  0.1451  1.0681 -0.5079
    4CHTO   H57 1575   8.099   5.563   1.019 -4.2903  0.3871  1.9594
    4CHTO   O21 1576   7.983   5.727   1.021  0.0097 -0.3084  0.0977
    4CHTO   H37 1577   7.920   5.664   0.993 -0.0829 -0.8860  1.5736
    4CHTO   C27 1578   8.118   5.666   1.210  0.4860 -0.2280  0.1736
    4CHTO   H55 1579   8.097   5.768   1.246  1.3348  0.1507 -0.3852
    4CHTO    N5 1580   8.018   5.577   1.273 -0.3135  0.2182  0.3305
    4CHTO   H43 1581   7.950   5.642   1.326  1.1315 -1.1633  4.1311
    4CHTO   H44 1582   7.961   5.520   1.201 -0.2210  0.4704  0.0588
    4CHTO   C25 1583   8.267   5.629   1.254  0.5747  0.1621 -0.2186
    4CHTO   H53 1584   8.289   5.523   1.272  2.9631  0.4352 -1.2948
    4CHTO   O17 1585   8.368   5.673   1.155  0.2390  0.4909  0.7209
    4CHTO   C32 1586   8.342   5.657   1.014  0.0143 -0.9150  0.3493
    4CHTO   H60 1587   8.330   5.552   0.987 -0.6700 -0.3583 -1.6155
    4CHTO   C36 1588   8.476   5.709   0.940  0.2042 -0.1621 -0.0607
    4CHTO   O25 1589   8.484   5.857   0.943 -0.1236  0.2203  0.0782
    4CHTO   H40 1590   8.411   5.897   0.900 -3.0424 -0.0908  4.4326
    4CHTO   O15 1591   8.305   5.701   1.385 -0.0057 -0.5625  0.1276
    4CHTO   C19 1592   8.310   5.839   1.441  0.0062  0.2715 -0.2480
    4CHTO   H47 1593   8.402   5.827   1.500  0.5219 -5.6546 -1.9756
    4CHTO   C20 1594   8.328   5.954   1.338 -0.2972 -0.2080 -0.1987
    4CHTO   H48 1595   8.240   5.953   1.271  0.3999  0.6366 -1.1238
    4CHTO   O19 1596   8.452   5.927   1.270  0.6302 -0.5069  0.0248
    4CHTO   H35 1597   8.520   5.903   1.329  0.3352 -2.5229 -0.4077
    4CHTO   C21 1598   8.347   6.093   1.420  0.4965 -0.4899  0.3640
    4CHTO   H49 1599   8.439   6.082   1.476  0.7238  2.0896  0.5605
    4CHTO    N4 1600   8.367   6.213   1.332 -0.1565 -0.4322 -0.8443
    4CHTO   H41 1601   8.390   6.181   1.231 -0.6733  0.8555 -1.3851
    4CHTO   H42 1602   8.278   6.274   1.327 -0.4656 -0.8385 -0.3035
    4CHTO   C22 1603   8.235   6.108   1.523 -0.0882  0.0408  1.0030
    4CHTO   H50 1604   8.136   6.124   1.481  0.6769  0.5503 -0.6556
    4CHTO   O14 1605   8.227   5.999   1.609 -0.3570 -0.0576  0.6422
    4CHTO   C23 1606   8.202   5.874   1.545  0.3212 -0.1788  0.8529
    4CHTO   H51 1607   8.108   5.896   1.493  1.0312  0.0174 -0.3551
    4CHTO   C34 1608   8.203   5.757   1.647 -0.0786  0.1722  0.2795
    4CHTO   O23 1609   8.144   5.638   1.602 -0.5902  0.3257  0.3766
    4CHTO   H38 1610   8.158   5.568   1.663 -0.5110  1.3141  1.5218
    4CHTO   O16 1611   8.265   6.220   1.615 -0.6266  0.7416 -0.3639
    4CHTO   C24 1612   8.144   6.342   1.621 -0.1977  0.1026 -0.4768
    4CHTO   H52 1613   8.062   6.319   1.552  0.2803 -2.3412 -0.2756
    4CHTO   C26 1614   8.204   6.483   1.593 -0.4076 -0.0171  0.2852
    4CHTO   H54 1615   8.293   6.498   1.657  1.2284 -4.5574 -0.7129
    4CHTO   O20 1616   8.238   6.481   1.454  0.7476  0.0453 -0.5743
    4CHTO   H36 1617   8.319   6.435   1.451  0.1279 -1.0383 -0.8811
    4CHTO   C30 1618   8.100   6.596   1.622  0.5474  0.4208 -0.1734
    4CHTO   H58 1619   8.021   6.601   1.546  0.3247  1.1510  0.0962
    4CHTO    N6 1620   8.157   6.731   1.620  0.1520 -0.2790  0.6094
    4CHTO   H45 1621   8.258   6.730   1.581  0.2490 -0.5977  0.8752
    4CHTO   H46 1622   8.154   6.787   1.712 -1.5072 -0.3010  0.5911
    4CHTO   C33 1623   8.020   6.574   1.761  0.0388  0.5657 -0.3735
    4CHTO   H61 1624   8.086   6.584   1.848 -0.1818  0.7401 -0.2279
    4CHTO   O18 1625   7.970   6.436   1.750  0.4007  0.3317  0.5400
    4CHTO   C28 1626   8.078   6.342   1.764 -0.4797  0.2367 -0.3438
    4CHTO   H56 1627   8.153   6.377   1.835 -0.8446 -1.3770  0.8901
    4CHTO   C35 1628   8.036   6.195   1.807 -0.7260  0.2338  0.0330
    4CHTO   O24 1629   7.923   6.151   1.731  0.0394 -0.3150  0.5693
    4CHTO   H39 1630   7.845   6.188   1.769  0.9624  2.0737  0.2343
    4CHTO    O9 1631   7.908   6.662   1.779  0.2182 -0.7717  0.3928
    4CHTO   C13 1632   7.841   6.645   1.927 -0.7789 -0.0704  0.0485
    4CHTO   H26 1633   7.847   6.537   1.949 -2.3421  0.3494  2.7926
    4CHTO   C11 1634   7.694   6.694   1.922  0.7017  0.5360 -0.4513
    4CHTO   H24 1635   7.638   6.619   1.864 -0.4267 -0.7770  2.2364
    4CHTO    O8 1636   7.679   6.825   1.856  0.1392  0.0207  0.3910
    4CHTO    H3 1637   7.597   6.868   1.869  0.1381  0.5932 -1.4168
    4CHTO    C9 1638   7.636   6.695   2.067 -0.4436 -0.9526 -0.8321
    4CHTO   H22 1639   7.665   6.593   2.098  1.9200 -0.8595 -2.5520
    4CHTO    N2 1640   7.488   6.708   2.076 -0.7931 -0.0871  0.8322
    4CHTO   H10 1641   7.451   6.683   1.977  0.6702  0.1901  0.1957
    4CHTO   H11 1642   7.452   6.807   2.098 -0.8340 -0.4024  2.1822
    4CHTO    C7 1643   7.718   6.789   2.158 -0.0107 -0.0704  0.2623
    4CHTO   H20 1644   7.676   6.773   2.259 -0.5627  0.2157  0.0782
    4CHTO    O4 1645   7.857   6.751   2.154  0.6428  0.4499  0.4367
    4CHTO   C14 1646   7.932   6.707   2.041 -1.0239  0.0058  0.2621
    4CHTO   H27 1647   7.995   6.622   2.073  1.1591  1.1952 -0.7441
    4CHTO   C18 1648   8.032   6.819   1.996 -0.2145 -0.4933  0.7787
    4CHTO   O13 1649   8.136   6.847   2.089 -0.3364 -0.0766 -0.4014
    4CHTO    H7 1650   8.177   6.930   2.070 -1.0775  0.9062  2.1350
    4CHTO    O2 1651   7.703   6.946   2.097  0.4991 -0.1650 -0.7657
    4CHTO    C1 1652   7.737   7.066   2.166  0.0873  0.2722  0.7133
    4CHTO   H14 1653   7.681   7.148   2.118 -0.1102 -0.0846  0.3296
    4CHTO    C2 1654   7.890   7.108   2.164  0.1298 -0.9522 -0.3034
    4CHTO   H15 1655   7.949   7.016   2.177  1.6597  0.0403 -0.0873
    4CHTO    O6 1656   7.919   7.164   2.032 -0.0713  0.1049 -0.1574
    4CHTO    H1 1657   7.907   7.102   1.963  2.8961  0.4450 -1.0589
    4CHTO    C3 1658   7.925   7.229   2.263 -0.1069 -0.0629 -0.6452
    4CHTO   H16 1659   7.889   7.321   2.215 -2.2589  0.1246  1.1900
    4CHTO    N1 1660   8.080   7.249   2.279  0.3502  0.5559  0.1835
    4CHTO    H8 1661   8.139   7.159   2.283 -1.2201 -0.5389 -0.5898
    4CHTO    H9 1662   8.124   7.322   2.212  0.3067  0.8051  0.4273
    4CHTO    C4 1663   7.842   7.228   2.401  0.1175 -0.8878 -0.8584
    4CHTO   H17 1664   7.895   7.162   2.469  0.5080 -1.0512 -1.3100
    4CHTO    O1 1665   7.709   7.184   2.384 -0.0298 -0.3097 -0.0773
    4CHTO    C5 1666   7.683   7.063   2.319  0.1792 -0.5106  0.0423
    4CHTO   H18 1667   7.737   6.983   2.369  0.9941  0.0359  0.0415
    4CHTO   C16 1668   7.535   7.039   2.329  0.0026  0.6744  0.2242
    4CHTO   O11 1669   7.503   6.996   2.459  0.2198 -0.2150 -0.8530
    4CHTO    H5 1670   7.507   6.904   2.478 -2.2180 -0.4144 -1.0897
    4CHTO    O3 1671   7.827   7.356   2.454  0.1549  0.1016  0.4889
    4CHTO    C6 1672   7.847   7.361   2.604  0.2775 -0.3702  0.1211
    4CHTO   H19 1673   7.856   7.263   2.650  0.3415 -0.1775  0.5176
    4CHTO    C8 1674   7.980   7.449   2.616  0.1126 -0.0217 -0.5723
    4CHTO   H21 1675   7.966   7.542   2.561 -1.5236 -1.5875 -2.8785
    4CHTO    O7 1676   8.094   7.378   2.560 -0.1524 -0.4148 -0.4819
    4CHTO    H2 1677   8.161   7.439   2.537  0.3712 -2.1365 -3.8282
    4CHTO   C12 1678   7.999   7.488   2.771  0.1591  0.1877  0.1168
    4CHTO   H25 1679   8.012   7.389   2.820 -0.0906 -0.4213 -1.0382
    4CHTO    N3 1680   8.119   7.570   2.787 -0.5423  0.1359 -0.2712
    4CHTO   H12 1681   8.111   7.669   2.744 -0.5359  0.6544  0.9041
    4CHTO   H13 1682   8.145   7.580   2.892  0.4499 -0.2225 -0.4736
    4CHTO   C15 1683   7.865   7.551   2.824 -0.2252 -0.4609 -0.2042
    4CHTO   H28 1684   7.855   7.652   2.784  1.1912  0.1530  0.9696
    4CHTO   O10 1685   7.875   7.551   2.962  0.6987  0.0139 -0.4558
    4CHTO    H4 1686   7.839   7.634   2.989 -0.2999 -0.2352 -0.9927
    4CHTO    O5 1687   7.745   7.470   2.810 -0.2590  0.1277  0.3763
    4CHTO   C10 1688   7.723   7.425   2.677  0.1281  0.1837 -0.2680
    4CHTO   H23 1689   7.692   7.510   2.615  1.5964 -0.6936 -2.2358
    4CHTO   C17 1690   7.609   7.329   2.668 -0.4615 -0.4548  0.0979
    4CHTO   O12 1691   7.485   7.393   2.706 -0.2127  0.0599  0.1207
    4CHTO    H6 1692   7.446   7.343   2.775  1.3327  0.7506  1.5312
    5CHTO  H203 1693   8.822   3.081   2.040  0.8808 -0.0291  1.4148
    5CHTO   O82 1694   8.755   3.146   2.045  0.9278  0.1855 -0.3770
    5CHTO  C123 1695   8.644   3.120   1.964  0.0389  0.4391  0.9862
    5CHTO  H227 1696   8.678   3.087   1.864 -0.4143  0.6358  0.7648
    5CHTO   O77 1697   8.583   3.009   2.041  0.0352  0.5372 -0.3942
    5CHTO  C118 1698   8.481   2.941   1.971  0.8039 -0.1460  0.3371
    5CHTO  H222 1699   8.507   2.900   1.873  0.8223  1.7312 -0.4664
    5CHTO  C125 1700   8.437   2.824   2.056 -0.2071 -0.2980 -0.2052
    5CHTO   O84 1701   8.543   2.725   2.069  0.2267 -0.0705 -0.8016
    5CHTO  H205 1702   8.556   2.694   1.982  3.4106 -1.1259 -0.0178
    5CHTO  C114 1703   8.364   3.047   1.962  0.6748 -0.4706  0.3945
    5CHTO  H218 1704   8.326   3.072   2.061 -2.0601 -3.1430  0.1154
    5CHTO  C116 1705   8.409   3.172   1.878 -0.5084  0.2974  0.0575
    5CHTO  H220 1706   8.441   3.133   1.780 -0.3360  0.2481  0.1326
    5CHTO   O79 1707   8.306   3.266   1.864  0.1377 -0.0289  0.6435
    5CHTO  H201 1708   8.277   3.284   1.952 -1.7810  0.4043 -0.0369
    5CHTO  C120 1709   8.536   3.233   1.946  0.1917  0.7263 -1.2718
    5CHTO  H224 1710   8.502   3.271   2.045 -0.5844  0.4221 -1.4191
    5CHTO   N21 1711   8.586   3.355   1.871  0.1197  0.5604  0.1489
    5CHTO  H211 1712   8.520   3.413   1.809 -1.6052 -0.3017  1.1138
    5CHTO  H212 1713   8.673   3.318   1.819 -1.9097  0.3455 -3.2094
    5CHTO   O75 1714   8.263   2.978   1.888  0.0409  0.3151 -0.5758
    5CHTO  C112 1715   8.098   3.029   1.940 -0.0706  0.1433  0.2811
    5CHTO  H216 1716   8.023   3.029   1.860  0.4579 -0.8425 -0.2313
    5CHTO   O73 1717   8.106   3.150   2.015  0.2092 -0.7184  0.7049
    5CHTO  C113 1718   7.985   3.215   2.058 -0.1387  0.0110  0.0844
    5CHTO  H217 1719   7.929   3.235   1.965 -1.2951 -0.4769  0.6716
    5CHTO  C124 1720   8.025   3.351   2.121 -0.2047  0.1588  0.3168
    5CHTO   O83 1721   8.111   3.435   2.045  0.2716  0.2470 -0.1706
    5CHTO  H204 1722   8.077   3.415   1.960 -2.7218 -0.0113  1.0358
    5CHTO  C109 1723   7.909   3.120   2.149  0.2161 -0.4793 -0.4868
    5CHTO  H213 1724   7.951   3.135   2.250  0.4398 -0.8804 -0.5221
    5CHTO  C110 1725   7.913   2.970   2.113 -0.1972  0.1560 -0.9008
    5CHTO  H214 1726   7.823   2.957   2.052 -0.1546 -1.0531 -0.7160
    5CHTO   O78 1727   7.902   2.891   2.236  0.0358 -0.3390 -0.4080
    5CHTO  H200 1728   7.883   2.801   2.220  0.3697 -1.1164  3.1146
    5CHTO  C111 1729   8.043   2.921   2.043 -0.2731  0.3268  0.1134
    5CHTO  H215 1730   8.123   2.909   2.118  1.2824 -0.4344 -1.6120
    5CHTO   N19 1731   8.027   2.784   1.982 -0.5169 -0.0581  0.2539
    5CHTO  H207 1732   7.935   2.768   1.928 -1.7859  2.0786  1.6804
    5CHTO  H208 1733   8.043   2.712   2.060  0.3326 -1.9354 -1.5913
    5CHTO   O74 1734   7.765   3.157   2.155 -0.1500 -0.0144  0.8017
    5CHTO  C115 1735   7.690   3.176   2.287 -0.1991  0.3437  0.1221
    5CHTO  H219 1736   7.741   3.125   2.369 -0.7299 -0.7813 -0.2306
    5CHTO   O76 1737   7.697   3.327   2.338  0.4664  0.0638 -0.1142
    5CHTO  C122 1738   7.584   3.409   2.312  0.1132  0.4871  0.0571
    5CHTO  H226 1739   7.592   3.429   2.205 -1.4829  0.2196 -0.1136
    5CHTO  C126 1740   7.598   3.550   2.391  0.5296  0.1482  0.4902
    5CHTO   O85 1741   7.618   3.528   2.531 -0.7194  0.4206  0.0920
    5CHTO  H206 1742   7.542   3.500   2.578  0.7049 -0.7850  1.7766
    5CHTO  C121 1743   7.445   3.340   2.351  0.3080 -0.2407  0.1323
    5CHTO  H225 1744   7.394   3.390   2.436  2.1996 -0.0825  1.2005
    5CHTO   O81 1745   7.361   3.371   2.242 -0.0693 -0.2847 -0.1629
    5CHTO  H202 1746   7.268   3.358   2.246 -0.4424  1.9242 -0.9894
    5CHTO  C119 1747   7.455   3.186   2.389  0.2010  0.6958  0.2203
    5CHTO  H223 1748   7.504   3.183   2.486  1.9819  0.6638 -0.6586
    5CHTO  C117 1749   7.546   3.124   2.275 -0.3330  0.7451  0.1759
    5CHTO  H221 1750   7.513   3.163   2.178  0.1504  1.4535  0.2937
    5CHTO   N20 1751   7.545   2.974   2.264  0.6101  0.2929  0.1683
    5CHTO  H209 1752   7.619   2.922   2.205  0.2401 -0.3284  0.2429
    5CHTO  H210 1753   7.529   2.925   2.359 -1.9484  1.9818  0.6616
    5CHTO   O80 1754   7.298   3.120   2.429 -0.0235  0.3318  0.6374
    5CHTO  C103 1755   7.159   3.151   2.322 -0.6350  0.1039  0.2216
    5CHTO  H190 1756   7.183   3.228   2.248  1.4084 -0.7270 -0.0012
    5CHTO  C101 1757   7.108   3.015   2.246 -0.0610 -0.0936 -0.4592
    5CHTO  H188 1758   7.086   2.939   2.322  0.7861  0.7209  0.6110
    5CHTO   O68 1759   7.215   2.962   2.162  0.4534  0.0734  0.3110
    5CHTO  H168 1760   7.212   3.007   2.080 -1.1794  1.6772  1.1995
    5CHTO   C99 1761   6.964   3.049   2.181  0.4931 -0.0547 -0.0873
    5CHTO  H186 1762   6.969   3.128   2.104 -1.2440  1.2472  1.0943
    5CHTO   N17 1763   6.900   2.933   2.110  0.0007 -0.6772 -0.1910
    5CHTO  H174 1764   6.810   2.961   2.057  0.2195 -0.2545 -0.3457
    5CHTO  H175 1765   6.882   2.842   2.164 -2.1004  0.4595  1.0882
    5CHTO   C97 1766   6.867   3.106   2.290 -0.4820 -0.3091  0.6230
    5CHTO  H184 1767   6.862   3.032   2.371  0.1576  0.1368  1.0782
    5CHTO   O64 1768   6.927   3.229   2.336  0.0659 -0.4035  0.4903
    5CHTO  C104 1769   7.045   3.214   2.411 -0.1322  0.5054 -0.5783
    5CHTO  H191 1770   7.027   3.143   2.491  0.0121 -1.0831 -1.9191
    5CHTO  C108 1771   7.070   3.355   2.470 -0.2344 -0.1878 -0.1613
    5CHTO   O71 1772   7.191   3.349   2.547 -0.1941  1.1867 -0.9944
    5CHTO  H171 1773   7.259   3.403   2.513 -0.6279  1.9196 -0.7034
    5CHTO   O62 1774   6.737   3.147   2.233  0.2502  0.3232 -0.5945
    5CHTO   C91 1775   6.623   3.133   2.319  0.0415  0.1151 -0.2714
    5CHTO  H178 1776   6.659   3.142   2.422  2.0159 -0.3796 -0.8920
    5CHTO   C92 1777   6.557   2.991   2.309 -0.5180 -0.8984 -0.7638
    5CHTO  H179 1778   6.559   2.951   2.207  1.4013 -1.5425 -0.4974
    5CHTO   O66 1779   6.655   2.908   2.366 -0.3361  0.1111  0.5077
    5CHTO  H166 1780   6.640   2.816   2.374  0.4211 -0.1070 -0.4594
    5CHTO   C93 1781   6.416   2.973   2.372  0.2229  0.6035  0.2086
    5CHTO  H180 1782   6.425   2.993   2.480 -1.1742 -0.9352  0.6193
    5CHTO   N16 1783   6.351   2.840   2.354  0.4773  0.0526 -0.0813
    5CHTO  H172 1784   6.250   2.829   2.391  0.8973 -0.6740  0.8832
    5CHTO  H173 1785   6.400   2.767   2.416  1.3982  1.2242  0.5892
    5CHTO   C94 1786   6.327   3.088   2.312 -0.7719  0.2050 -0.2609
    5CHTO  H181 1787   6.319   3.081   2.204 -0.2332 -1.8792 -0.1871
    5CHTO   O61 1788   6.386   3.217   2.343 -0.4323 -0.1390 -0.0375
    5CHTO   C95 1789   6.510   3.241   2.280 -1.0440 -0.2776  0.1192
    5CHTO  H182 1790   6.496   3.236   2.172 -1.4766 -0.4223  0.1798
    5CHTO  C106 1791   6.546   3.397   2.306  0.0813  0.6541  0.2280
    5CHTO   O69 1792   6.553   3.435   2.444 -0.1605  0.1846  0.2006
    5CHTO  H169 1793   6.624   3.491   2.470  0.4570  0.0229 -1.1170
    5CHTO   O63 1794   6.183   3.085   2.376  0.7374  0.1294 -0.2625
    5CHTO   C96 1795   6.072   3.083   2.257  0.3854 -0.0487 -0.0183
    5CHTO  H183 1796   6.108   3.036   2.165  0.0470 -3.2247  1.4096
    5CHTO   C98 1797   6.017   3.215   2.197 -0.6737  0.2944  0.0717
    5CHTO  H185 1798   5.986   3.282   2.279 -0.0919  1.2951 -0.5185
    5CHTO   O67 1799   6.125   3.292   2.132  0.3021 -0.0871  0.2021
    5CHTO  H167 1800   6.154   3.252   2.053  1.1194  0.3389  0.2835
    5CHTO  C102 1801   5.883   3.201   2.097 -0.1298  0.7689 -0.9723
    5CHTO  H189 1802   5.923   3.188   1.995 -0.3096  3.0813 -1.3473
    5CHTO   N18 1803   5.796   3.320   2.082 -0.0617 -0.1304 -0.8819
    5CHTO  H176 1804   5.804   3.401   2.153  0.5208 -0.6205 -0.3844
    5CHTO  H177 1805   5.737   3.343   1.994 -0.7126  0.3399 -0.3363
    5CHTO  C105 1806   5.799   3.074   2.125  0.0039  0.6013 -0.2542
    5CHTO  H192 1807   5.719   3.091   2.197 -0.2845 -1.1381 -0.1321
    5CHTO   O65 1808   5.861   2.961   2.179 -0.7133 -0.0083  0.3193
    5CHTO  C100 1809   5.949   2.992   2.294  1.1015 -0.0776 -0.1629
    5CHTO  H187 1810   5.885   3.041   2.368  1.7328 -2.5823  2.1178
    5CHTO  C107 1811   6.002   2.859   2.345 -0.7743 -0.0515  0.3036
    5CHTO   O70 1812   5.908   2.768   2.389  0.1335  0.2902 -1.1117
    5CHTO  H170 1813   5.932   2.730   2.471  0.4453 -0.0969 -1.3835
    5CHTO   O57 1814   5.739   3.029   1.965 -0.1002  0.1488  0.0568
    5CHTO   C85 1815   5.614   2.972   1.946 -0.0448  0.5670  0.3183
    5CHTO  H157 1816   5.543   3.038   2.000  0.0179  0.6227  0.3327
    5CHTO   C83 1817   5.602   2.839   2.024 -0.8279 -0.5516 -0.3239
    5CHTO  H155 1818   5.618   2.853   2.131  0.6159  0.0855 -0.6112
    5CHTO   O56 1819   5.713   2.754   1.983 -0.2491  0.2876  0.0537
    5CHTO  H135 1820   5.696   2.716   1.899  0.0350  1.8542 -0.7328
    5CHTO   C81 1821   5.464   2.783   1.997 -0.8359 -0.2827  0.0627
    5CHTO  H153 1822   5.393   2.863   2.018 -0.6316  0.4050 -1.7674
    5CHTO   N14 1823   5.425   2.661   2.086 -0.5838  0.7159 -0.0417
    5CHTO  H141 1824   5.508   2.599   2.115 -1.4507 -0.3175  0.2632
    5CHTO  H142 1825   5.373   2.698   2.171 -1.4538  0.4598 -0.4626
    5CHTO   C79 1826   5.457   2.743   1.838  0.4304 -0.0875 -0.0786
    5CHTO  H151 1827   5.364   2.691   1.821  1.3203 -1.1719 -1.7378
    5CHTO   O52 1828   5.457   2.874   1.768  0.2374  0.0105  0.4108
    5CHTO   C86 1829   5.577   2.957   1.791  0.2147  0.0885  0.1188
    5CHTO  H158 1830   5.649   2.905   1.724 -1.3340 -0.9027 -0.8093
    5CHTO   C90 1831   5.549   3.093   1.729 -0.1395 -0.1696  0.9172
    5CHTO   O60 1832   5.523   3.075   1.591 -0.0438  0.3443  1.1044
    5CHTO  H138 1833   5.486   3.151   1.551 -2.3225 -0.4396  1.6100
    5CHTO   O50 1834   5.570   2.658   1.791 -0.4981 -0.5563  0.1189
    5CHTO   C73 1835   5.587   2.542   1.701 -0.1085 -0.2260 -0.7083
    5CHTO  H145 1836   5.526   2.544   1.610  1.7918  0.2029 -1.9925
    5CHTO   C74 1837   5.554   2.415   1.788  0.6818  0.1187  0.1738
    5CHTO  H146 1838   5.453   2.424   1.830  0.7648 -0.8029  0.5820
    5CHTO   O54 1839   5.543   2.305   1.691  0.1239 -0.0817 -0.6641
    5CHTO  H133 1840   5.557   2.216   1.718  3.3413  0.9599  1.3365
    5CHTO   C75 1841   5.665   2.396   1.895  0.2156  0.3233  0.6432
    5CHTO  H147 1842   5.653   2.468   1.977  0.4519 -1.5899  2.3798
    5CHTO   N13 1843   5.665   2.266   1.975  0.3070 -0.7955  0.5539
    5CHTO  H139 1844   5.620   2.282   2.071  0.4334  0.4202  0.4164
    5CHTO  H140 1845   5.596   2.202   1.922  0.0035  0.4244 -0.5344
    5CHTO   C76 1846   5.815   2.419   1.838  0.0178  0.2859 -0.6909
    5CHTO  H148 1847   5.837   2.343   1.762 -2.6735  0.4732 -1.7258
    5CHTO   O49 1848   5.825   2.553   1.766  0.1916  0.1113  0.6469
    5CHTO   C77 1849   5.737   2.550   1.652 -0.3136  0.1347  0.7425
    5CHTO  H149 1850   5.758   2.465   1.587  2.8085  0.2407  1.5444
    5CHTO   C88 1851   5.766   2.684   1.575  0.2243 -0.4052 -0.3288
    5CHTO   O58 1852   5.662   2.705   1.463  1.0053  0.4846 -0.1768
    5CHTO  H136 1853   5.690   2.657   1.388  0.4428 -0.8931  0.4796
    5CHTO   O51 1854   5.937   2.416   1.961 -0.3974 -0.2624  0.6137
    5CHTO   C78 1855   6.081   2.416   1.897  0.1677  0.4328  0.0518
    5CHTO  H150 1856   6.067   2.435   1.788 -2.7121 -0.8843  0.1541
    5CHTO   C80 1857   6.157   2.280   1.915  0.1230 -0.1924  0.4236
    5CHTO  H152 1858   6.149   2.245   2.020 -1.3537  1.3057  0.8131
    5CHTO   O55 1859   6.079   2.189   1.832 -0.1193 -1.1774 -0.0860
    5CHTO  H134 1860   6.140   2.133   1.788  0.5612 -0.9851  0.5899
    5CHTO   C84 1861   6.311   2.295   1.871  0.1466 -0.1160  0.1932
    5CHTO  H156 1862   6.304   2.311   1.763 -1.4864  1.1479  0.4671
    5CHTO   N15 1863   6.389   2.167   1.890  0.7747 -0.0701  0.0457
    5CHTO  H143 1864   6.379   2.144   1.994  1.1258  1.4407  0.4302
    5CHTO  H144 1865   6.493   2.166   1.868  0.5844 -1.1776 -0.8963
    5CHTO   C87 1866   6.384   2.407   1.951  0.2721 -0.4843 -0.8418
    5CHTO  H159 1867   6.383   2.383   2.057 -1.3852 -2.0650 -1.1892
    5CHTO   O53 1868   6.304   2.533   1.934  0.2916 -0.2053  0.4730
    5CHTO   C82 1869   6.164   2.529   1.963 -0.2166 -0.1953 -0.1208
    5CHTO  H154 1870   6.156   2.506   2.069  0.1140 -0.7062 -0.2025
    5CHTO   C89 1871   6.111   2.665   1.942  0.4456  0.4641  0.7154
    5CHTO   O59 1872   5.993   2.695   2.017 -0.0769  0.3138  0.2898
    5CHTO  H137 1873   6.018   2.685   2.107  1.8127 -0.1196 -0.2632
    5CHTO   O45 1874   6.537   2.445   1.877  0.0260 -0.0630 -0.1414
    5CHTO   C67 1875   6.652   2.461   1.961 -0.4067  0.2392 -0.4870
    5CHTO  H124 1876   6.609   2.480   2.059 -1.1944  1.5810 -1.0755
    5CHTO   C65 1877   6.736   2.331   1.959  0.4662  0.5581 -0.1533
    5CHTO  H122 1878   6.710   2.287   1.862 -0.5101  0.8313 -0.0208
    5CHTO   O44 1879   6.678   2.251   2.058 -0.9686  0.6419 -0.2619
    5CHTO  H102 1880   6.745   2.246   2.123 -0.4913 -0.0878 -0.7971
    5CHTO   C63 1881   6.891   2.358   1.960 -0.0551 -0.3527 -0.3263
    5CHTO  H120 1882   6.926   2.391   1.862 -0.0857 -2.4353 -1.0794
    5CHTO   N11 1883   6.969   2.229   1.985 -0.3166 -0.3516 -0.2705
    5CHTO  H108 1884   7.075   2.242   1.990 -0.3104 -1.1775  2.1932
    5CHTO  H109 1885   6.935   2.162   1.908  1.5998 -0.8541 -0.6979
    5CHTO   C61 1886   6.928   2.468   2.057  0.3128 -0.7013  0.6560
    5CHTO  H118 1887   7.034   2.489   2.036 -0.0754  2.3945  1.5678
    5CHTO   O40 1888   6.860   2.593   2.017 -0.4493  0.4583 -0.3283
    5CHTO   C68 1889   6.747   2.579   1.929 -0.8706  0.1550 -0.3549
    5CHTO  H125 1890   6.789   2.551   1.830  1.2284 -0.6305  0.7066
    5CHTO   C72 1891   6.663   2.705   1.903 -0.0183  0.2349 -0.0381
    5CHTO   O48 1892   6.578   2.735   2.018  0.2438  0.0855 -0.2927
    5CHTO  H105 1893   6.548   2.824   2.021 -1.8457 -0.6258  0.6872
    5CHTO   O38 1894   6.894   2.448   2.194 -0.4777  0.3756 -0.1833
    5CHTO   C55 1895   6.882   2.544   2.311  0.1011 -0.4091 -0.1044
    5CHTO  H112 1896   6.821   2.629   2.275  1.1061 -1.0493 -3.4377
    5CHTO   C56 1897   7.021   2.592   2.368 -0.4822 -0.2151  0.0471
    5CHTO  H113 1898   7.084   2.511   2.408  0.5839  0.7086  0.2908
    5CHTO   O42 1899   7.094   2.654   2.263  0.6265  0.0724 -0.9254
    5CHTO  H100 1900   7.151   2.590   2.225  0.1367 -1.9897  1.6588
    5CHTO   C57 1901   6.997   2.699   2.482  0.4506  0.5031  0.7024
    5CHTO  H114 1902   6.950   2.784   2.432 -0.8975  1.5483  3.5844
    5CHTO   N10 1903   7.120   2.739   2.554  0.6978  0.1443  0.3914
    5CHTO  H106 1904   7.202   2.717   2.487  0.2539 -0.0418 -0.0955
    5CHTO  H107 1905   7.142   2.691   2.648  1.8418 -0.5406 -0.2262
    5CHTO   C58 1906   6.893   2.642   2.590 -0.4369  0.4750 -0.2474
    5CHTO  H115 1907   6.940   2.560   2.648 -1.1339 -0.0634 -0.4332
    5CHTO   O37 1908   6.781   2.590   2.529  0.2448  0.8009  0.4160
    5CHTO   C59 1909   6.798   2.489   2.426  0.1400 -0.2179  0.1434
    5CHTO  H116 1910   6.842   2.397   2.466 -0.5512 -0.6320 -0.0326
    5CHTO   C70 1911   6.661   2.454   2.368  0.4032  0.0949 -0.3653
    5CHTO   O46 1912   6.574   2.565   2.382 -0.3267 -0.6664 -0.5483
    5CHTO  H103 1913   6.598   2.641   2.332 -1.2680  2.0611  2.9059
    5CHTO   O39 1914   6.832   2.773   2.690 -0.3313  0.5322 -1.0160
    5CHTO   C60 1915   6.691   2.798   2.684 -0.5362  1.0245  0.6603
    5CHTO  H117 1916   6.656   2.793   2.581 -2.3582 -1.3787  1.3737
    5CHTO   C62 1917   6.606   2.684   2.756  0.2669 -0.7400 -0.0952
    5CHTO  H119 1918   6.623   2.591   2.698  2.7267  0.6216 -1.6356
    5CHTO   O43 1919   6.642   2.666   2.894 -0.3630 -0.1133 -0.3466
    5CHTO  H101 1920   6.725   2.623   2.900  0.3888  1.5437  1.9532
    5CHTO   C66 1921   6.449   2.718   2.739  0.1857  0.2252  0.0765
    5CHTO  H123 1922   6.427   2.712   2.632  0.4348  0.9106 -0.0145
    5CHTO   N12 1923   6.362   2.613   2.798 -1.1927 -0.8843  0.0940
    5CHTO  H110 1924   6.386   2.511   2.773  0.2153 -1.4279  3.4240
    5CHTO  H111 1925   6.331   2.621   2.902  0.3193  2.5718  0.3420
    5CHTO   C69 1926   6.422   2.864   2.784  0.6685  0.0035  0.7569
    5CHTO  H126 1927   6.443   2.862   2.893 -0.3303 -0.0030  0.9507
    5CHTO   O41 1928   6.517   2.959   2.718  0.3332  0.2474 -0.4885
    5CHTO   C64 1929   6.642   2.936   2.740 -0.6003 -0.5838 -0.2811
    5CHTO  H121 1930   6.651   2.930   2.850 -2.1380  0.8072 -0.0586
    5CHTO   C71 1931   6.719   3.069   2.683  0.7100  0.0172  0.0615
    5CHTO   O47 1932   6.862   3.063   2.696  0.0317  0.3381  0.2542
    5CHTO  H104 1933   6.901   3.017   2.768 -0.3672 -0.0906  0.1987
    5CHTO   O34 1934   6.266   2.908   2.763  0.1039  0.2227  0.0321
    5CHTO   C49 1935   6.165   2.993   2.831 -0.4312  0.1255 -0.5765
    5CHTO   H91 1936   6.083   2.924   2.850  0.8482 -1.3736 -0.4415
    5CHTO   C47 1937   6.124   3.107   2.738  0.3303  0.0218  0.1550
    5CHTO   H89 1938   6.041   3.163   2.786  1.1100  0.6114  0.8215
    5CHTO   O33 1939   6.078   3.041   2.617 -0.3341 -0.0485 -0.4887
    5CHTO   H70 1940   6.149   2.990   2.582  0.3133 -0.5450  1.4874
    5CHTO   C45 1941   6.256   3.196   2.717 -0.5543 -0.3212 -0.4409
    5CHTO   H87 1942   6.342   3.135   2.685  1.4586  2.2684 -0.2082
    5CHTO    N8 1943   6.241   3.307   2.623  0.0395  0.4418  0.2350
    5CHTO   H75 1944   6.149   3.303   2.568 -2.0137  1.6975  3.4212
    5CHTO   H76 1945   6.334   3.299   2.569  1.1651  4.5586  1.3910
    5CHTO   C43 1946   6.298   3.259   2.858 -0.5360 -0.0682 -0.1252
    5CHTO   H85 1947   6.390   3.317   2.847  1.2036 -2.6203  0.6227
    5CHTO   O29 1948   6.318   3.150   2.954  0.4631  0.7841  0.1416
    5CHTO   C50 1949   6.219   3.044   2.973  0.3884 -0.3280  0.5102
    5CHTO   H92 1950   6.250   2.955   3.030 -1.9307 -1.6529 -0.2343
    5CHTO   C54 1951   6.100   3.081   3.065 -0.3643 -0.5868  0.0501
    5CHTO   O36 1952   6.143   3.059   3.196 -0.1240  0.1140 -0.3485
    5CHTO   H72 1953   6.081   3.094   3.258 -1.2730  0.4039 -1.6453
    5CHTO   O27 1954   6.196   3.347   2.914  0.0345 -0.2392 -0.1491
    5CHTO   C37 1955   6.115   3.439   2.987 -0.3017  0.1026  0.7282
    5CHTO   H79 1956   6.129   3.541   2.948  0.9368  0.0096  0.8956
    5CHTO   C38 1957   5.961   3.416   2.972  0.0944  0.3211  0.0178
    5CHTO   H80 1958   5.939   3.313   3.004  1.2375  0.6512  1.9589
    5CHTO   O31 1959   5.928   3.437   2.834  0.3404  0.6606  0.0675
    5CHTO   H68 1960   5.939   3.352   2.796 -1.7376  0.8269 -0.9881
    5CHTO   C39 1961   5.875   3.509   3.074  0.3019  0.1979  0.4052
    5CHTO   H81 1962   5.880   3.615   3.049  0.5863  0.0494 -0.2026
    5CHTO    N7 1963   5.726   3.485   3.067 -0.2078  0.2710  0.3854
    5CHTO   H73 1964   5.677   3.570   3.112  0.7560  0.4923  1.0227
    5CHTO   H74 1965   5.705   3.391   3.116 -0.8948 -0.9187 -2.0770
    5CHTO   C40 1966   5.936   3.493   3.215  0.1370 -0.0158 -0.4736
    5CHTO   H82 1967   5.923   3.387   3.234  0.0681  0.5700  2.9717
    5CHTO   O26 1968   6.069   3.530   3.211 -0.0241 -0.3736 -0.3448
    5CHTO   C41 1969   6.150   3.436   3.138  0.7033  0.1784  0.2316
    5CHTO   H83 1970   6.133   3.335   3.179  0.4279  0.6273  1.2406
    5CHTO   C52 1971   6.308   3.458   3.151 -0.3323  0.3162  0.1212
    5CHTO   O35 1972   6.352   3.597   3.122  0.6993  0.2934  0.0477
    5CHTO   H71 1973   6.431   3.624   3.165  0.5401  0.9062 -0.0417
    5CHTO   O28 1974   5.876   3.570   3.323 -0.1052  0.2323 -0.1107
    5CHTO   C42 1975   5.864   3.520   3.459  0.0759 -0.4223 -0.2082
    5CHTO   H84 1976   5.809   3.601   3.506  0.9585 -0.0554  0.2060
    5CHTO   C44 1977   5.995   3.497   3.544 -0.9021 -0.3512  0.8761
    5CHTO   H86 1978   6.056   3.431   3.483  1.0328  0.6338  1.7038
    5CHTO   O32 1979   6.066   3.620   3.556 -0.2987  0.3351 -0.8271
    5CHTO   H69 1980   6.137   3.637   3.496 -0.2006 -0.0122 -0.8116
    5CHTO   C48 1981   5.977   3.426   3.680  0.3779  0.1854 -0.3309
    5CHTO   H90 1982   5.907   3.476   3.747  2.6927  1.5525  1.1312
    5CHTO    N9 1983   6.109   3.402   3.750 -0.4789 -0.1954  0.4532
    5CHTO   H77 1984   6.128   3.299   3.775 -0.2607 -0.2630  0.0194
    5CHTO   H78 1985   6.125   3.471   3.832 -1.9153  0.5252  0.1517
    5CHTO   C51 1986   5.901   3.294   3.652 -0.2438 -0.1263 -0.0782
    5CHTO   H93 1987   5.957   3.248   3.571 -0.3180  2.5255 -1.7147
    5CHTO   O30 1988   5.775   3.334   3.610  0.3507  0.4066 -0.1365
    5CHTO   C46 1989   5.782   3.387   3.467  0.0773 -0.0532  0.0454
    5CHTO   H88 1990   5.836   3.307   3.417 -0.3328  0.1222 -0.6826
    5CHTO   C53 1991   5.639   3.402   3.416  0.0563 -0.7270 -0.6641
    5CHTO   O72 1992   5.592   3.272   3.376 -0.3819 -0.0571 -0.9218
    5CHTO  H199 1993   5.508   3.271   3.334 -0.5533 -3.1457 -0.6000
    5CHTO   O22 1994   5.873   3.204   3.764  0.5058 -0.5635 -0.1040
    5CHTO   C31 1995   5.857   3.055   3.742  0.4265  0.3969 -0.3416
    5CHTO   H59 1996   5.843   3.015   3.845  1.0023 -2.3193 -1.2932
    5CHTO   C29 1997   5.734   3.027   3.653 -0.0972 -0.0584  0.2421
    5CHTO   H57 1998   5.750   3.099   3.572 -1.7787  1.6957  1.4312
    5CHTO   O21 1999   5.613   3.090   3.706  0.6067  0.5422 -0.3786
    5CHTO   H37 2000   5.547   3.090   3.640 -1.7056  2.3534  1.8080
    5CHTO   C27 2001   5.733   2.873   3.607 -0.1759  0.2918 -0.0414
    5CHTO   H55 2002   5.721   2.813   3.698 -1.3929 -1.3741 -1.2610
    5CHTO    N5 2003   5.623   2.846   3.511 -0.8617 -0.0311 -0.5567
    5CHTO   H43 2004   5.648   2.754   3.460  0.3699 -0.7603  1.3421
    5CHTO   H44 2005   5.598   2.926   3.443  1.1927  0.6224 -0.5806
    5CHTO   C25 2006   5.877   2.826   3.560  0.5147  0.2613  0.9880
    5CHTO   H53 2007   5.909   2.880   3.470 -0.7242  1.8039  1.4726
    5CHTO   O17 2008   5.973   2.852   3.665  0.2679 -0.0199 -0.0650
    5CHTO   C32 2009   5.989   2.993   3.684 -0.1633  0.0280 -0.2002
    5CHTO   H60 2010   6.009   3.047   3.592 -1.9375 -1.3140 -1.4049
    5CHTO   C36 2011   6.101   3.017   3.796  0.5270 -0.4783 -0.2183
    5CHTO   O25 2012   6.237   3.038   3.752  0.2352 -0.6303 -0.7482
    5CHTO   H40 2013   6.257   3.128   3.767  2.4429 -1.0294 -1.1635
    5CHTO   O15 2014   5.887   2.680   3.517  0.9773 -0.2968  0.0671
    5CHTO   C19 2015   5.996   2.585   3.491  0.7474  0.3715  0.3902
    5CHTO   H47 2016   6.081   2.625   3.548  1.1194  1.6978 -1.0614
    5CHTO   C20 2017   5.970   2.439   3.530 -0.0040  0.4232  0.0550
    5CHTO   H48 2018   5.907   2.385   3.458  1.0899 -2.2204  0.9937
    5CHTO   O19 2019   5.912   2.430   3.667  0.3055 -0.4397  0.1645
    5CHTO   H35 2020   5.899   2.340   3.689  0.8543 -0.2705  1.1959
    5CHTO   C21 2021   6.114   2.367   3.518 -0.5614  0.4162  0.1980
    5CHTO   H49 2022   6.182   2.416   3.588 -1.7805 -0.5658  2.0943
    5CHTO    N4 2023   6.108   2.224   3.539  0.0227 -0.0931  0.0123
    5CHTO   H41 2024   6.188   2.156   3.514 -0.9924 -0.2905 -2.9027
    5CHTO   H42 2025   6.011   2.186   3.508 -0.3779  0.8351  0.1062
    5CHTO   C22 2026   6.188   2.400   3.385 -0.0515 -0.5474  0.0657
    5CHTO   H50 2027   6.146   2.341   3.304 -1.1523  1.3562 -0.7961
    5CHTO   O14 2028   6.174   2.536   3.339 -0.1081  0.1512 -0.0678
    5CHTO   C23 2029   6.037   2.590   3.343  0.1625  0.3856  0.3244
    5CHTO   H51 2030   5.973   2.527   3.280 -0.7837  0.5311  1.1362
    5CHTO   C34 2031   6.048   2.731   3.275 -0.0468  0.7582  0.0483
    5CHTO   O23 2032   6.075   2.720   3.130  0.1802 -0.1897 -0.5864
    5CHTO   H38 2033   6.145   2.777   3.103  0.0788  0.1086 -0.2314
    5CHTO   O16 2034   6.331   2.364   3.387 -0.0795 -0.0924  0.5230
    5CHTO   C24 2035   6.395   2.333   3.284  0.1883  0.5393 -0.2080
    5CHTO   H52 2036   6.332   2.336   3.195 -0.1878  0.4093  0.0554
    5CHTO   C26 2037   6.447   2.185   3.299  0.0278 -0.4913  0.1827
    5CHTO   H54 2038   6.487   2.164   3.400 -2.1204 -2.8431  0.5732
    5CHTO   O20 2039   6.331   2.096   3.298 -0.5593  0.0800  0.4086
    5CHTO   H36 2040   6.350   2.007   3.320 -1.2924 -0.2566 -0.2932
    5CHTO   C30 2041   6.563   2.149   3.201 -0.1570 -0.3882 -0.6958
    5CHTO   H58 2042   6.524   2.159   3.099  1.6370 -0.9208 -1.4437
    5CHTO    N6 2043   6.617   2.011   3.224  0.2518 -0.3497  0.0288
    5CHTO   H45 2044   6.674   2.009   3.316  1.0645  0.0020 -0.4592
    5CHTO   H46 2045   6.685   1.978   3.147  0.9142  0.2456  0.3439
    5CHTO   C33 2046   6.674   2.260   3.211 -0.2852 -0.3293 -0.1691
    5CHTO   H61 2047   6.718   2.266   3.311 -1.6871 -3.9695  0.7587
    5CHTO   O18 2048   6.607   2.386   3.183 -1.7459 -0.2530  0.4249
    5CHTO   C28 2049   6.506   2.439   3.269  0.3379 -0.3874  0.8617
    5CHTO   H56 2050   6.557   2.463   3.362  0.8321 -0.8507  0.7109
    5CHTO   C35 2051   6.457   2.571   3.205  0.5158 -0.3530 -0.8062
    5CHTO   O24 2052   6.554   2.676   3.191  0.0463  0.0017 -0.0421
    5CHTO   H39 2053   6.520   2.758   3.159 -2.9694 -1.0843  0.2318
    5CHTO    O9 2054   6.783   2.239   3.119 -0.9397 -0.1850 -0.0928
    5CHTO   C13 2055   6.756   2.228   2.960  0.0952  0.3627  0.3313
    5CHTO   H26 2056   6.648   2.217   2.937  0.6888  0.5840 -2.8995
    5CHTO   C11 2057   6.836   2.101   2.912 -0.7803  0.4163  0.4099
    5CHTO   H24 2058   6.783   2.010   2.944 -0.8768 -1.2147 -3.9854
    5CHTO    O8 2059   6.969   2.109   2.974  0.2159  0.3813 -0.1087
    5CHTO    H3 2060   6.957   2.127   3.065 -0.7929  0.5629 -0.2751
    5CHTO    C9 2061   6.838   2.100   2.757 -0.1659  0.5169 -0.0222
    5CHTO   H22 2062   6.733   2.108   2.725 -0.3914 -0.9922  0.2757
    5CHTO    N2 2063   6.872   1.963   2.707 -0.3850 -0.7072  0.1679
    5CHTO   H10 2064   6.874   1.900   2.795  0.3977 -0.7650  0.1095
    5CHTO   H11 2065   6.806   1.923   2.632  0.0918  0.5295 -0.9250
    5CHTO    C7 2066   6.904   2.213   2.691 -0.2537  0.4448  0.0814
    5CHTO   H20 2067   6.862   2.211   2.589  1.4680  0.8699 -0.6633
    5CHTO    O4 2068   6.859   2.336   2.745 -0.0006  0.1225  0.2331
    5CHTO   C14 2069   6.812   2.357   2.880 -0.2447  0.0859 -0.0855
    5CHTO   H27 2070   6.727   2.427   2.871  0.6877  1.1134 -1.1379
    5CHTO   C18 2071   6.927   2.431   2.960  0.8428 -0.4504 -0.5675
    5CHTO   O13 2072   6.956   2.553   2.890  0.5236  0.2702  0.6214
    5CHTO    H7 2073   7.003   2.608   2.949  1.5567  0.4046 -0.3007
    5CHTO    O2 2074   7.063   2.211   2.693 -0.1698 -0.5294 -0.2473
    5CHTO    C1 2075   7.125   2.273   2.576  0.5778  0.3621 -0.3278
    5CHTO   H14 2076   7.063   2.361   2.551  1.7987  1.2836 -0.1610
    5CHTO    C2 2077   7.144   2.185   2.441 -0.1232 -0.2446 -0.1848
    5CHTO   H15 2078   7.182   2.090   2.481  2.4353  0.3636 -1.0801
    5CHTO    O6 2079   7.013   2.175   2.382 -0.1026 -0.0266 -0.0714
    5CHTO    H1 2080   6.983   2.089   2.361  0.2385 -0.2121  0.1919
    5CHTO    C3 2081   7.240   2.247   2.328  0.5558 -0.9223 -0.0299
    5CHTO   H16 2082   7.195   2.335   2.279  1.4123  0.0805  0.9520
    5CHTO    N1 2083   7.270   2.154   2.215 -0.5130  0.3131  0.4218
    5CHTO    H8 2084   7.345   2.084   2.251  0.4995  1.2569  0.1759
    5CHTO    H9 2085   7.194   2.078   2.204  0.8903 -1.0851  0.0338
    5CHTO    C4 2086   7.364   2.307   2.391  0.3245 -0.2631 -0.6809
    5CHTO   H17 2087   7.416   2.228   2.445 -1.0254 -0.8923 -0.2795
    5CHTO    O1 2088   7.331   2.400   2.500 -0.3733 -0.2290 -0.2879
    5CHTO    C5 2089   7.265   2.333   2.615  0.3927  0.2869 -0.3528
    5CHTO   H18 2090   7.321   2.240   2.626 -0.2381 -0.0129  0.3471
    5CHTO   C16 2091   7.268   2.412   2.754  0.0875 -0.9465 -0.1231
    5CHTO   O11 2092   7.408   2.415   2.807  1.1069  0.1062 -0.5587
    5CHTO    H5 2093   7.452   2.494   2.781 -0.1448  0.6103 -1.1719
    5CHTO    O3 2094   7.445   2.383   2.299 -0.0216 -0.7107  0.7675
    5CHTO    C6 2095   7.588   2.387   2.329  0.1528  0.1129 -0.4488
    5CHTO   H19 2096   7.614   2.338   2.422 -2.6321 -1.8021 -0.6179
    5CHTO    C8 2097   7.659   2.325   2.197 -0.0374 -0.2970  0.0174
    5CHTO   H21 2098   7.614   2.372   2.110 -0.7496  0.0997  0.5889
    5CHTO    O7 2099   7.621   2.185   2.202 -0.5066 -0.6054 -0.2042
    5CHTO    H2 2100   7.616   2.149   2.115 -1.7486  1.0426 -0.8467
    5CHTO   C12 2101   7.812   2.356   2.194 -0.4831 -0.1921  0.0458
    5CHTO   H25 2102   7.864   2.295   2.271  0.0677 -0.3170 -0.4231
    5CHTO    N3 2103   7.874   2.323   2.056 -0.1244 -0.0336 -0.4292
    5CHTO   H12 2104   7.981   2.336   2.044 -0.2320 -0.1381 -1.6161
    5CHTO   H13 2105   7.824   2.394   1.992  0.4214  1.2401  0.5607
    5CHTO   C15 2106   7.836   2.508   2.231 -0.7280 -0.3231 -0.7463
    5CHTO   H28 2107   7.795   2.579   2.160  0.5872  1.5114  0.3064
    5CHTO   O10 2108   8.003   2.537   2.259 -0.2116 -0.1649 -0.2952
    5CHTO    H4 2109   8.044   2.465   2.303  0.3024 -0.9918 -2.0787
    5CHTO    O5 2110   7.771   2.536   2.350 -0.4575  0.0340  0.3654
    5CHTO   C10 2111   7.629   2.533   2.342  0.2332  0.2744 -0.6281
    5CHTO   H23 2112   7.589   2.591   2.259 -1.1754 -0.7444 -0.6782
    5CHTO   C17 2113   7.560   2.595   2.467 -0.3615 -0.0685  0.1073
    5CHTO   O12 2114   7.460   2.690   2.436  0.0145  0.3267 -0.3483
    5CHTO    H6 2115   7.481   2.776   2.467 -0.8129  1.0770 -1.8481
    6CHTO  H203 2116   7.593   4.795   0.715 -0.6179  0.5721  0.7306
    6CHTO   O82 2117   7.514   4.778   0.667  0.0839 -0.3942 -0.0977
    6CHTO  C123 2118   7.420   4.888   0.653  0.3103 -0.0922  0.2559
    6CHTO  H227 2119   7.454   4.957   0.575 -0.2285  0.3615  0.4137
    6CHTO   O77 2120   7.296   4.822   0.599  0.4056 -0.4038 -0.4689
    6CHTO  C118 2121   7.184   4.904   0.577  0.5200  0.2616  0.2660
    6CHTO  H222 2122   7.229   4.977   0.509  0.9208  0.1840  0.4494
    6CHTO  C125 2123   7.063   4.837   0.507 -0.2574 -0.3383  0.2022
    6CHTO   O84 2124   7.099   4.789   0.379 -0.3371 -0.0887 -0.6514
    6CHTO  H205 2125   7.076   4.846   0.308 -0.3065  1.7426  0.7937
    6CHTO  C114 2126   7.145   4.957   0.710  0.0996 -0.4825 -0.3195
    6CHTO  H218 2127   7.130   4.875   0.781  0.7839 -1.8845 -1.7687
    6CHTO  C116 2128   7.256   5.048   0.771 -0.3443  0.0221 -0.1938
    6CHTO  H220 2129   7.267   5.139   0.709 -0.0478 -0.3106 -0.6362
    6CHTO   O79 2130   7.217   5.104   0.901 -0.7562  0.6994 -0.3525
    6CHTO  H201 2131   7.165   5.048   0.955  0.5644  0.4938  0.7572
    6CHTO  C120 2132   7.389   4.968   0.782 -0.8987 -0.6966  0.1487
    6CHTO  H224 2133   7.369   4.893   0.862 -0.3647  0.2676  1.1892
    6CHTO   N21 2134   7.492   5.053   0.831  0.5674  0.1124  0.6973
    6CHTO  H211 2135   7.530   5.109   0.747  0.4771  0.5159  0.9214
    6CHTO  H212 2136   7.570   4.996   0.878  0.2164 -0.8310  0.1519
    6CHTO   O75 2137   7.019   5.033   0.696  0.0112 -0.1458 -0.1995
    6CHTO  C112 2138   6.909   5.008   0.815  0.5909  0.2526 -0.5995
    6CHTO  H216 2139   6.955   5.030   0.912  1.9354 -2.6350 -0.5283
    6CHTO   O73 2140   6.874   4.867   0.808  0.1773 -0.8155  0.2871
    6CHTO  C113 2141   6.766   4.816   0.883  0.0203 -0.4575  0.1564
    6CHTO  H217 2142   6.802   4.808   0.988  2.0637  0.3771 -0.4531
    6CHTO  C124 2143   6.754   4.665   0.847  0.2528  0.3288  0.3474
    6CHTO   O83 2144   6.645   4.600   0.919 -0.1391  0.6281  0.2257
    6CHTO  H204 2145   6.648   4.609   1.013  0.4475  2.0346  0.0890
    6CHTO  C109 2146   6.624   4.888   0.857  0.0369  0.2270  0.3450
    6CHTO  H213 2147   6.593   4.867   0.754  1.3420 -0.7176  0.1421
    6CHTO  C110 2148   6.653   5.044   0.874 -0.4226  0.3947 -0.2751
    6CHTO  H214 2149   6.680   5.063   0.978  0.3704 -2.1386  0.0178
    6CHTO   O78 2150   6.530   5.110   0.843  0.1537  0.1128 -0.1087
    6CHTO  H200 2151   6.542   5.203   0.850 -0.7190  0.2471 -0.3208
    6CHTO  C111 2152   6.774   5.095   0.787  0.4861  0.5633  0.3805
    6CHTO  H215 2153   6.750   5.081   0.680  2.6540 -1.4045  0.0999
    6CHTO   N19 2154   6.811   5.237   0.801 -0.0294 -0.5866 -0.1919
    6CHTO  H207 2155   6.740   5.290   0.863 -0.5992 -1.9006  0.3016
    6CHTO  H208 2156   6.805   5.273   0.699  0.4347  1.3281  0.4351
    6CHTO   O74 2157   6.513   4.841   0.947 -0.2594  0.0621  0.0953
    6CHTO  C115 2158   6.510   4.892   1.112 -0.0182 -0.5022 -0.4360
    6CHTO  H219 2159   6.612   4.908   1.148  0.1586 -2.3328 -0.0691
    6CHTO   O76 2160   6.438   5.027   1.129  0.7574 -0.4072 -0.4131
    6CHTO  C122 2161   6.304   5.014   1.073 -0.1574 -0.1630 -0.7692
    6CHTO  H226 2162   6.315   5.017   0.964  0.6506 -1.5383 -0.7418
    6CHTO  C126 2163   6.215   5.129   1.109 -0.3414  0.6735  0.1641
    6CHTO   O85 2164   6.298   5.240   1.101 -0.5754 -0.2820  0.0124
    6CHTO  H206 2165   6.254   5.320   1.120  1.4605  0.4794  1.7190
    6CHTO  C121 2166   6.221   4.878   1.110  0.2666 -0.6891 -0.7461
    6CHTO  H225 2167   6.120   4.912   1.141  0.9018  0.7285 -0.1967
    6CHTO   O81 2168   6.216   4.783   1.001 -0.3260 -0.0189  0.3571
    6CHTO  H202 2169   6.226   4.834   0.923  2.8724 -2.5054 -0.9349
    6CHTO  C119 2170   6.290   4.802   1.226 -0.5649 -0.6789  0.5286
    6CHTO  H223 2171   6.291   4.876   1.305 -0.6659 -0.3846  0.2556
    6CHTO  C117 2172   6.443   4.782   1.193  0.4502 -0.1905  0.8236
    6CHTO  H221 2173   6.469   4.695   1.132 -0.0845 -1.9165  2.9853
    6CHTO   N20 2174   6.509   4.750   1.321  0.5786 -0.3910 -0.2874
    6CHTO  H209 2175   6.615   4.769   1.317  0.1078  2.9425  1.4145
    6CHTO  H210 2176   6.463   4.795   1.408 -0.9558  2.1104 -2.3497
    6CHTO   O80 2177   6.214   4.685   1.289  0.0620  0.0562 -0.1999
    6CHTO  C103 2178   6.104   4.711   1.407  0.3160  0.3535 -0.0277
    6CHTO  H190 2179   6.154   4.711   1.504 -1.5577 -1.1404  0.9521
    6CHTO  C101 2180   5.993   4.826   1.393 -0.2746 -0.5947  0.9391
    6CHTO  H188 2181   5.936   4.820   1.300 -0.6114  0.6793  1.0464
    6CHTO   O68 2182   6.075   4.967   1.403 -0.3967  0.7284  0.1399
    6CHTO  H168 2183   6.112   4.980   1.317  0.2860 -0.6907  0.1965
    6CHTO   C99 2184   5.894   4.809   1.517  0.0097 -0.0905  0.6578
    6CHTO  H186 2185   5.961   4.811   1.605  1.6635 -0.1620 -0.5807
    6CHTO   N17 2186   5.803   4.933   1.534  0.2030 -0.0775 -0.1282
    6CHTO  H174 2187   5.733   4.927   1.616  0.7338 -0.1289  0.3271
    6CHTO  H175 2188   5.754   4.958   1.441  0.6665  1.3230 -0.0022
    6CHTO   C97 2189   5.825   4.672   1.506  0.4888 -0.7823 -0.5839
    6CHTO  H184 2190   5.765   4.684   1.415  0.8467  1.2760 -0.5647
    6CHTO   O64 2191   5.923   4.563   1.491 -0.1208  0.3204  0.3597
    6CHTO  C104 2192   6.026   4.574   1.392 -0.1475 -0.1325 -0.3256
    6CHTO  H191 2193   5.981   4.574   1.293  0.7076 -1.2736 -0.7259
    6CHTO  C108 2194   6.120   4.449   1.400  0.6340  1.0301  0.1018
    6CHTO   O71 2195   6.199   4.437   1.521 -0.5176  0.4367  0.4670
    6CHTO  H171 2196   6.268   4.373   1.519 -2.0531 -1.2873  0.8603
    6CHTO   O62 2197   5.742   4.639   1.622  0.1974  0.4032 -0.0663
    6CHTO   C91 2198   5.623   4.562   1.588 -0.3388 -0.6635  0.1063
    6CHTO  H178 2199   5.552   4.635   1.549 -0.5167  0.4205  2.3466
    6CHTO   C92 2200   5.562   4.505   1.721  0.7187  0.2136 -0.2329
    6CHTO  H179 2201   5.570   4.583   1.798  0.9483 -0.6156  0.5811
    6CHTO   O66 2202   5.423   4.476   1.698  0.1407 -0.3444  0.1408
    6CHTO  H166 2203   5.382   4.536   1.639 -0.7076 -0.6504  0.4121
    6CHTO   C93 2204   5.636   4.376   1.761 -0.7394 -0.2557 -0.8759
    6CHTO  H180 2205   5.569   4.312   1.820 -0.4660 -0.6241 -0.9639
    6CHTO   N16 2206   5.751   4.402   1.855 -0.4493 -0.7005  0.1161
    6CHTO  H172 2207   5.834   4.450   1.806 -0.3418  0.6704  1.5949
    6CHTO  H173 2208   5.772   4.308   1.902 -1.9219 -0.8693  0.4822
    6CHTO   C94 2209   5.689   4.297   1.641 -0.3757  0.1520 -0.1040
    6CHTO  H181 2210   5.789   4.331   1.613 -0.2886  0.0638  0.0949
    6CHTO   O61 2211   5.609   4.322   1.519  0.0164  0.3050  0.0548
    6CHTO   C95 2212   5.633   4.454   1.471 -0.1528 -0.4005  0.0418
    6CHTO  H182 2213   5.731   4.457   1.424 -0.6106 -2.9844 -1.1523
    6CHTO  C106 2214   5.522   4.473   1.349 -0.6099  0.2722 -0.1811
    6CHTO   O69 2215   5.550   4.598   1.290 -0.1119  0.3534 -0.0845
    6CHTO  H169 2216   5.481   4.661   1.288  0.5693  1.0713 -1.6484
    6CHTO   O63 2217   5.682   4.151   1.678 -0.5475  0.0088 -0.3089
    6CHTO   C96 2218   5.759   4.043   1.578  0.1395  1.1231 -0.3233
    6CHTO  H183 2219   5.822   4.105   1.514 -0.3360  1.2493 -0.6795
    6CHTO   C98 2220   5.666   3.952   1.494 -0.4936  0.4350  0.0504
    6CHTO  H185 2221   5.605   3.891   1.562  0.0632  0.0106  0.1739
    6CHTO   O67 2222   5.580   4.034   1.410 -0.2930  0.3236 -0.0300
    6CHTO  H167 2223   5.633   4.087   1.353  0.6179 -1.3369 -0.7413
    6CHTO  C102 2224   5.756   3.854   1.405 -0.1880 -0.1817  0.7859
    6CHTO  H189 2225   5.803   3.917   1.328  0.7345 -0.2048  1.3212
    6CHTO   N18 2226   5.690   3.747   1.331 -0.3131 -0.0991  0.1995
    6CHTO  H176 2227   5.694   3.770   1.225  0.7306  0.1659  0.2874
    6CHTO  H177 2228   5.594   3.723   1.374 -0.5642 -1.8934 -1.3041
    6CHTO  C105 2229   5.885   3.801   1.474 -0.1280  0.1324  0.7610
    6CHTO  H192 2230   5.897   3.697   1.444 -2.4126 -0.4439  1.7516
    6CHTO   O65 2231   5.876   3.813   1.617 -0.1837  0.1161 -0.1100
    6CHTO  C100 2232   5.849   3.949   1.673 -0.0179 -0.7961 -0.4484
    6CHTO  H187 2233   5.798   3.929   1.768 -0.2605 -1.6732 -0.7658
    6CHTO  C107 2234   5.980   4.002   1.727 -0.1065  0.6163 -0.2041
    6CHTO   O70 2235   5.954   4.127   1.802 -0.1589  0.0134 -0.8678
    6CHTO  H170 2236   5.913   4.102   1.882  2.2292 -1.6984 -0.1373
    6CHTO   O57 2237   6.018   3.895   1.406 -0.1881 -0.0527  0.2146
    6CHTO   C85 2238   6.119   3.818   1.337  0.3942 -0.1476  0.5008
    6CHTO  H157 2239   6.071   3.737   1.279 -0.3291  1.4288 -1.1588
    6CHTO   C83 2240   6.197   3.735   1.441 -0.0188  0.0986 -0.3569
    6CHTO  H155 2241   6.133   3.659   1.486 -1.3811  0.9059 -0.9032
    6CHTO   O56 2242   6.225   3.816   1.556  0.5609  0.0809 -0.1776
    6CHTO  H135 2243   6.244   3.765   1.632  1.2871  1.4323  0.5854
    6CHTO   C81 2244   6.314   3.668   1.372  0.3591  0.3447  0.4560
    6CHTO  H153 2245   6.269   3.617   1.286  0.0226  0.5906  0.4853
    6CHTO   N14 2246   6.378   3.565   1.456 -0.3202  0.0944 -0.5129
    6CHTO  H141 2247   6.484   3.581   1.448 -0.2489 -1.0095 -1.8751
    6CHTO  H142 2248   6.352   3.581   1.558 -0.5103 -0.5611 -0.4593
    6CHTO   C79 2249   6.408   3.778   1.314  0.0309  0.2953 -0.1448
    6CHTO  H151 2250   6.495   3.732   1.267  0.9840  0.4588  1.4290
    6CHTO   O52 2251   6.338   3.845   1.206 -0.3591  0.2988  0.1228
    6CHTO   C86 2252   6.215   3.906   1.246  0.7535 -0.5359  0.2752
    6CHTO  H158 2253   6.242   3.996   1.306 -0.3744 -1.0792  1.6110
    6CHTO   C90 2254   6.138   3.956   1.131  0.0171 -0.3121 -0.1937
    6CHTO   O60 2255   6.030   4.041   1.173 -0.0577  0.2045  0.2657
    6CHTO  H138 2256   5.996   4.012   1.255  0.7389  0.6742  0.7619
    6CHTO   O50 2257   6.457   3.865   1.415  0.1190  0.2554 -0.4744
    6CHTO   C73 2258   6.577   3.855   1.489  0.1044 -0.1234 -0.4016
    6CHTO  H145 2259   6.626   3.756   1.486 -0.4371 -0.5786  3.5392
    6CHTO   C74 2260   6.548   3.876   1.633  0.0896  0.4237  0.2479
    6CHTO  H146 2261   6.474   3.797   1.655  0.7332  0.1422  1.4309
    6CHTO   O54 2262   6.659   3.844   1.717 -0.0492  0.3592 -0.1340
    6CHTO  H133 2263   6.636   3.850   1.808  0.6699 -1.9077  0.2099
    6CHTO   C75 2264   6.488   4.020   1.654  0.4769 -0.2215  0.4000
    6CHTO  H147 2265   6.395   4.025   1.596  0.2338  3.5895  1.0249
    6CHTO   N13 2266   6.445   4.045   1.793 -0.0352  0.0088  0.0307
    6CHTO  H139 2267   6.357   3.991   1.827 -1.0854  0.5538 -1.7542
    6CHTO  H140 2268   6.431   4.151   1.811  0.1393 -0.1744  1.3092
    6CHTO   C76 2269   6.587   4.132   1.593  0.3880  0.3857  0.2677
    6CHTO  H148 2270   6.679   4.116   1.650  0.2422 -3.2007 -0.3679
    6CHTO   O49 2271   6.621   4.089   1.457 -0.4674  0.4747  0.1608
    6CHTO   C77 2272   6.682   3.962   1.441  0.3127 -0.1785 -0.3595
    6CHTO  H149 2273   6.773   3.954   1.499  2.6893 -0.8731 -3.9745
    6CHTO   C88 2274   6.720   3.949   1.297 -0.1138 -0.3706 -0.1766
    6CHTO   O58 2275   6.828   3.860   1.273  0.2941 -0.2534  0.9085
    6CHTO  H136 2276   6.912   3.889   1.303  0.7680 -1.1727  0.4867
    6CHTO   O51 2277   6.538   4.274   1.588  0.4344  0.4162 -0.4610
    6CHTO   C78 2278   6.650   4.378   1.626  0.6990  0.6949 -0.4643
    6CHTO  H150 2279   6.744   4.327   1.655  0.5493 -0.2547 -1.6304
    6CHTO   C80 2280   6.616   4.470   1.745  0.1536  0.4764 -0.6475
    6CHTO  H152 2281   6.508   4.494   1.742  0.2547  0.7905 -2.1676
    6CHTO   O55 2282   6.628   4.390   1.865 -0.3493 -0.1760 -0.1093
    6CHTO  H134 2283   6.619   4.450   1.937 -0.2266  0.6868 -0.8054
    6CHTO   C84 2284   6.709   4.590   1.763  0.0879 -0.4775  1.0757
    6CHTO  H156 2285   6.805   4.542   1.778  1.2110  1.1537 -0.6652
    6CHTO   N15 2286   6.679   4.685   1.866  0.3721  0.2001 -0.2781
    6CHTO  H143 2287   6.756   4.751   1.899  1.6289 -1.6923  0.6303
    6CHTO  H144 2288   6.586   4.737   1.863 -0.6522 -1.5636  0.1714
    6CHTO   C87 2289   6.722   4.665   1.624 -0.4050 -0.1068  1.0633
    6CHTO  H159 2290   6.625   4.694   1.584  0.3630  0.9357 -0.0995
    6CHTO   O53 2291   6.774   4.567   1.523  0.3692 -0.0619  0.1274
    6CHTO   C82 2292   6.679   4.459   1.498 -0.8074 -0.9653 -0.4624
    6CHTO  H154 2293   6.588   4.508   1.464  1.1962  1.3139 -2.7196
    6CHTO   C89 2294   6.734   4.377   1.385 -0.0658  0.5356  0.2996
    6CHTO   O59 2295   6.865   4.308   1.394  0.0521  0.0124 -0.4684
    6CHTO  H137 2296   6.925   4.380   1.398  0.5271 -0.3705 -0.7008
    6CHTO   O45 2297   6.825   4.784   1.636  0.0229  0.2763 -0.4825
    6CHTO   C67 2298   6.950   4.774   1.563 -0.2501  0.5147 -0.6084
    6CHTO  H124 2299   6.990   4.679   1.598 -1.9826  0.4254  1.2106
    6CHTO   C65 2300   6.945   4.776   1.407  0.7314  0.0532  0.7591
    6CHTO  H122 2301   6.838   4.759   1.397  0.8694 -0.1534 -0.4342
    6CHTO   O44 2302   7.027   4.663   1.363  0.3042 -0.2329 -0.5122
    6CHTO  H102 2303   6.993   4.641   1.278 -2.4887  2.5221 -0.1964
    6CHTO   C63 2304   6.978   4.917   1.344 -0.3700  0.3820  0.2006
    6CHTO  H120 2305   6.906   4.992   1.375  1.0459  2.9797 -2.4766
    6CHTO   N11 2306   6.952   4.929   1.194  0.1138 -0.3208  0.3462
    6CHTO  H108 2307   7.040   4.915   1.136  1.3959  0.1423  2.1461
    6CHTO  H109 2308   6.886   4.858   1.149 -0.5922  0.7180 -0.2887
    6CHTO   C61 2309   7.117   4.960   1.399 -0.1898  0.0956  0.4011
    6CHTO  H118 2310   7.115   5.070   1.398 -0.5396  0.0753 -1.5800
    6CHTO   O40 2311   7.158   4.907   1.534 -0.3581 -0.2844 -0.2431
    6CHTO   C68 2312   7.047   4.881   1.624  0.7921 -0.0229  0.5960
    6CHTO  H125 2313   6.994   4.977   1.643 -0.3650 -0.3993 -0.6743
    6CHTO   C72 2314   7.100   4.829   1.758 -0.0539 -0.0184 -0.2685
    6CHTO   O48 2315   7.010   4.836   1.870  0.1154 -0.0626 -0.0250
    6CHTO  H105 2316   7.052   4.816   1.951  1.4713  2.2100 -0.1232
    6CHTO   O38 2317   7.222   4.923   1.306 -0.5837  0.1064 -0.1266
    6CHTO   C55 2318   7.350   4.985   1.320  0.5246 -0.2816 -0.1153
    6CHTO  H112 2319   7.350   5.027   1.422  0.9639  2.6234 -1.2641
    6CHTO   C56 2320   7.380   5.100   1.212 -0.4730  0.2822 -0.2799
    6CHTO  H113 2321   7.373   5.059   1.110 -1.4990  1.3474 -0.6420
    6CHTO   O42 2322   7.284   5.206   1.220 -0.3672  0.7254 -0.2254
    6CHTO  H100 2323   7.204   5.176   1.180 -0.6139  1.0511  0.0224
    6CHTO   C57 2324   7.520   5.157   1.236 -0.2265 -0.0975  0.6913
    6CHTO  H114 2325   7.508   5.206   1.333  0.7899 -0.3206  0.9316
    6CHTO   N10 2326   7.564   5.252   1.131  0.2157 -0.0066  0.4155
    6CHTO  H106 2327   7.645   5.315   1.166  0.8931 -0.3786 -0.4687
    6CHTO  H107 2328   7.485   5.311   1.088 -1.3136 -1.5064  1.1427
    6CHTO   C58 2329   7.622   5.041   1.247  0.1329 -0.2117 -0.4880
    6CHTO  H115 2330   7.645   4.998   1.148 -1.0697 -1.6516 -0.1591
    6CHTO   O37 2331   7.583   4.940   1.335 -0.2364  0.0596 -0.6536
    6CHTO   C59 2332   7.457   4.878   1.306  0.5747 -0.0810  0.3738
    6CHTO  H116 2333   7.464   4.836   1.205 -2.5744  0.1599  0.0269
    6CHTO   C70 2334   7.435   4.767   1.409  0.6078  0.0508 -0.3380
    6CHTO   O46 2335   7.487   4.634   1.371 -0.4545  0.3968 -0.2032
    6CHTO  H103 2336   7.426   4.587   1.318  1.5910  0.4719 -2.7756
    6CHTO   O39 2337   7.750   5.092   1.309 -0.0916 -0.7433 -0.6034
    6CHTO   C60 2338   7.871   5.019   1.284 -0.2446 -0.1965  0.2992
    6CHTO  H117 2339   7.848   4.912   1.288 -0.8247 -0.0843 -0.0937
    6CHTO   C62 2340   7.933   5.050   1.143  0.0330 -0.1385  0.1173
    6CHTO  H119 2341   7.868   5.002   1.067  1.0466 -3.1395  1.0667
    6CHTO   O43 2342   7.924   5.190   1.126  0.1330 -0.4181 -0.5734
    6CHTO  H101 2343   7.854   5.214   1.067 -0.9061 -2.1744 -0.0883
    6CHTO   C66 2344   8.085   4.991   1.147  0.2681  0.5560  0.3240
    6CHTO  H123 2345   8.074   4.885   1.170 -1.7303  0.5194 -0.7088
    6CHTO   N12 2346   8.151   4.983   1.011 -0.5379 -0.0833  0.1993
    6CHTO  H110 2347   8.254   5.015   1.021  0.3366 -2.0560 -1.7880
    6CHTO  H111 2348   8.100   5.031   0.929 -0.6280 -2.3704 -1.1415
    6CHTO   C69 2349   8.167   5.067   1.260  0.4462 -0.6283  0.0766
    6CHTO  H126 2350   8.152   5.175   1.236 -0.8158 -0.8235 -0.0928
    6CHTO   O41 2351   8.117   5.016   1.384 -0.3399  0.1179 -0.5426
    6CHTO   C64 2352   7.966   5.061   1.408  0.6839  0.8184 -0.3671
    6CHTO  H121 2353   7.959   5.170   1.422 -2.3473  0.8085 -1.3016
    6CHTO   C71 2354   7.903   4.993   1.534  0.3626  0.0627 -0.2120
    6CHTO   O47 2355   7.903   4.853   1.529 -0.6005 -0.0113  0.0339
    6CHTO  H104 2356   7.815   4.825   1.512  0.0646 -3.1869  1.4455
    6CHTO   O34 2357   8.325   5.041   1.257 -0.7209 -0.5967  0.6144
    6CHTO   C49 2358   8.439   5.087   1.159  0.5738 -0.1237  0.7106
    6CHTO   H91 2359   8.439   5.040   1.061 -0.9711  0.9164  0.1946
    6CHTO   C47 2360   8.569   5.055   1.233 -0.5711 -0.0102 -0.4586
    6CHTO   H89 2361   8.638   5.054   1.146 -2.3831  0.2844 -1.9327
    6CHTO   O33 2362   8.563   4.918   1.285  0.4810  0.0797 -0.9571
    6CHTO   H70 2363   8.532   4.857   1.221  1.1897  0.5493 -1.7704
    6CHTO   C45 2364   8.604   5.158   1.357  0.0521 -0.0314 -0.1391
    6CHTO   H87 2365   8.580   5.109   1.452 -2.2186  0.5166 -0.3931
    6CHTO    N8 2366   8.743   5.192   1.360 -0.3616 -0.1496  0.1308
    6CHTO   H75 2367   8.764   5.297   1.352 -0.3305 -0.0889  0.9362
    6CHTO   H76 2368   8.784   5.155   1.268  1.8044 -0.0777  1.0342
    6CHTO   C43 2369   8.506   5.288   1.355 -0.1004  0.2474 -0.7971
    6CHTO   H85 2370   8.413   5.267   1.408 -0.3854 -1.7495 -2.0461
    6CHTO   O29 2371   8.484   5.334   1.219 -0.0835  0.4360 -0.7059
    6CHTO   C50 2372   8.416   5.239   1.133  0.8618 -0.3605 -0.3450
    6CHTO   H92 2373   8.307   5.248   1.140  0.9873 -0.1299  1.6056
    6CHTO   C54 2374   8.456   5.275   0.984  0.5420  0.0768 -0.3493
    6CHTO   O36 2375   8.596   5.286   0.959  0.4770 -0.5595 -0.4445
    6CHTO   H72 2376   8.639   5.216   1.004  1.1581  1.2914  1.8846
    6CHTO   O27 2377   8.556   5.389   1.441 -0.0063 -0.9377 -0.3872
    6CHTO   C37 2378   8.650   5.493   1.478 -0.3330  0.3640 -0.3838
    6CHTO   H79 2379   8.751   5.449   1.487  0.3709  2.2859  1.4577
    6CHTO   C38 2380   8.663   5.611   1.380 -0.6337  0.1248  0.5906
    6CHTO   H80 2381   8.563   5.649   1.353 -0.9355 -1.0611 -0.0075
    6CHTO   O31 2382   8.720   5.561   1.264 -0.2066 -0.4547  0.3844
    6CHTO   H68 2383   8.797   5.509   1.278 -1.3838 -2.7188 -1.0871
    6CHTO   C39 2384   8.759   5.726   1.442  0.0963 -0.6896 -0.0090
    6CHTO   H81 2385   8.853   5.676   1.465 -0.1299 -0.4848  1.4340
    6CHTO    N7 2386   8.784   5.845   1.348 -0.1662 -0.6238 -0.3614
    6CHTO   H73 2387   8.698   5.909   1.339 -1.2492 -1.7810  1.5823
    6CHTO   H74 2388   8.869   5.905   1.378  0.1685 -2.0663  1.6746
    6CHTO   C40 2389   8.698   5.768   1.584 -0.0760 -0.7124  0.3842
    6CHTO   H82 2390   8.602   5.820   1.583 -0.9116 -2.0663  3.6266
    6CHTO   O26 2391   8.692   5.644   1.665 -0.0739 -0.1385  0.6508
    6CHTO   C41 2392   8.605   5.537   1.622 -0.4181 -0.1703 -0.5197
    6CHTO   H83 2393   8.499   5.567   1.616 -0.2873  0.3120 -0.4035
    6CHTO   C52 2394   8.606   5.418   1.727 -0.0506 -0.6339  0.3534
    6CHTO   O35 2395   8.544   5.444   1.834 -0.6018 -0.1949  0.3193
    6CHTO   H71 2396   8.458   5.480   1.822 -1.1268 -1.3712  0.5021
    6CHTO   O28 2397   8.793   5.845   1.648 -0.5385  0.1632 -0.2157
    6CHTO   C42 2398   8.761   5.924   1.773  0.3547  0.5537  0.0200
    6CHTO   H84 2399   8.851   5.971   1.812  0.9231 -0.5456  0.0513
    6CHTO   C44 2400   8.708   5.834   1.889 -0.0139 -0.6907 -0.2228
    6CHTO   H86 2401   8.617   5.787   1.855 -0.0688  0.7633 -2.1702
    6CHTO   O32 2402   8.810   5.733   1.899 -1.0994 -0.6136 -0.4093
    6CHTO   H69 2403   8.783   5.652   1.860 -0.9980 -0.1066 -1.5396
    6CHTO   C48 2404   8.686   5.916   2.027  0.0977  0.4894  0.4922
    6CHTO   H90 2405   8.781   5.935   2.076 -1.0535  1.7884  2.2873
    6CHTO    N9 2406   8.625   5.832   2.145  0.2186  0.3783 -0.6390
    6CHTO   H77 2407   8.705   5.766   2.175 -0.6141 -1.2255 -1.9208
    6CHTO   H78 2408   8.605   5.895   2.230 -0.4747 -0.4854 -0.1626
    6CHTO   C51 2409   8.592   6.039   1.997  0.0525 -0.0038 -0.6808
    6CHTO   H93 2410   8.487   6.014   1.987 -0.4113  0.7952  1.6873
    6CHTO   O30 2411   8.637   6.127   1.899  1.0579  0.5679  0.1870
    6CHTO   C46 2412   8.661   6.040   1.742 -0.0878 -0.2071 -0.0247
    6CHTO   H88 2413   8.569   5.990   1.713 -1.3068  2.2875 -0.6398
    6CHTO   C53 2414   8.697   6.143   1.641 -0.1778  0.2818 -0.0874
    6CHTO   O72 2415   8.587   6.234   1.636 -0.4023 -0.4974  0.3813
    6CHTO  H199 2416   8.586   6.291   1.561  1.2743 -0.3941  0.4255
    6CHTO   O22 2417   8.600   6.128   2.109  0.1558 -0.2680  1.3360
    6CHTO   C31 2418   8.499   6.231   2.137 -0.6591  0.0592 -0.0650
    6CHTO   H59 2419   8.529   6.272   2.236  0.3472  0.3724 -0.4920
    6CHTO   C29 2420   8.475   6.352   2.044 -0.7012  0.6417  0.0401
    6CHTO   H57 2421   8.437   6.314   1.948  0.9753 -0.8714 -0.0354
    6CHTO   O21 2422   8.605   6.413   2.027 -0.4253 -0.1889  0.0949
    6CHTO   H37 2423   8.649   6.380   1.950 -1.3612  1.0597 -1.0021
    6CHTO   C27 2424   8.368   6.456   2.102  0.6180 -0.7905 -0.2052
    6CHTO   H55 2425   8.402   6.510   2.191 -1.3515  0.8690 -0.4205
    6CHTO    N5 2426   8.338   6.561   2.005  0.0313  0.4272  0.3296
    6CHTO   H43 2427   8.307   6.515   1.912  0.3640  1.8795 -0.5163
    6CHTO   H44 2428   8.431   6.611   1.981 -1.1958  2.3860 -0.5217
    6CHTO   C25 2429   8.240   6.382   2.137  0.4366  0.8628 -0.1612
    6CHTO   H53 2430   8.186   6.345   2.048  1.0188 -0.4815  0.0365
    6CHTO   O17 2431   8.269   6.267   2.215 -0.6561 -0.1155  0.0108
    6CHTO   C32 2432   8.358   6.170   2.152  0.2693  0.5814  0.3941
    6CHTO   H60 2433   8.318   6.153   2.052  0.9351 -1.8413  0.5206
    6CHTO   C36 2434   8.342   6.041   2.236  0.0455 -0.2034 -0.2262
    6CHTO   O25 2435   8.374   6.065   2.374 -0.0532 -0.2661  0.0106
    6CHTO   H40 2436   8.314   6.013   2.423 -1.3162  0.6813 -0.5192
    6CHTO   O15 2437   8.144   6.470   2.225 -0.4354 -0.2892 -0.0434
    6CHTO   C19 2438   8.034   6.456   2.315 -0.3509 -0.3565 -0.0780
    6CHTO   H47 2439   8.075   6.374   2.376 -0.0301  0.3440  0.6556
    6CHTO   C20 2440   8.006   6.568   2.408 -0.0613  0.2940 -0.3451
    6CHTO   H48 2441   8.023   6.665   2.359  0.9356 -0.5706 -1.7532
    6CHTO   O19 2442   8.115   6.564   2.503 -0.0144  0.1230 -0.6268
    6CHTO   H35 2443   8.098   6.610   2.584  1.1507  0.5785 -0.6359
    6CHTO   C21 2444   7.871   6.559   2.488 -0.1269 -0.1010  0.5448
    6CHTO   H49 2445   7.887   6.492   2.573 -2.0329 -1.0208  0.2051
    6CHTO    N4 2446   7.828   6.692   2.535  0.9186  0.1992 -0.2052
    6CHTO   H41 2447   7.794   6.692   2.638 -0.8027  1.1526 -0.7540
    6CHTO   H42 2448   7.751   6.733   2.472  0.0112 -1.5721 -0.2682
    6CHTO   C22 2449   7.756   6.497   2.411 -0.8118  0.2913 -0.1845
    6CHTO   H50 2450   7.713   6.564   2.337 -2.9633 -1.2109 -0.3585
    6CHTO   O14 2451   7.804   6.372   2.346 -0.2025 -0.4695  0.2719
    6CHTO   C23 2452   7.908   6.401   2.247  0.3411  0.9463 -0.1719
    6CHTO   H51 2453   7.868   6.470   2.172 -2.2648 -1.2657 -0.8619
    6CHTO   C34 2454   7.934   6.278   2.161 -0.3034 -0.7327 -0.2934
    6CHTO   O23 2455   7.840   6.256   2.057 -0.1296  0.4125 -0.0600
    6CHTO   H38 2456   7.815   6.166   2.055  0.5048  0.2249  0.1014
    6CHTO   O16 2457   7.645   6.457   2.497  0.2024  0.9572 -0.2824
    6CHTO   C24 2458   7.500   6.492   2.445 -0.3503  1.1698  0.4603
    6CHTO   H52 2459   7.500   6.530   2.343  1.4029 -1.3931 -0.5479
    6CHTO   C26 2460   7.421   6.590   2.539 -0.3674 -0.4097  0.8078
    6CHTO   H54 2461   7.420   6.549   2.642  0.2114  1.5894  1.6306
    6CHTO   O20 2462   7.506   6.706   2.550  0.3700  0.4276  0.2220
    6CHTO   H36 2463   7.592   6.692   2.583  2.3086  4.5256 -2.6608
    6CHTO   C30 2464   7.276   6.615   2.486 -0.1294  0.1296  0.7160
    6CHTO   H58 2465   7.271   6.659   2.385 -0.9933 -1.7464 -0.0815
    6CHTO    N6 2466   7.198   6.706   2.572 -0.1343  0.4874  0.4751
    6CHTO   H45 2467   7.234   6.807   2.565 -0.4229  0.5237 -0.7152
    6CHTO   H46 2468   7.102   6.706   2.522  0.1728 -0.0330 -0.1388
    6CHTO   C33 2469   7.202   6.476   2.479 -0.7115 -0.0202  0.2527
    6CHTO   H61 2470   7.188   6.425   2.575  0.2129  2.0045  1.4843
    6CHTO   O18 2471   7.279   6.387   2.395 -0.9093 -0.5581 -0.0541
    6CHTO   C28 2472   7.412   6.361   2.448 -0.7447  0.1168  0.1744
    6CHTO   H56 2473   7.408   6.332   2.552 -1.1304  1.7659  0.6351
    6CHTO   C35 2474   7.488   6.256   2.362 -0.7360 -0.0524 -0.3929
    6CHTO   O24 2475   7.427   6.129   2.370 -0.4825  0.0181  0.3708
    6CHTO   H39 2476   7.473   6.068   2.315  1.3931  2.5916 -1.0719
    6CHTO    O9 2477   7.064   6.492   2.423  0.4275  0.2398 -0.5382
    6CHTO   C13 2478   6.948   6.472   2.549 -0.1021  0.2943 -0.2248
    6CHTO   H26 2479   6.996   6.521   2.637  1.0503  1.3890 -1.4519
    6CHTO   C11 2480   6.920   6.313   2.575 -0.4882 -0.1179 -0.1072
    6CHTO   H24 2481   6.998   6.288   2.647 -1.1143  1.2777  1.0873
    6CHTO    O8 2482   6.945   6.236   2.453 -0.0152  0.7882 -0.0858
    6CHTO    H3 2483   7.026   6.189   2.447 -0.7903 -0.5822 -0.1303
    6CHTO    C9 2484   6.778   6.288   2.643  0.0351  0.3181 -0.2704
    6CHTO   H22 2485   6.780   6.347   2.736 -1.7665 -1.5131  0.9504
    6CHTO    N2 2486   6.757   6.152   2.685  0.0871 -0.1307  0.3280
    6CHTO   H10 2487   6.818   6.133   2.772 -0.0843  0.2416  0.5347
    6CHTO   H11 2488   6.655   6.131   2.715  0.4375 -3.6852 -0.7574
    6CHTO    C7 2489   6.675   6.347   2.551  0.4014  0.7421  0.6047
    6CHTO   H20 2490   6.579   6.338   2.605 -0.2666 -1.9975 -0.9392
    6CHTO    O4 2491   6.692   6.491   2.541  0.0295  0.5486 -0.5290
    6CHTO   C14 2492   6.820   6.549   2.506  0.4810 -0.0028  0.2337
    6CHTO   H27 2493   6.826   6.651   2.550  1.7000  0.8438 -1.8603
    6CHTO   C18 2494   6.808   6.574   2.355 -0.1526  0.2405  0.1346
    6CHTO   O13 2495   6.723   6.684   2.328  0.1519  0.1589 -0.0009
    6CHTO    H7 2496   6.631   6.674   2.338  0.5280 -2.4202  1.3789
    6CHTO    O2 2497   6.667   6.279   2.398 -0.2658 -0.3455 -0.1472
    6CHTO    C1 2498   6.543   6.255   2.322 -0.1285  1.0763  0.2758
    6CHTO   H14 2499   6.571   6.194   2.234  1.5445  1.1391  0.7294
    6CHTO    C2 2500   6.477   6.389   2.276  0.0906  0.0502  0.0373
    6CHTO   H15 2501   6.477   6.455   2.363 -1.9836  1.5803 -1.0821
    6CHTO    O6 2502   6.560   6.440   2.175  0.2399 -0.1498  0.5125
    6CHTO    H1 2503   6.525   6.523   2.147 -0.2283  0.2178  2.1181
    6CHTO    C3 2504   6.330   6.357   2.230  0.0127  0.5489 -0.4915
    6CHTO   H16 2505   6.320   6.307   2.132 -0.9054  1.2727 -0.7755
    6CHTO    N1 2506   6.264   6.487   2.206  0.3226 -0.4004  0.3841
    6CHTO    H8 2507   6.250   6.497   2.099  1.9623 -0.6125  0.1360
    6CHTO    H9 2508   6.173   6.502   2.262  0.6997  1.8657  0.4190
    6CHTO    C4 2509   6.247   6.273   2.329 -0.5892  0.2855  0.2068
    6CHTO   H17 2510   6.234   6.322   2.426 -0.8788 -0.4617  0.5524
    6CHTO    O1 2511   6.318   6.153   2.352 -0.6030  0.0797 -0.6117
    6CHTO    C5 2512   6.448   6.170   2.413 -0.5653  0.3974  0.3049
    6CHTO   H18 2513   6.423   6.213   2.510  0.2424 -1.5800  1.4438
    6CHTO   C16 2514   6.515   6.031   2.435 -0.5319 -0.6258 -0.4316
    6CHTO   O11 2515   6.471   5.973   2.559 -0.1783  0.5976 -0.0678
    6CHTO    H5 2516   6.485   6.026   2.635 -4.1784  0.4889  0.8682
    6CHTO    O3 2517   6.118   6.233   2.273  0.4510 -0.3888  0.4710
    6CHTO    C6 2518   6.023   6.192   2.369 -0.0872 -0.4249  0.1493
    6CHTO   H19 2519   6.070   6.186   2.467  3.3977  0.0673 -1.4338
    6CHTO    C8 2520   5.908   6.302   2.373  0.2383 -0.4906  0.2354
    6CHTO   H21 2521   5.881   6.323   2.270  1.4251  0.5307  0.1230
    6CHTO    O7 2522   5.966   6.433   2.406 -0.1161 -0.0728 -0.0399
    6CHTO    H2 2523   5.978   6.481   2.326 -1.3737  1.0908  0.4486
    6CHTO   C12 2524   5.800   6.261   2.482 -0.5350 -0.1594 -0.2836
    6CHTO   H25 2525   5.854   6.240   2.577  0.0946 -0.6115 -0.7377
    6CHTO    N3 2526   5.692   6.362   2.501  0.0969  1.1098  0.1851
    6CHTO   H12 2527   5.626   6.325   2.579  0.8646 -0.2744  0.1988
    6CHTO   H13 2528   5.634   6.394   2.416 -1.7432  2.5032  1.8863
    6CHTO   C15 2529   5.750   6.120   2.437 -0.4356  0.0147  0.2775
    6CHTO   H28 2530   5.699   6.122   2.340 -0.9481 -0.9166  0.5266
    6CHTO   O10 2531   5.664   6.055   2.533 -0.2892  0.1093 -0.2470
    6CHTO    H4 2532   5.631   5.979   2.490 -0.9044  1.0897 -1.5654
    6CHTO    O5 2533   5.858   6.022   2.432  0.2329 -0.2795  0.1055
    6CHTO   C10 2534   5.962   6.050   2.335 -0.1208 -0.3909 -0.0332
    6CHTO   H23 2535   5.925   6.042   2.233 -0.1597  0.1408 -0.0631
    6CHTO   C17 2536   6.071   5.945   2.342  0.0118  0.0600 -0.3446
    6CHTO   O12 2537   6.014   5.814   2.314 -0.5554  0.0414  0.3718
    6CHTO    H6 2538   6.089   5.758   2.304  1.4945  2.8078 -0.4909
    7CHTO  H203 2539   5.009   2.408  -0.323 -0.7037  1.2789  0.1173
    7CHTO   O82 2540   5.066   2.374  -0.257 -0.7510  0.3443 -0.3143
    7CHTO  C123 2541   5.206   2.396  -0.277 -0.1189 -0.1228 -0.0089
    7CHTO  H227 2542   5.219   2.479  -0.348  3.1829  0.6904  1.4748
    7CHTO   O77 2543   5.244   2.428  -0.140  0.5554  0.5350  0.0165
    7CHTO  C118 2544   5.385   2.452  -0.123 -0.0661 -0.0705  0.3741
    7CHTO  H222 2545   5.401   2.539  -0.188 -1.3342  0.4015  0.6794
    7CHTO  C125 2546   5.410   2.489   0.029 -0.0653  0.8196  0.3207
    7CHTO   O84 2547   5.366   2.388   0.118 -0.4684 -0.1685 -0.0813
    7CHTO  H205 2548   5.438   2.341   0.154 -0.4309  1.2868  1.8435
    7CHTO  C114 2549   5.466   2.328  -0.163  0.8377  0.4603 -0.1067
    7CHTO  H218 2550   5.457   2.253  -0.084  1.2292  0.7673  0.2297
    7CHTO  C116 2551   5.433   2.273  -0.304  0.6453  0.6384 -0.4870
    7CHTO  H220 2552   5.469   2.341  -0.384 -1.1704  2.4293  0.1793
    7CHTO   O79 2553   5.496   2.142  -0.321 -0.6529  0.2445 -0.2773
    7CHTO  H201 2554   5.586   2.165  -0.309 -0.5133 -0.4170 -0.0167
    7CHTO  C120 2555   5.278   2.264  -0.324  0.3758 -0.0041 -0.4531
    7CHTO  H224 2556   5.247   2.173  -0.269  2.5351 -1.4849 -1.5966
    7CHTO   N21 2557   5.249   2.233  -0.467  0.5534  0.3516  0.5960
    7CHTO  H211 2558   5.227   2.325  -0.518  1.3083  0.2186  0.0201
    7CHTO  H212 2559   5.163   2.168  -0.472  0.7029  0.2337 -0.8527
    7CHTO   O75 2560   5.593   2.394  -0.152 -0.3170  0.3164  0.2095
    7CHTO  C112 2561   5.719   2.289  -0.156  0.7456 -0.4380 -0.9638
    7CHTO  H216 2562   5.709   2.218  -0.239  1.9024 -2.4710  0.6012
    7CHTO   O73 2563   5.727   2.225  -0.020 -0.1509  0.2476 -0.1352
    7CHTO  C113 2564   5.847   2.145  -0.002  0.2507 -0.4001  0.6171
    7CHTO  H217 2565   5.860   2.069  -0.083  1.0106  0.0695  0.2867
    7CHTO  C124 2566   5.828   2.067   0.125  0.7396  0.0986 -1.0577
    7CHTO   O83 2567   5.734   1.959   0.120  0.3027 -0.0478  0.3234
    7CHTO  H204 2568   5.749   1.882   0.172 -0.5159 -2.1930 -2.4621
    7CHTO  C109 2569   5.978   2.230  -0.004  0.7282 -0.1630  0.0179
    7CHTO  H213 2570   5.965   2.301   0.079 -1.6285 -0.9335  0.3567
    7CHTO  C110 2571   5.977   2.302  -0.147  0.0837 -0.4487  0.0275
    7CHTO  H214 2572   5.992   2.219  -0.217 -0.0108  0.0333 -0.5646
    7CHTO   O78 2573   6.098   2.372  -0.151  0.3253 -0.0854 -0.4574
    7CHTO  H200 2574   6.079   2.461  -0.126  0.3199  0.2599 -1.6607
    7CHTO  C111 2575   5.847   2.383  -0.177 -0.2106 -0.0154 -0.0842
    7CHTO  H215 2576   5.845   2.471  -0.112  1.5725 -0.9726  1.3167
    7CHTO   N19 2577   5.855   2.441  -0.314 -0.3594  0.0662 -0.2134
    7CHTO  H207 2578   5.946   2.432  -0.372  0.0412  3.2981 -0.1340
    7CHTO  H208 2579   5.783   2.395  -0.380  0.6583 -2.5054  0.3964
    7CHTO   O74 2580   6.094   2.152   0.026 -0.4965  0.1042  0.2883
    7CHTO  C115 2581   6.212   2.225   0.093 -0.1620 -0.0547 -0.0900
    7CHTO  H219 2582   6.236   2.316   0.038 -0.3210 -0.2734 -0.5250
    7CHTO   O76 2583   6.165   2.284   0.240  0.1111 -0.0059 -0.0805
    7CHTO  C122 2584   6.159   2.175   0.333 -0.4578  0.0291 -0.3331
    7CHTO  H226 2585   6.082   2.105   0.301 -0.4803 -1.3003  2.4418
    7CHTO  C126 2586   6.111   2.217   0.480  0.3560 -0.0849  0.1893
    7CHTO   O85 2587   5.974   2.223   0.491 -0.3352  0.8527  0.5448
    7CHTO  H206 2588   5.950   2.268   0.570  0.0864  1.0456  0.5662
    7CHTO  C121 2589   6.302   2.105   0.336 -0.4856 -0.0850 -0.6426
    7CHTO  H225 2590   6.377   2.183   0.360  0.2158 -0.6901 -0.8607
    7CHTO   O81 2591   6.291   2.002   0.438  0.0472 -0.0122 -0.0076
    7CHTO  H202 2592   6.230   1.936   0.412  0.8739 -0.5558 -0.5697
    7CHTO  C119 2593   6.335   2.041   0.197  0.1753  0.0925 -0.2381
    7CHTO  H223 2594   6.426   1.986   0.217 -0.1681 -0.7882 -1.0650
    7CHTO  C117 2595   6.348   2.143   0.088 -0.0564 -0.7305  0.9988
    7CHTO  H221 2596   6.350   2.107  -0.015 -0.0824  0.6699  0.4964
    7CHTO   N20 2597   6.475   2.229   0.098  0.1136 -0.5162 -0.0315
    7CHTO  H209 2598   6.526   2.223   0.193 -0.4867  0.9435  0.4006
    7CHTO  H210 2599   6.544   2.224   0.016  1.0428 -1.1933  0.7840
    7CHTO   O80 2600   6.239   1.926   0.150 -0.7394 -0.3038  0.1523
    7CHTO  C103 2601   6.285   1.819   0.034  0.1664 -0.0255  0.0025
    7CHTO  H190 2602   6.309   1.874  -0.057  0.0087  0.3266  0.1756
    7CHTO  C101 2603   6.410   1.727   0.060 -0.8819  0.6568 -0.7134
    7CHTO  H188 2604   6.403   1.677   0.157  0.5779 -0.6288 -1.2573
    7CHTO   O68 2605   6.562   1.825   0.061  0.6129  0.1107  0.2695
    7CHTO  H168 2606   6.629   1.770   0.097 -0.8024 -2.7668 -1.3152
    7CHTO   C99 2607   6.425   1.617  -0.061 -0.5930  0.7290  0.6011
    7CHTO  H186 2608   6.454   1.666  -0.156 -0.2556 -2.1733 -0.8506
    7CHTO   N17 2609   6.541   1.523  -0.041  0.8573 -0.8212  0.9873
    7CHTO  H174 2610   6.543   1.438  -0.108  1.4049 -1.3971  1.7270
    7CHTO  H175 2611   6.643   1.558  -0.034  0.3368  1.0929 -0.6792
    7CHTO   C97 2612   6.290   1.540  -0.077 -0.5089 -0.2861 -0.3345
    7CHTO  H184 2613   6.274   1.487   0.018  1.7447  1.4239  1.0473
    7CHTO   O64 2614   6.189   1.637  -0.105 -0.0222  0.0308 -0.0235
    7CHTO  C104 2615   6.161   1.724  -0.002  0.8920 -0.3342 -0.3026
    7CHTO  H191 2616   6.123   1.672   0.087 -0.5968  0.2928 -0.5494
    7CHTO  C108 2617   6.046   1.813  -0.034  0.1422  0.4184  0.7364
    7CHTO   O71 2618   5.922   1.744  -0.033 -0.1538 -0.6513 -0.0364
    7CHTO  H171 2619   5.918   1.677  -0.099 -0.1149 -0.9835  0.2934
    7CHTO   O62 2620   6.280   1.447  -0.190 -0.7076  0.3933  0.2563
    7CHTO   C91 2621   6.186   1.335  -0.195 -0.3498 -0.3582  0.0669
    7CHTO  H178 2622   6.215   1.284  -0.287 -2.1141 -1.3045  0.0314
    7CHTO   C92 2623   6.054   1.407  -0.232 -0.1947 -0.6394  0.5694
    7CHTO  H179 2624   6.039   1.497  -0.172  0.8505  0.0987 -0.2647
    7CHTO   O66 2625   6.067   1.448  -0.367  0.0263 -0.0263 -0.5963
    7CHTO  H166 2626   5.993   1.496  -0.397 -0.7965 -0.6856  0.3400
    7CHTO   C93 2627   5.924   1.318  -0.227 -0.1351  0.0782 -0.7194
    7CHTO  H180 2628   5.943   1.246  -0.308  0.7821 -0.5772  0.0754
    7CHTO   N16 2629   5.792   1.391  -0.252  0.2519 -0.0550 -0.2230
    7CHTO  H172 2630   5.782   1.481  -0.193  2.8194 -0.1890  0.4766
    7CHTO  H173 2631   5.710   1.320  -0.252 -0.1271  0.3726 -1.3385
    7CHTO   C94 2632   5.937   1.243  -0.093  0.5237  0.1407  0.0343
    7CHTO  H181 2633   5.944   1.309  -0.007 -2.2450 -0.7093  0.9611
    7CHTO   O61 2634   6.059   1.166  -0.092 -0.2157  0.3516 -0.2948
    7CHTO   C95 2635   6.176   1.240  -0.072  0.3560 -0.2911 -0.1696
    7CHTO  H182 2636   6.164   1.285   0.027  0.2449 -1.5233  0.3883
    7CHTO  C106 2637   6.302   1.151  -0.066 -0.2983  0.1105  0.2057
    7CHTO   O69 2638   6.334   1.085   0.057 -0.5141  0.7057 -0.1718
    7CHTO  H169 2639   6.402   1.127   0.107 -1.0499  1.6528 -0.2405
    7CHTO   O63 2640   5.811   1.149  -0.059  1.0286 -0.3337 -1.0504
    7CHTO   C96 2641   5.808   1.100   0.087  0.8245  0.2095  0.5052
    7CHTO  H183 2642   5.856   1.176   0.150  1.3067  2.0009 -1.9340
    7CHTO   C98 2643   5.879   0.959   0.116  0.4609 -0.2742  0.2583
    7CHTO  H185 2644   5.877   0.907   0.019  0.6077  1.1975 -0.5619
    7CHTO   O67 2645   6.019   0.980   0.132 -0.4858  0.7017  0.1411
    7CHTO  H167 2646   6.067   0.903   0.158 -2.3336 -0.8045 -0.7770
    7CHTO  C102 2647   5.813   0.877   0.237 -0.2955  0.2623 -0.2005
    7CHTO  H189 2648   5.853   0.911   0.333  0.2175  0.4203 -0.4714
    7CHTO   N18 2649   5.849   0.729   0.234  0.2601  0.2433  0.1881
    7CHTO  H176 2650   5.957   0.718   0.229  0.2498  0.7379 -1.1589
    7CHTO  H177 2651   5.801   0.676   0.153  1.5657 -2.6760  1.2170
    7CHTO  C105 2652   5.658   0.903   0.251  0.1705  0.7801 -0.2708
    7CHTO  H192 2653   5.612   0.855   0.165  2.3940  0.2859 -1.2400
    7CHTO   O65 2654   5.619   1.039   0.240  0.0345  0.2316 -0.0757
    7CHTO  C100 2655   5.649   1.091   0.113 -0.2949 -0.1992 -0.2405
    7CHTO  H187 2656   5.584   1.050   0.034 -1.0290  0.9104 -0.2238
    7CHTO  C107 2657   5.593   1.238   0.113  0.4683  0.8630  0.3820
    7CHTO   O70 2658   5.461   1.248   0.173  0.3602  0.2468 -0.2639
    7CHTO  H170 2659   5.426   1.335   0.178  1.8835  0.7581  3.5233
    7CHTO   O57 2660   5.603   0.833   0.366 -0.5635  0.6106  0.0413
    7CHTO   C85 2661   5.571   0.880   0.497  0.7476  0.3950  0.6353
    7CHTO  H157 2662   5.604   0.986   0.503 -0.9238  0.7598  4.5396
    7CHTO   C83 2663   5.658   0.809   0.612 -0.4814  0.0700  0.7144
    7CHTO  H155 2664   5.763   0.829   0.592  0.2049 -3.7996 -0.1063
    7CHTO   O56 2665   5.638   0.671   0.580 -0.0706 -0.2893  0.1944
    7CHTO  H135 2666   5.646   0.666   0.487  0.6148 -1.5945  0.3104
    7CHTO   C81 2667   5.624   0.856   0.756  0.0077  0.6402  0.2495
    7CHTO  H153 2668   5.650   0.962   0.761 -1.8953  1.4157 -3.7899
    7CHTO   N14 2669   5.700   0.794   0.862  1.2566  0.1185  0.0133
    7CHTO  H141 2670   5.689   0.688   0.859 -0.6419  0.3045  0.1671
    7CHTO  H142 2671   5.804   0.820   0.858  0.9313  1.4353 -0.2301
    7CHTO   C79 2672   5.470   0.834   0.778  0.4342  0.0252 -0.3378
    7CHTO  H151 2673   5.439   0.873   0.875  1.2587 -1.9375  0.7388
    7CHTO   O52 2674   5.388   0.909   0.675  0.3119  0.1049  0.1311
    7CHTO   C86 2675   5.419   0.860   0.535 -0.1428  0.0285  0.2926
    7CHTO  H158 2676   5.395   0.751   0.534  1.9736 -0.4694  0.7097
    7CHTO   C90 2677   5.317   0.917   0.428  0.5412 -0.1881 -0.0400
    7CHTO   O60 2678   5.340   1.054   0.391 -0.5051  0.0241  0.5696
    7CHTO  H138 2679   5.276   1.114   0.425 -0.7217  0.4440 -0.5528
    7CHTO   O50 2680   5.434   0.689   0.781 -0.0331  0.1468  0.1222
    7CHTO   C73 2681   5.442   0.550   0.822  0.7267  0.5260  0.0758
    7CHTO  H145 2682   5.550   0.530   0.828  0.9145  1.4427 -0.1480
    7CHTO   C74 2683   5.384   0.463   0.703 -1.0640  0.7216 -0.3294
    7CHTO  H146 2684   5.440   0.480   0.610  0.5366  0.6480  0.5959
    7CHTO   O54 2685   5.408   0.327   0.740  0.1996 -0.5202  0.2204
    7CHTO  H133 2686   5.327   0.290   0.769 -1.2868  0.7631 -2.1453
    7CHTO   C75 2687   5.227   0.494   0.692  0.2443  0.6584  0.2555
    7CHTO  H147 2688   5.220   0.591   0.639  0.7771 -0.9498 -2.8958
    7CHTO   N13 2689   5.146   0.409   0.601 -0.1063 -0.1650  0.0434
    7CHTO  H139 2690   5.040   0.430   0.594 -0.2028 -0.3513  0.9237
    7CHTO  H140 2691   5.150   0.307   0.637  0.9286 -0.3032 -0.4411
    7CHTO   C76 2692   5.155   0.497   0.833  0.2800  0.4851 -0.1334
    7CHTO  H148 2693   5.149   0.396   0.873 -2.8950  1.0469  0.9604
    7CHTO   O49 2694   5.228   0.584   0.925 -0.2960  0.6001  0.3377
    7CHTO   C77 2695   5.356   0.534   0.956  0.4414  0.8978  0.7235
    7CHTO  H149 2696   5.361   0.432   0.994  2.1763  1.2411  1.4477
    7CHTO   C88 2697   5.406   0.614   1.079 -0.0425 -0.1721  0.3243
    7CHTO   O58 2698   5.521   0.588   1.112 -0.2008 -0.6051 -0.3120
    7CHTO  H136 2699   5.546   0.651   1.176 -2.4271  1.4120 -1.3634
    7CHTO   O51 2700   5.004   0.576   0.814 -0.8704  0.3520 -0.1814
    7CHTO   C78 2701   4.941   0.580   0.922 -0.0233 -0.5515 -0.6908
    7CHTO  H150 2702   5.012   0.565   1.006 -0.3037 -0.7402 -0.4866
    7CHTO   C80 2703   4.832   0.464   0.920 -0.7466  0.1506 -0.1157
    7CHTO  H152 2704   4.772   0.478   0.828  1.1069  0.2924 -1.3421
    7CHTO   O55 2705   4.890   0.334   0.889 -0.2782  0.6792 -0.0015
    7CHTO  H134 2706   4.922   0.327   0.801 -2.8562  0.7774 -0.9918
    7CHTO   C84 2707   4.754   0.464   1.058  0.0045  0.7793 -0.1455
    7CHTO  H156 2708   4.820   0.436   1.140 -0.8743  0.9948  0.6428
    7CHTO   N15 2709   4.640   0.367   1.057  0.1119 -0.1837 -0.0519
    7CHTO  H143 2710   4.616   0.351   1.160  1.3195 -0.2418  0.2245
    7CHTO  H144 2711   4.673   0.273   1.018  1.0339  0.3631 -0.6123
    7CHTO   C87 2712   4.697   0.599   1.091 -0.0781  0.4192 -0.8705
    7CHTO  H159 2713   4.619   0.619   1.018 -1.4298  0.9791  0.6799
    7CHTO   O53 2714   4.813   0.702   1.068 -0.0040 -0.6178 -0.0663
    7CHTO   C82 2715   4.869   0.709   0.937 -0.1560  0.1584  0.3347
    7CHTO  H154 2716   4.792   0.714   0.859  0.4493 -0.4032 -0.3122
    7CHTO   C89 2717   4.958   0.836   0.925  0.6910 -0.7576 -0.1106
    7CHTO   O59 2718   4.885   0.956   0.936 -0.3724  0.8609 -0.3327
    7CHTO  H137 2719   4.922   1.023   0.991  1.1404 -0.4012  0.2296
    7CHTO   O45 2720   4.641   0.608   1.266 -0.0938 -0.2017 -0.3279
    7CHTO   C67 2721   4.711   0.712   1.336 -0.0671  0.5521 -0.0416
    7CHTO  H124 2722   4.796   0.751   1.279 -0.7310  0.1556 -1.3271
    7CHTO   C65 2723   4.632   0.835   1.377  0.5827 -0.3169  0.9505
    7CHTO  H122 2724   4.535   0.798   1.410  1.2978 -2.0465  1.1850
    7CHTO   O44 2725   4.626   0.907   1.247 -0.0869 -0.3690  0.5392
    7CHTO  H102 2726   4.570   0.856   1.191 -0.0847 -0.4944  0.6534
    7CHTO   C63 2727   4.684   0.916   1.498  0.1097 -0.2484 -0.2528
    7CHTO  H120 2728   4.631   0.877   1.584 -0.7334  0.6061 -0.3747
    7CHTO   N11 2729   4.649   1.060   1.504  0.3053  0.6347  0.4991
    7CHTO  H108 2730   4.681   1.104   1.596 -2.4262  0.6945  1.4607
    7CHTO  H109 2731   4.682   1.114   1.417  1.2842 -2.3134 -1.0168
    7CHTO   C61 2732   4.835   0.894   1.517 -0.3903 -0.2201 -0.2996
    7CHTO  H118 2733   4.868   0.938   1.612  1.0665 -0.3832 -0.7220
    7CHTO   O40 2734   4.865   0.750   1.520  1.0529 -0.7363 -0.1065
    7CHTO   C68 2735   4.775   0.652   1.465 -0.0237  0.3111 -0.2889
    7CHTO  H125 2736   4.703   0.620   1.544  0.9746 -2.9433 -0.6099
    7CHTO   C72 2737   4.861   0.536   1.437 -0.0999  0.0694 -0.0879
    7CHTO   O48 2738   4.778   0.428   1.397 -0.6461  0.4654 -0.4844
    7CHTO  H105 2739   4.825   0.360   1.352  0.4718  0.3804  0.7892
    7CHTO   O38 2740   4.912   0.956   1.409 -0.1812 -0.0407 -0.0307
    7CHTO   C55 2741   5.048   1.002   1.416 -0.9044  0.0994 -0.1006
    7CHTO  H112 2742   5.093   0.965   1.510 -1.6016  3.0233  1.4579
    7CHTO   C56 2743   5.067   1.154   1.409  0.7737 -0.5489  0.1443
    7CHTO  H113 2744   5.017   1.202   1.324  0.8000  1.5133  1.2579
    7CHTO   O42 2745   4.994   1.214   1.518 -0.0090  0.8623 -0.2413
    7CHTO  H100 2746   5.054   1.226   1.589  0.8601  0.3674 -0.8663
    7CHTO   C57 2747   5.221   1.199   1.416  0.4488 -0.7701  0.1257
    7CHTO  H114 2748   5.263   1.168   1.511  2.1880  0.6581 -0.1578
    7CHTO   N10 2749   5.239   1.351   1.413 -0.1447  0.0222  0.6359
    7CHTO  H106 2750   5.152   1.398   1.457 -0.0128 -0.9165  1.9256
    7CHTO  H107 2751   5.327   1.367   1.474  0.7311 -3.5772  0.4041
    7CHTO   C58 2752   5.296   1.121   1.299 -0.0157  0.1149 -0.2688
    7CHTO  H115 2753   5.257   1.157   1.202  1.9436  1.1450 -0.7076
    7CHTO   O37 2754   5.277   0.981   1.314  0.7094 -0.2613 -0.0846
    7CHTO   C59 2755   5.132   0.942   1.299 -0.0906 -0.7685 -0.1875
    7CHTO  H116 2756   5.100   0.981   1.202  0.1001 -1.1228 -0.3944
    7CHTO   C70 2757   5.131   0.788   1.307 -0.3212  0.4311  0.1054
    7CHTO   O46 2758   5.179   0.719   1.424  0.0381 -0.6544 -0.3095
    7CHTO  H103 2759   5.171   0.779   1.496  1.5034  0.8747 -1.3710
    7CHTO   O39 2760   5.446   1.164   1.290 -0.1230 -0.1420 -0.6534
    7CHTO   C60 2761   5.515   1.119   1.170 -0.6269 -0.1881 -0.3088
    7CHTO  H117 2762   5.481   1.017   1.149 -1.2725 -0.2312  0.8892
    7CHTO   C62 2763   5.489   1.224   1.054  0.5903  0.0715 -0.0434
    7CHTO  H119 2764   5.383   1.216   1.023  0.3875 -2.8558  1.2652
    7CHTO   O43 2765   5.510   1.361   1.095  0.4633 -0.3212 -0.1773
    7CHTO  H101 2766   5.589   1.401   1.064 -1.4816  2.6337 -1.5992
    7CHTO   C66 2767   5.572   1.178   0.933 -0.0586 -0.2009  0.5313
    7CHTO  H123 2768   5.545   1.075   0.911 -0.0526 -0.0674 -0.0980
    7CHTO   N12 2769   5.532   1.263   0.817  0.5691  0.1613 -0.2660
    7CHTO  H110 2770   5.602   1.321   0.758 -0.6330  1.0822 -0.8091
    7CHTO  H111 2771   5.456   1.332   0.850  0.3051 -0.1338 -0.2613
    7CHTO   C69 2772   5.723   1.180   0.975 -0.3332 -0.5639  0.0043
    7CHTO  H126 2773   5.748   1.284   1.002  0.8998 -0.3207 -1.9585
    7CHTO   O41 2774   5.748   1.076   1.090 -0.7938 -0.1402 -0.0817
    7CHTO   C64 2775   5.663   1.108   1.208  0.3970  0.2111 -0.3662
    7CHTO  H121 2776   5.699   1.204   1.252  1.4108 -0.1814 -0.3413
    7CHTO   C71 2777   5.693   0.994   1.305  0.1146  0.3501  0.2379
    7CHTO   O47 2778   5.636   0.870   1.264  0.1368  0.0830  0.2812
    7CHTO  H104 2779   5.553   0.864   1.308 -0.1908  0.3425 -0.2997
    7CHTO   O34 2780   5.807   1.131   0.848 -0.3994  0.0314 -0.3549
    7CHTO   C49 2781   5.904   1.207   0.774  0.2753 -0.2926  0.0517
    7CHTO   H91 2782   5.864   1.308   0.765  3.8541  1.6050  3.5692
    7CHTO   C47 2783   5.924   1.156   0.633 -0.0682  0.6105  0.0899
    7CHTO   H89 2784   5.989   1.227   0.578 -1.9916  2.2410 -0.1431
    7CHTO   O33 2785   5.800   1.151   0.563  0.0344  0.2141  0.0664
    7CHTO   H70 2786   5.809   1.121   0.475 -0.9981 -1.8977  0.6404
    7CHTO   C45 2787   6.004   1.018   0.632  0.4940  0.3476 -0.9192
    7CHTO   H87 2788   5.935   0.933   0.620  1.5798 -0.5513 -0.8631
    7CHTO    N8 2789   6.093   1.010   0.512 -0.0398 -0.7909  0.6778
    7CHTO   H75 2790   6.043   0.956   0.433  1.4994 -0.3679 -0.5896
    7CHTO   H76 2791   6.112   1.112   0.480  0.4836 -1.7964 -2.3750
    7CHTO   C43 2792   6.083   0.991   0.770 -1.2254 -0.4421  0.6835
    7CHTO   H85 2793   6.008   0.956   0.842 -2.8769  4.2167  1.3933
    7CHTO   O29 2794   6.135   1.114   0.810 -0.4599 -0.3003  0.6517
    7CHTO   C50 2795   6.041   1.219   0.850  0.0974 -0.1068 -0.1942
    7CHTO   H92 2796   6.035   1.214   0.960 -0.5152  1.5781 -0.1458
    7CHTO   C54 2797   6.113   1.352   0.827 -0.3881  0.5141  0.5873
    7CHTO   O36 2798   6.028   1.460   0.861  0.2647  0.3818 -0.6292
    7CHTO   H72 2799   5.978   1.447   0.940  0.4928  2.1535 -0.1791
    7CHTO   O27 2800   6.180   0.883   0.765  0.1248  0.1080  0.1897
    7CHTO   C37 2801   6.278   0.789   0.803 -0.1046 -0.5546  0.0352
    7CHTO   H79 2802   6.337   0.825   0.889  0.9323 -0.3553 -0.7428
    7CHTO   C38 2803   6.216   0.658   0.838  0.2022  0.0931  0.6743
    7CHTO   H80 2804   6.136   0.634   0.767  0.3500 -0.3276  0.6535
    7CHTO   O31 2805   6.164   0.677   0.970 -0.8130 -0.1909  0.0208
    7CHTO   H68 2806   6.234   0.668   1.032  0.5707 -0.2080 -1.5063
    7CHTO   C39 2807   6.315   0.530   0.842 -0.6835 -0.2910 -0.1981
    7CHTO   H81 2808   6.389   0.546   0.919 -0.0887 -1.1417 -0.5855
    7CHTO    N7 2809   6.238   0.404   0.864  0.0275 -0.0180 -0.0400
    7CHTO   H73 2810   6.162   0.390   0.789 -0.0381  0.4050 -0.0560
    7CHTO   H74 2811   6.300   0.316   0.858 -0.0080 -0.0165 -0.4365
    7CHTO   C40 2812   6.396   0.531   0.708 -0.0487 -0.4296 -0.4250
    7CHTO   H82 2813   6.334   0.508   0.621 -0.8314  0.1035 -0.0122
    7CHTO   O26 2814   6.469   0.655   0.693  0.2457  0.3865 -0.0181
    7CHTO   C41 2815   6.379   0.771   0.680  0.2469  0.2209 -0.2769
    7CHTO   H83 2816   6.323   0.770   0.586  0.3477 -0.3458 -0.3326
    7CHTO   C52 2817   6.464   0.900   0.658 -0.2786 -0.8031 -0.1964
    7CHTO   O35 2818   6.547   0.887   0.552 -0.1010  0.2802  0.0825
    7CHTO   H71 2819   6.608   0.958   0.544 -0.6250  0.5213 -2.2814
    7CHTO   O28 2820   6.478   0.415   0.709 -0.4148 -0.4154  0.4624
    7CHTO   C42 2821   6.618   0.385   0.756  0.1836  0.6092  0.0655
    7CHTO   H84 2822   6.597   0.333   0.850 -3.3069  3.2421  0.8423
    7CHTO   C44 2823   6.704   0.509   0.805 -0.2831  0.2790  1.1770
    7CHTO   H86 2824   6.707   0.584   0.726 -2.3092 -1.3083 -0.4646
    7CHTO   O32 2825   6.639   0.580   0.915  0.2519 -0.3303  0.2021
    7CHTO   H69 2826   6.545   0.575   0.920  0.3271  0.1523  2.8055
    7CHTO   C48 2827   6.855   0.471   0.842 -0.7902  0.1553 -0.0258
    7CHTO   H90 2828   6.861   0.410   0.932 -1.9410  1.7148  1.1300
    7CHTO    N9 2829   6.940   0.594   0.876  0.4480 -0.0690 -0.0082
    7CHTO   H77 2830   6.955   0.582   0.982 -2.1685 -0.7450  0.3180
    7CHTO   H78 2831   7.029   0.594   0.814  0.9285 -1.3230  0.6667
    7CHTO   C51 2832   6.915   0.395   0.715 -0.6851  0.0917 -0.2715
    7CHTO   H93 2833   6.908   0.461   0.629 -0.6565  2.6350  1.6288
    7CHTO   O30 2834   6.838   0.278   0.699 -0.3258 -0.5384 -0.2491
    7CHTO   C46 2835   6.696   0.291   0.658  0.1881  0.3854  0.1186
    7CHTO   H88 2836   6.692   0.328   0.555  3.1040 -0.1109 -0.2337
    7CHTO   C53 2837   6.629   0.150   0.663 -0.2475  0.1083 -0.4566
    7CHTO   O72 2838   6.680   0.062   0.562 -0.3885  0.4226  0.1133
    7CHTO  H199 2839   6.677   0.106   0.479 -0.3898  2.1073  0.9713
    7CHTO   O22 2840   7.052   0.342   0.739  0.5350 -0.3119  0.3163
    7CHTO   C31 2841   7.138   0.304   0.624 -0.0007  0.0547 -0.5186
    7CHTO   H59 2842   7.210   0.229   0.662  2.0972  1.6990 -1.1329
    7CHTO   C29 2843   7.077   0.241   0.489 -0.2644 -0.2119 -0.3710
    7CHTO   H57 2844   7.006   0.313   0.446  0.0773 -1.0828 -2.4625
    7CHTO   O21 2845   6.994   0.128   0.527 -0.3418  0.0979  0.3491
    7CHTO   H37 2846   6.909   0.150   0.559  0.4670 -0.2819  2.8406
    7CHTO   C27 2847   7.191   0.206   0.388  0.0339  0.1555 -0.5374
    7CHTO   H55 2848   7.257   0.130   0.432 -1.1739  0.2096  1.4120
    7CHTO    N5 2849   7.126   0.148   0.263  0.1847 -0.1470 -0.2309
    7CHTO   H43 2850   7.154   0.191   0.168  1.6878 -1.1262 -0.2479
    7CHTO   H44 2851   7.018   0.147   0.261  0.1815  0.4720 -0.4233
    7CHTO   C25 2852   7.269   0.334   0.364 -0.1742  0.5620  0.4197
    7CHTO   H53 2853   7.194   0.402   0.323 -1.0135 -1.3598 -1.2881
    7CHTO   O17 2854   7.336   0.371   0.495  0.4272 -0.6679 -0.0017
    7CHTO   C32 2855   7.236   0.425   0.586  0.3928 -0.3830  1.0677
    7CHTO   H60 2856   7.183   0.500   0.528 -0.8346 -0.8349  1.5955
    7CHTO   C36 2857   7.297   0.492   0.720  0.9184 -0.4301  0.6533
    7CHTO   O25 2858   7.421   0.556   0.689 -0.8224 -0.0610  0.0446
    7CHTO   H40 2859   7.413   0.599   0.606  0.0437  0.1384  0.0597
    7CHTO   O15 2860   7.388   0.320   0.262  0.5212  0.0478 -0.7791
    7CHTO   C19 2861   7.384   0.407   0.148  0.2368  0.2317 -0.2081
    7CHTO   H47 2862   7.482   0.390   0.100 -0.7116 -0.2231 -2.0213
    7CHTO   C20 2863   7.278   0.383   0.043  0.5611  0.6432  0.0670
    7CHTO   H48 2864   7.179   0.385   0.091  1.1628 -2.7720  1.5948
    7CHTO   O19 2865   7.297   0.252  -0.012  0.1127  0.3446 -0.3434
    7CHTO   H35 2866   7.269   0.242  -0.101  3.0355 -0.2620 -1.2548
    7CHTO   C21 2867   7.280   0.489  -0.081  0.1499 -0.4189 -0.1828
    7CHTO   H49 2868   7.362   0.462  -0.147  0.3998 -1.7126  0.6477
    7CHTO    N4 2869   7.156   0.470  -0.165 -0.2471 -0.4860 -0.0951
    7CHTO   H41 2870   7.170   0.530  -0.254  1.0126 -0.4782  0.0895
    7CHTO   H42 2871   7.148   0.368  -0.198 -2.4391 -0.2455 -0.3745
    7CHTO   C22 2872   7.286   0.639  -0.020 -0.9420  0.4614 -0.4925
    7CHTO   H50 2873   7.199   0.649   0.045  1.3847 -0.5542  2.9232
    7CHTO   O14 2874   7.399   0.642   0.075  0.4335  0.2539  0.1649
    7CHTO   C23 2875   7.392   0.556   0.188  0.7919  0.0520  0.1621
    7CHTO   H51 2876   7.306   0.585   0.250  1.8740  0.6703  1.4046
    7CHTO   C34 2877   7.517   0.590   0.274  0.2017 -0.1445  0.4338
    7CHTO   O23 2878   7.563   0.727   0.262  0.5488  0.3860 -0.4560
    7CHTO   H38 2879   7.491   0.783   0.283 -0.3757 -0.8073 -0.3694
    7CHTO   O16 2880   7.289   0.738  -0.120 -0.5800  0.1108  0.2819
    7CHTO   C24 2881   7.286   0.898  -0.065 -0.3921  0.8488  0.4007
    7CHTO   H52 2882   7.313   0.902   0.040 -1.0645 -3.6723  0.8476
    7CHTO   C26 2883   7.150   0.962  -0.087 -0.3985  0.1391 -0.3849
    7CHTO   H54 2884   7.127   0.952  -0.195 -0.3965  0.6725 -0.4356
    7CHTO   O20 2885   7.056   0.883  -0.012 -0.3892 -0.0401  0.4902
    7CHTO   H36 2886   6.989   0.873  -0.077  0.8564 -3.4341 -0.4057
    7CHTO   C30 2887   7.156   1.112  -0.049  0.8111 -0.8711  0.6574
    7CHTO   H58 2888   7.191   1.129   0.054 -2.9817 -0.5728  1.9602
    7CHTO    N6 2889   7.018   1.173  -0.069 -0.7015 -0.1432  0.0909
    7CHTO   H45 2890   6.997   1.249   0.004 -1.8407 -1.1121  0.7737
    7CHTO   H46 2891   6.935   1.104  -0.074  0.2501 -1.2134 -1.9970
    7CHTO   C33 2892   7.275   1.180  -0.127 -0.4402  0.0987  0.4652
    7CHTO   H61 2893   7.259   1.190  -0.236 -3.6598  1.0754  0.9807
    7CHTO   O18 2894   7.392   1.102  -0.101 -0.2430 -0.3109 -0.3380
    7CHTO   C28 2895   7.391   0.968  -0.152  1.1244  1.0073  0.1272
    7CHTO   H56 2896   7.359   0.958  -0.256 -1.3209  0.3699  0.9186
    7CHTO   C35 2897   7.529   0.909  -0.134 -0.5110  0.4484  0.0066
    7CHTO   O24 2898   7.617   0.972  -0.225  0.3608  0.2493  0.2711
    7CHTO   H39 2899   7.659   1.042  -0.179  2.4859 -0.4854 -0.4796
    7CHTO    O9 2900   7.291   1.316  -0.084  0.5386 -0.6735  0.5929
    7CHTO   C13 2901   7.226   1.441  -0.158  0.6092  0.0222 -0.0273
    7CHTO   H26 2902   7.134   1.411  -0.212 -0.6820  3.2485  0.3112
    7CHTO   C11 2903   7.337   1.501  -0.252  0.2310 -0.1564 -0.0916
    7CHTO   H24 2904   7.345   1.439  -0.343  0.9915 -1.6973  1.0039
    7CHTO    O8 2905   7.464   1.487  -0.181  0.7504 -0.4828 -0.2801
    7CHTO    H3 2906   7.522   1.559  -0.197 -0.2949  0.5782  0.5641
    7CHTO    C9 2907   7.301   1.645  -0.295  0.0304 -0.0252 -0.1310
    7CHTO   H22 2908   7.205   1.642  -0.350 -0.4574  0.3428  0.6896
    7CHTO    N2 2909   7.387   1.706  -0.401 -0.0308  0.4621  0.1000
    7CHTO   H10 2910   7.485   1.663  -0.412 -0.3690 -0.4419  0.5865
    7CHTO   H11 2911   7.339   1.703  -0.497 -3.1178 -0.3012  1.6030
    7CHTO    C7 2912   7.279   1.729  -0.169 -0.4064 -0.0873 -0.2555
    7CHTO   H20 2913   7.253   1.830  -0.208 -2.9866 -1.2625 -1.6715
    7CHTO    O4 2914   7.174   1.680  -0.084  0.7594 -0.8321  0.4864
    7CHTO   C14 2915   7.182   1.541  -0.038  0.1396  0.1083  0.8917
    7CHTO   H27 2916   7.080   1.509  -0.007 -0.1441 -2.6413 -2.6064
    7CHTO   C18 2917   7.274   1.531   0.090 -0.2661  0.6279  0.0220
    7CHTO   O13 2918   7.247   1.614   0.200 -0.4432 -0.2706 -0.0674
    7CHTO    H7 2919   7.319   1.606   0.260 -0.5345  2.4370  0.4607
    7CHTO    O2 2920   7.410   1.752  -0.074  0.1347 -0.2544  1.0471
    7CHTO    C1 2921   7.465   1.886  -0.072  0.3944  0.6728 -0.2932
    7CHTO   H14 2922   7.409   1.950  -0.144  0.1835 -1.3830 -1.9869
    7CHTO    C2 2923   7.619   1.893  -0.107 -0.1363  0.1873 -0.4151
    7CHTO   H15 2924   7.655   1.816  -0.036 -0.8989 -0.2568 -0.5022
    7CHTO    O6 2925   7.639   1.849  -0.243  0.0473 -0.0147  0.0293
    7CHTO    H1 2926   7.577   1.887  -0.302 -0.5394 -0.2445  0.4869
    7CHTO    C3 2927   7.689   2.030  -0.072  0.2362  0.2813  0.1566
    7CHTO   H16 2928   7.657   2.112  -0.138  0.8033  2.7933  2.9023
    7CHTO    N1 2929   7.841   2.019  -0.094  0.1101  0.1883  0.1319
    7CHTO    H8 2930   7.883   2.077  -0.014  0.3434 -1.2091  1.0483
    7CHTO    H9 2931   7.868   2.056  -0.192  0.6360  0.3938  0.3552
    7CHTO    C4 2932   7.654   2.083   0.076  0.2432 -0.0587 -0.1202
    7CHTO   H17 2933   7.705   2.022   0.151 -1.5510  1.2536  2.2445
    7CHTO    O1 2934   7.511   2.075   0.088  0.2356 -0.0621 -0.0897
    7CHTO    C5 2935   7.453   1.941   0.071 -0.2766 -0.4983 -0.4355
    7CHTO   H18 2936   7.504   1.873   0.138  1.0807  0.8511 -0.0775
    7CHTO   C16 2937   7.306   1.950   0.125 -0.0608  0.5632 -0.1187
    7CHTO   O11 2938   7.307   1.984   0.263 -0.5468  0.3509  0.3585
    7CHTO    H5 2939   7.333   2.073   0.280  0.1686  0.3005 -0.4497
    7CHTO    O3 2940   7.683   2.229   0.087 -0.1959  0.5039 -0.7604
    7CHTO    C6 2941   7.800   2.263   0.157 -0.5797  0.3257  0.5847
    7CHTO   H19 2942   7.867   2.180   0.179  0.8072  0.9814 -1.0133
    7CHTO    C8 2943   7.883   2.365   0.071 -0.1934 -0.9427 -0.7180
    7CHTO   H21 2944   7.828   2.459   0.067  2.6081  0.7694 -0.2230
    7CHTO    O7 2945   7.900   2.311  -0.062  0.3483 -0.7948  0.1327
    7CHTO    H2 2946   7.926   2.382  -0.118  3.0013 -0.9779  1.0940
    7CHTO   C12 2947   8.018   2.395   0.152 -0.8193  0.7799  0.2409
    7CHTO   H25 2948   8.078   2.302   0.147 -1.8178  0.2541 -2.1146
    7CHTO    N3 2949   8.094   2.493   0.070  0.1260 -0.4676  0.1025
    7CHTO   H12 2950   8.112   2.453  -0.029 -1.1591 -1.1602  0.1364
    7CHTO   H13 2951   8.184   2.522   0.122  0.3386  2.0169 -1.5308
    7CHTO   C15 2952   7.986   2.434   0.300  0.4030 -0.0347 -0.1636
    7CHTO   H28 2953   7.934   2.530   0.312  0.2773 -0.4936  3.8756
    7CHTO   O10 2954   8.088   2.424   0.387 -0.0326  0.1456  0.5647
    7CHTO    H4 2955   8.153   2.479   0.347  0.9655 -2.7051 -1.9518
    7CHTO    O5 2956   7.887   2.345   0.354 -0.6245 -0.0914 -0.2439
    7CHTO   C10 2957   7.765   2.334   0.286  0.7817 -0.3674 -0.3717
    7CHTO   H23 2958   7.732   2.436   0.267 -0.4829 -1.1598 -2.5325
    7CHTO   C17 2959   7.677   2.246   0.376 -0.0497  0.2756  0.0113
    7CHTO   O12 2960   7.631   2.310   0.497  0.4240  0.4829 -0.4719
    7CHTO    H6 2961   7.697   2.375   0.516 -0.6503  1.3015  0.5333
    8CHTO  H203 2962   7.616   8.406   1.542 -0.5375  0.3708  2.7271
    8CHTO   O82 2963   7.528   8.402   1.510  0.3259  0.2007  0.2983
    8CHTO  C123 2964   7.465   8.303   1.588  0.2460  0.3232  0.6287
    8CHTO  H227 2965   7.533   8.217   1.597 -0.2484 -0.0258  1.0757
    8CHTO   O77 2966   7.443   8.358   1.718 -0.0282  0.1931 -0.3542
    8CHTO  C118 2967   7.382   8.281   1.823 -0.4706  0.4881  0.8477
    8CHTO  H222 2968   7.431   8.184   1.841 -1.2176  0.1870  1.2876
    8CHTO  C125 2969   7.387   8.364   1.950 -0.0475 -0.2218  0.2728
    8CHTO   O84 2970   7.323   8.490   1.926 -0.4591  0.4798  0.5009
    8CHTO  H205 2971   7.336   8.551   1.996 -1.4282 -0.9726  1.9896
    8CHTO  C114 2972   7.242   8.240   1.771  0.1227  0.1787 -0.3440
    8CHTO  H218 2973   7.187   8.326   1.734  0.7518 -0.5979 -3.1475
    8CHTO  C116 2974   7.249   8.165   1.637 -0.3747 -0.2295  0.2209
    8CHTO  H220 2975   7.291   8.064   1.656 -1.6983 -0.5192  1.7959
    8CHTO   O79 2976   7.112   8.139   1.586 -0.4311  0.6417 -0.4937
    8CHTO  H201 2977   7.075   8.216   1.549 -1.4988 -1.2246 -3.5416
    8CHTO  C120 2978   7.325   8.258   1.538 -0.2396 -0.2127  0.2440
    8CHTO  H224 2979   7.263   8.350   1.538 -1.8689 -1.2745 -1.2753
    8CHTO   N21 2980   7.345   8.196   1.406  0.1496  0.3479 -0.0387
    8CHTO  H211 2981   7.388   8.098   1.416 -1.8804 -0.5031  0.5669
    8CHTO  H212 2982   7.246   8.168   1.371 -2.1865  1.8838  4.9137
    8CHTO   O75 2983   7.175   8.176   1.877  0.9790 -0.7631 -0.5216
    8CHTO  C112 2984   7.024   8.235   1.882  0.1667 -0.0365  0.0105
    8CHTO  H216 2985   6.981   8.242   1.781 -0.9842 -1.3279  0.4025
    8CHTO   O73 2986   7.027   8.364   1.948 -0.3489 -0.0523 -0.0495
    8CHTO  C113 2987   6.898   8.432   1.940  0.2515  0.4005  0.5790
    8CHTO  H217 2988   6.874   8.443   1.832 -1.0420 -0.7018  0.7409
    8CHTO  C124 2989   6.898   8.569   2.004 -0.4411 -0.5904 -0.4335
    8CHTO   O83 2990   6.995   8.655   1.960 -0.4762 -0.8743  0.7114
    8CHTO  H204 2991   7.080   8.619   1.948  0.4741  0.9773  1.6838
    8CHTO  C109 2992   6.796   8.340   2.008  0.4524 -0.3296 -0.3671
    8CHTO  H213 2993   6.827   8.329   2.112  0.8306 -1.5219 -0.6043
    8CHTO  C110 2994   6.788   8.202   1.950  0.5028 -0.1673  0.9411
    8CHTO  H214 2995   6.767   8.208   1.843 -0.6526  1.8325  1.2443
    8CHTO   O78 2996   6.690   8.134   2.024 -0.1050  0.5355 -0.4448
    8CHTO  H200 2997   6.676   8.054   1.978  1.1053  1.0269 -1.7037
    8CHTO  C111 2998   6.927   8.143   1.961  0.0077 -0.1042 -0.2631
    8CHTO  H215 2999   6.958   8.142   2.067  0.0557  1.4143 -0.2620
    8CHTO   N19 3000   6.934   7.998   1.911 -0.1960  0.5228  0.6620
    8CHTO  H207 3001   7.038   7.970   1.912 -0.4539 -0.9057 -3.2881
    8CHTO  H208 3002   6.887   7.929   1.980 -2.3673 -0.2973 -1.5666
    8CHTO   O74 3003   6.665   8.409   2.003  0.0816  0.5936 -0.0498
    8CHTO  C115 3004   6.575   8.426   1.856  0.7425  0.0280 -0.5200
    8CHTO  H219 3005   6.600   8.347   1.785 -0.0716 -0.2662 -0.4793
    8CHTO   O76 3006   6.413   8.425   1.874  0.2612  0.0986 -0.9632
    8CHTO  C122 3007   6.373   8.528   1.969  0.1589  0.1536 -0.0001
    8CHTO  H226 3008   6.405   8.499   2.070 -1.8871  0.3979  0.7523
    8CHTO  C126 3009   6.216   8.541   1.974 -0.4231  0.5110  0.1703
    8CHTO   O85 3010   6.160   8.544   1.846 -0.2968 -0.7328  0.3886
    8CHTO  H206 3011   6.074   8.581   1.846 -1.0081 -2.3687  1.1701
    8CHTO  C121 3012   6.437   8.674   1.937  0.0672  0.4981 -0.3746
    8CHTO  H225 3013   6.360   8.754   1.940  1.4024  1.8881 -2.0148
    8CHTO   O81 3014   6.532   8.705   2.038  0.2124 -0.1278  0.7556
    8CHTO  H202 3015   6.609   8.654   2.021  1.4799  1.6286  1.1499
    8CHTO  C119 3016   6.499   8.677   1.795 -0.7560 -0.9588 -0.3378
    8CHTO  H223 3017   6.417   8.658   1.726 -0.8355  2.5662 -1.2876
    8CHTO  C117 3018   6.609   8.560   1.787 -0.1796 -0.0068  0.4944
    8CHTO  H221 3019   6.708   8.584   1.827  0.5030  2.0715 -2.2569
    8CHTO   N20 3020   6.636   8.546   1.637 -0.0434 -0.4705 -0.4292
    8CHTO  H209 3021   6.722   8.598   1.596  1.3787 -3.1730 -1.0524
    8CHTO  H210 3022   6.549   8.576   1.581 -1.1656  2.2216  2.6293
    8CHTO   O80 3023   6.549   8.833   1.743  0.0971  0.3962 -0.2138
    8CHTO  C103 3024   6.468   8.932   1.729 -0.0537 -0.2284 -0.7928
    8CHTO  H190 3025   6.366   8.909   1.759  0.3001 -0.3902  0.3096
    8CHTO  C101 3026   6.521   9.053   1.813  0.7145 -0.3265 -0.3849
    8CHTO  H188 3027   6.629   9.067   1.809  0.7367 -0.2361  0.4648
    8CHTO   O68 3028   6.472   9.022   1.975  0.0562  0.4069  0.2141
    8CHTO  H168 3029   6.382   8.995   1.970  0.8381 -1.9560 -1.9946
    8CHTO   C99 3030   6.466   9.191   1.760  0.2860 -0.2157  0.0796
    8CHTO  H186 3031   6.355   9.189   1.757  0.3294 -2.5033 -0.8246
    8CHTO   N17 3032   6.514   9.304   1.847 -0.6332  0.7188 -0.1062
    8CHTO  H174 3033   6.603   9.281   1.903  0.1565  1.0961 -1.1992
    8CHTO  H175 3034   6.429   9.333   1.908 -1.7128 -1.6863 -0.4292
    8CHTO   C97 3035   6.505   9.205   1.609 -0.6739  0.2582 -0.4389
    8CHTO  H184 3036   6.612   9.182   1.600 -0.6477  0.0529  0.3862
    8CHTO   O64 3037   6.423   9.102   1.545  0.4129 -0.2135 -0.2313
    8CHTO  C104 3038   6.467   8.966   1.571  0.6168  0.2735 -0.2605
    8CHTO  H191 3039   6.567   8.952   1.529  1.1648  0.5376  0.9197
    8CHTO  C108 3040   6.369   8.866   1.498  0.2876  0.0976 -0.1782
    8CHTO   O71 3041   6.228   8.871   1.517 -0.0397 -0.2541 -0.4015
    8CHTO  H171 3042   6.195   8.809   1.455 -0.0134  0.6061 -1.2966
    8CHTO   O62 3043   6.454   9.328   1.549 -0.1119 -0.4349  0.4808
    8CHTO   C91 3044   6.545   9.394   1.460 -0.4864  0.8564  0.3797
    8CHTO  H178 3045   6.649   9.377   1.489 -0.1922  0.0844 -1.0945
    8CHTO   C92 3046   6.513   9.541   1.459 -0.4938 -0.6036  0.0639
    8CHTO  H179 3047   6.407   9.554   1.433 -0.3237 -1.9023 -1.3379
    8CHTO   O66 3048   6.536   9.585   1.598 -0.1928  0.2532  0.5175
    8CHTO  H166 3049   6.502   9.670   1.617  1.9628  0.8283  1.9511
    8CHTO   C93 3050   6.605   9.625   1.365  0.2974 -0.2995 -0.6718
    8CHTO  H180 3051   6.709   9.629   1.401  0.7300  1.7654 -2.0890
    8CHTO   N16 3052   6.564   9.767   1.364 -0.1533 -0.1034  0.1042
    8CHTO  H172 3053   6.468   9.780   1.316 -0.4953 -3.1756 -0.1621
    8CHTO  H173 3054   6.646   9.824   1.325 -0.1703  1.5679  2.4156
    8CHTO   C94 3055   6.608   9.566   1.218  0.3098 -0.7549 -0.3767
    8CHTO  H181 3056   6.509   9.575   1.173  0.2671 -1.0349 -0.3356
    8CHTO   O61 3057   6.640   9.426   1.229 -0.2860 -0.4088  0.4276
    8CHTO   C95 3058   6.543   9.351   1.304  0.0453  0.5209  0.5506
    8CHTO  H182 3059   6.439   9.362   1.271  0.4712  0.1319 -0.9308
    8CHTO  C106 3060   6.578   9.201   1.286 -0.5710  0.4226 -0.3825
    8CHTO   O69 3061   6.581   9.152   1.157 -0.6418 -0.2550  0.3464
    8CHTO  H169 3062   6.524   9.198   1.099  0.8388  0.3255 -0.6831
    8CHTO   O63 3063   6.716   9.648   1.119  0.3794  0.1059 -0.4869
    8CHTO   C96 3064   6.679   9.639   0.974 -0.5592 -0.0445  0.9094
    8CHTO  H183 3065   6.571   9.654   0.974 -0.4242  1.0923  2.6700
    8CHTO   C98 3066   6.731   9.514   0.901  0.0692 -0.3879  0.5129
    8CHTO  H185 3067   6.841   9.512   0.909  0.0688 -0.0355  0.5949
    8CHTO   O67 3068   6.683   9.399   0.974 -0.2222  0.3407 -0.0318
    8CHTO  H167 3069   6.700   9.320   0.927 -2.0100 -1.4636  2.2314
    8CHTO  C102 3070   6.683   9.512   0.744 -0.2240 -0.0710  0.2593
    8CHTO  H189 3071   6.588   9.457   0.750 -1.6816  2.5600  3.4292
    8CHTO   N18 3072   6.768   9.437   0.652 -0.3935 -0.2342 -0.9307
    8CHTO  H176 3073   6.749   9.473   0.552 -1.8296  1.3332 -0.1439
    8CHTO  H177 3074   6.733   9.335   0.644 -1.1839 -0.0994  0.6562
    8CHTO  C105 3075   6.650   9.659   0.699  0.7851  0.2462  0.5801
    8CHTO  H192 3076   6.682   9.674   0.595  0.0202 -1.5139  0.0658
    8CHTO   O65 3077   6.718   9.767   0.772 -0.6877 -0.7159 -0.0816
    8CHTO  C100 3078   6.734   9.768   0.911 -0.4015  0.2446  0.5848
    8CHTO  H187 3079   6.841   9.759   0.934 -0.1610 -2.4602 -1.3386
    8CHTO  C107 3080   6.684   9.902   0.977  0.4911 -0.5314 -0.1174
    8CHTO   O70 3081   6.542   9.934   0.974 -0.5805  0.6040 -0.3423
    8CHTO  H170 3082   6.518   9.980   0.895  0.1691  0.8627 -0.4268
    8CHTO   O57 3083   6.492   9.682   0.711  0.0239  0.4703 -0.2425
    8CHTO   C85 3084   6.425   9.765   0.616 -0.7425 -0.4626  0.0651
    8CHTO  H157 3085   6.493   9.822   0.549 -1.5587  1.2044  0.6172
    8CHTO   C83 3086   6.355   9.879   0.694  0.1988  0.6797  0.0492
    8CHTO  H155 3087   6.431   9.932   0.750 -0.6333 -0.5392  2.4056
    8CHTO   O56 3088   6.268   9.815   0.791 -0.3003 -0.0745 -0.6627
    8CHTO  H135 3089   6.186   9.802   0.746 -0.9694  0.3769  0.4096
    8CHTO   C81 3090   6.290   9.977   0.594 -0.3762  1.0334 -0.2598
    8CHTO  H153 3091   6.365  10.014   0.525  0.0424 -1.0623 -0.9593
    8CHTO   N14 3092   6.240  10.097   0.667 -0.0370 -0.2437  0.2938
    8CHTO  H141 3093   6.304  10.178   0.639 -2.3541  1.0262 -1.5305
    8CHTO  H142 3094   6.139  10.129   0.649 -0.5048 -0.4466  2.4097
    8CHTO   C79 3095   6.175   9.908   0.511 -0.3468 -0.2207  1.6032
    8CHTO  H151 3096   6.148   9.978   0.431  1.9132  0.4230  1.3709
    8CHTO   O52 3097   6.227   9.786   0.443  0.2622 -0.0538  0.9890
    8CHTO   C86 3098   6.303   9.694   0.531  0.1657 -0.0919  0.4247
    8CHTO  H158 3099   6.234   9.642   0.600 -1.6110 -0.7322 -1.7733
    8CHTO   C90 3100   6.356   9.589   0.437 -0.4015 -0.6180  0.6275
    8CHTO   O60 3101   6.248   9.514   0.371 -0.5496 -0.4948  0.0414
    8CHTO  H138 3102   6.289   9.454   0.313 -0.6726 -1.5956  1.0769
    8CHTO   O50 3103   6.067   9.868   0.599 -0.8741  0.0635 -0.9075
    8CHTO   C73 3104   5.926   9.832   0.577  0.2454 -0.1094  0.2225
    8CHTO  H145 3105   5.911   9.760   0.495 -0.2546 -0.2648  0.4496
    8CHTO   C74 3106   5.841   9.961   0.575  0.5785  0.4941  0.0883
    8CHTO  H146 3107   5.871  10.013   0.483  1.1831 -0.0781 -0.0403
    8CHTO   O54 3108   5.705   9.929   0.558 -0.2125  0.1751 -0.1631
    8CHTO  H133 3109   5.652  10.001   0.531 -0.6795 -0.4574 -0.9368
    8CHTO   C75 3110   5.858  10.048   0.699 -0.2617 -0.9128  0.1046
    8CHTO  H147 3111   5.960  10.089   0.695 -0.9200  0.5271 -2.3748
    8CHTO   N13 3112   5.780  10.173   0.698 -0.3623 -0.0970 -0.2799
    8CHTO  H139 3113   5.817  10.227   0.783  1.3590 -1.3634 -0.2006
    8CHTO  H140 3114   5.805  10.231   0.611 -1.8797  1.2584  0.1632
    8CHTO   C76 3115   5.842   9.962   0.831  0.1620  0.8361 -0.2461
    8CHTO  H148 3116   5.735   9.950   0.848  0.0563  0.0291 -1.4859
    8CHTO   O49 3117   5.911   9.829   0.816 -0.3886  0.2860 -0.2232
    8CHTO   C77 3118   5.876   9.753   0.699  0.9653 -0.0134  0.0170
    8CHTO  H149 3119   5.768   9.747   0.692  0.6636  3.2412  0.8766
    8CHTO   C88 3120   5.938   9.623   0.723  0.8936  0.2033 -0.4257
    8CHTO   O58 3121   5.925   9.514   0.631 -0.1824 -0.2241 -0.0749
    8CHTO  H136 3122   5.992   9.533   0.568 -0.5613 -0.2186 -0.4800
    8CHTO   O51 3123   5.907  10.022   0.955 -0.3714 -0.4049 -0.1546
    8CHTO   C78 3124   5.907   9.954   1.095 -0.0023 -0.4845  0.3353
    8CHTO  H150 3125   5.906   9.844   1.081  0.5433 -0.7539  2.2473
    8CHTO   C80 3126   5.785   9.990   1.178  0.2823  0.1254  0.4652
    8CHTO  H152 3127   5.777  10.101   1.186 -1.1653  0.2039 -1.6214
    8CHTO   O55 3128   5.664   9.944   1.113  0.3510  0.0251 -0.2460
    8CHTO  H134 3129   5.593   9.958   1.172  1.2579 -3.9002  1.9609
    8CHTO   C84 3130   5.793   9.933   1.328 -0.1774 -0.3185 -0.4116
    8CHTO  H156 3131   5.789   9.824   1.330 -1.1590 -0.2541  1.6033
    8CHTO   N15 3132   5.676   9.991   1.412 -0.3151 -0.0140  0.0754
    8CHTO  H143 3133   5.576   9.968   1.380 -0.2099 -0.1439 -0.1603
    8CHTO  H144 3134   5.689   9.981   1.518 -0.3417 -1.0711 -0.0184
    8CHTO   C87 3135   5.929   9.977   1.387  0.0472 -0.1205 -0.5360
    8CHTO  H159 3136   5.945  10.083   1.409 -0.9406 -0.0554 -0.0905
    8CHTO   O53 3137   6.043   9.931   1.300  0.5474  0.0405  0.7870
    8CHTO   C82 3138   6.034   9.988   1.169  0.3267 -0.2987  0.3153
    8CHTO  H154 3139   6.043  10.096   1.176 -1.6821 -0.2138  2.1576
    8CHTO   C89 3140   6.158   9.934   1.089 -0.2496 -0.1767 -0.8260
    8CHTO   O59 3141   6.284   9.995   1.121 -0.1192  0.3856  0.3065
    8CHTO  H137 3142   6.321   9.955   1.197  0.0291  0.4122  0.2479
    8CHTO   O45 3143   5.944   9.879   1.547  0.0050  0.4969 -0.5718
    8CHTO   C67 3144   5.980   9.742   1.533  0.2982  0.4346 -0.6229
    8CHTO  H124 3145   5.961   9.710   1.431  0.7679 -1.4953 -0.1162
    8CHTO   C65 3146   6.131   9.712   1.568 -0.2236  0.3133 -0.1794
    8CHTO  H122 3147   6.186   9.805   1.559  2.2740 -1.2145 -1.1621
    8CHTO   O44 3148   6.167   9.603   1.478 -0.2823  0.2327 -0.1091
    8CHTO  H102 3149   6.186   9.642   1.395 -1.2807  0.3365 -0.2928
    8CHTO   C63 3150   6.140   9.657   1.723  0.5075  0.2588 -0.5314
    8CHTO  H120 3151   6.098   9.737   1.785 -1.3464 -0.3901 -0.9224
    8CHTO   N11 3152   6.274   9.642   1.787 -0.4679  0.0985 -0.5051
    8CHTO  H108 3153   6.333   9.732   1.791 -1.3190  0.5616  1.9595
    8CHTO  H109 3154   6.334   9.565   1.742 -2.2989 -2.3618  1.1594
    8CHTO   C61 3155   6.050   9.528   1.743 -0.7889 -0.1525 -0.4838
    8CHTO  H118 3156   6.009   9.536   1.844  0.6860  1.3131  0.0259
    8CHTO   O40 3157   5.938   9.528   1.654  0.5670  0.4129  0.0401
    8CHTO   C68 3158   5.881   9.660   1.627 -0.1477  0.3082 -0.1437
    8CHTO  H125 3159   5.861   9.706   1.727 -1.3171  0.6290 -0.5224
    8CHTO   C72 3160   5.744   9.622   1.560  0.1150 -0.0075  0.2638
    8CHTO   O48 3161   5.634   9.671   1.631 -0.3829 -0.2970 -0.3938
    8CHTO  H105 3162   5.637   9.632   1.716  0.9815 -0.1973 -0.3738
    8CHTO   O38 3163   6.124   9.406   1.710  0.1320 -0.4902  0.1854
    8CHTO   C55 3164   6.048   9.284   1.742  0.3258 -0.1226  0.7232
    8CHTO  H112 3165   5.940   9.301   1.732  0.7698  1.5386 -1.8241
    8CHTO   C56 3166   6.085   9.216   1.877 -0.4741  0.9512 -0.0269
    8CHTO  H113 3167   6.189   9.182   1.870 -0.6167  0.0976  1.7949
    8CHTO   O42 3168   6.083   9.303   1.988 -0.4640 -0.2705 -0.6297
    8CHTO  H100 3169   6.166   9.345   1.996 -0.1912 -0.4460 -2.3829
    8CHTO   C57 3170   5.993   9.084   1.896  0.2255 -0.6590  0.6427
    8CHTO  H114 3171   5.892   9.123   1.900  0.1097 -1.1027  2.4583
    8CHTO   N10 3172   6.024   9.009   2.017 -0.0634  0.2884 -0.7614
    8CHTO  H106 3173   5.996   8.905   2.013 -1.8101  0.7846 -1.6357
    8CHTO  H107 3174   5.965   9.055   2.094 -4.7268  0.6481 -4.3356
    8CHTO   C58 3175   6.018   8.992   1.771 -0.9449  0.1702 -0.1470
    8CHTO  H115 3176   6.122   8.955   1.772 -0.3286  1.7956 -1.6979
    8CHTO   O37 3177   6.011   9.054   1.647  0.1043 -0.4805 -0.4209
    8CHTO   C59 3178   6.083   9.180   1.625 -0.0329  0.5321  0.2318
    8CHTO  H116 3179   6.189   9.159   1.617 -0.2836 -1.1698  1.0652
    8CHTO   C70 3180   6.030   9.238   1.494 -0.5774 -0.5279  0.1366
    8CHTO   O46 3181   6.048   9.133   1.402  0.7758  0.2258  0.1481
    8CHTO  H103 3182   6.117   9.156   1.344  1.4531  1.0360  1.2638
    8CHTO   O39 3183   5.910   8.863   1.773  0.5622 -0.2602  0.0785
    8CHTO   C60 3184   5.773   8.899   1.744 -0.2125  0.0993  0.7793
    8CHTO  H117 3185   5.757   8.986   1.807  3.2860  2.3871 -1.2772
    8CHTO   C62 3186   5.746   8.936   1.595 -0.1793 -0.1003 -0.5206
    8CHTO  H119 3187   5.796   9.029   1.563  2.2815 -1.7986 -1.8294
    8CHTO   O43 3188   5.792   8.833   1.504  0.2768  0.1736  0.9108
    8CHTO  H101 3189   5.882   8.841   1.478 -0.4723 -0.4620 -2.0915
    8CHTO   C66 3190   5.587   8.958   1.574 -0.1315 -0.0946 -0.2142
    8CHTO  H123 3191   5.552   9.029   1.650  1.2873  0.4787 -0.0745
    8CHTO   N12 3192   5.539   9.002   1.440 -0.4481 -0.6754 -0.1275
    8CHTO  H110 3193   5.547   9.109   1.435  0.1760 -0.4539  3.9143
    8CHTO  H111 3194   5.439   8.971   1.412  0.0222 -1.4686 -0.9889
    8CHTO   C69 3195   5.516   8.826   1.613 -0.6218 -0.5491  0.1905
    8CHTO  H126 3196   5.551   8.734   1.563 -1.1315  0.6300 -2.4245
    8CHTO   O41 3197   5.536   8.809   1.748  0.5502  0.7936 -0.5202
    8CHTO   C64 3198   5.678   8.779   1.787  0.5141  0.3360 -0.5389
    8CHTO  H121 3199   5.715   8.685   1.741  2.4892 -0.1543  1.9451
    8CHTO   C71 3200   5.672   8.763   1.939  0.1643  0.5532 -0.6268
    8CHTO   O47 3201   5.585   8.651   1.972  0.0253  0.2395 -0.2474
    8CHTO  H104 3202   5.639   8.575   1.978 -2.8224 -1.8875 -0.4170
    8CHTO   O34 3203   5.360   8.824   1.598  0.1935 -0.2976  0.0095
    8CHTO   C49 3204   5.235   8.839   1.678  0.3996  0.2431  0.3206
    8CHTO   H91 3205   5.238   8.757   1.750 -0.7186  1.0246  1.2734
    8CHTO   C47 3206   5.117   8.833   1.587 -0.2596 -1.1880 -0.0392
    8CHTO   H89 3207   5.030   8.834   1.655 -0.0248 -2.9338  0.2907
    8CHTO   O33 3208   5.126   8.705   1.521 -0.2398 -0.0902  0.2338
    8CHTO   H70 3209   5.211   8.691   1.484 -0.2029 -0.9323  0.6342
    8CHTO   C45 3210   5.111   8.956   1.493  0.5332  0.6612  0.1099
    8CHTO   H87 3211   5.193   8.945   1.420 -0.4728  0.1489 -0.9705
    8CHTO    N8 3212   4.981   8.954   1.413  0.2426 -0.0483 -0.5969
    8CHTO   H75 3213   4.933   8.858   1.422  0.1287 -0.0883 -1.6393
    8CHTO   H76 3214   5.014   8.968   1.311  0.5585  0.5648 -0.4135
    8CHTO   C43 3215   5.139   9.094   1.565 -0.1514 -0.6493 -0.3823
    8CHTO   H85 3216   5.177   9.153   1.481 -0.3140  1.5659  1.0535
    8CHTO   O29 3217   5.231   9.091   1.672 -0.4407  0.1790 -0.1108
    8CHTO   C50 3218   5.236   8.975   1.753 -0.3546 -0.3431 -0.3850
    8CHTO   H92 3219   5.337   8.991   1.795  0.3120 -0.9745 -1.7148
    8CHTO   C54 3220   5.145   8.972   1.882 -0.7271 -0.1907  0.2909
    8CHTO   O36 3221   5.008   8.999   1.856 -0.0264  0.1232 -0.1964
    8CHTO   H72 3222   4.955   8.990   1.932  0.3877 -0.3754  0.0389
    8CHTO   O27 3223   5.029   9.169   1.616  0.6418 -0.0991 -0.3254
    8CHTO   C37 3224   4.961   9.282   1.671 -0.1809 -0.1950 -0.3209
    8CHTO   H79 3225   4.885   9.256   1.746 -1.8141 -0.3018 -1.9681
    8CHTO   C38 3226   5.054   9.385   1.740 -0.6463  0.6227 -0.0408
    8CHTO   H80 3227   5.134   9.416   1.671 -1.5533  2.3196 -0.3513
    8CHTO   O31 3228   5.096   9.316   1.860 -0.0884 -0.7850  0.2395
    8CHTO   H68 3229   5.166   9.366   1.897  0.3675 -0.8382 -0.5246
    8CHTO   C39 3230   4.973   9.517   1.779 -0.4957 -0.8499  0.1524
    8CHTO   H81 3231   4.899   9.470   1.844 -0.1531 -2.1531 -0.3912
    8CHTO    N7 3232   5.046   9.624   1.853 -0.3507 -0.1169  0.1687
    8CHTO   H73 3233   4.986   9.714   1.861 -2.4694 -1.4615 -0.2118
    8CHTO   H74 3234   5.052   9.598   1.958  1.3063  2.8463  0.8613
    8CHTO   C40 3235   4.909   9.571   1.651 -0.3472 -0.0237 -0.3606
    8CHTO   H82 3236   4.981   9.606   1.578  1.2244  0.9507  1.6209
    8CHTO   O26 3237   4.824   9.475   1.589 -0.2634  0.4058  0.4437
    8CHTO   C41 3238   4.891   9.355   1.545 -0.3318  0.4182 -0.2166
    8CHTO   H83 3239   4.962   9.381   1.465  0.6466  0.2980  0.6166
    8CHTO   C52 3240   4.782   9.258   1.490  0.1414  0.3742  0.4562
    8CHTO   O35 3241   4.664   9.226   1.588  0.0231 -0.5594 -0.4656
    8CHTO   H71 3242   4.655   9.304   1.640  2.0512  0.2595 -1.3021
    8CHTO   O28 3243   4.811   9.671   1.674  0.8747  0.5692  0.4744
    8CHTO   C42 3244   4.773   9.762   1.567 -0.0772 -0.5364  0.2274
    8CHTO   H84 3245   4.709   9.840   1.608  0.6417  0.8523 -1.2140
    8CHTO   C44 3246   4.690   9.701   1.444 -0.4869 -0.0783  0.3595
    8CHTO   H86 3247   4.755   9.636   1.384  0.8228  1.9033 -0.4095
    8CHTO   O32 3248   4.577   9.630   1.507  0.8374  0.1289 -0.6057
    8CHTO   H69 3249   4.610   9.557   1.555  1.9770  0.5205 -0.7702
    8CHTO   C48 3250   4.637   9.816   1.343  0.2046  0.0550  0.6573
    8CHTO   H90 3251   4.587   9.894   1.399 -0.0461 -0.3008  0.9337
    8CHTO    N9 3252   4.531   9.770   1.236 -0.2531 -0.2499  0.0202
    8CHTO   H77 3253   4.569   9.797   1.139  0.0194 -0.2310  0.1318
    8CHTO   H78 3254   4.434   9.818   1.238 -0.3512 -0.4630  0.6434
    8CHTO   C51 3255   4.758   9.880   1.282  0.1164  0.1500  0.0243
    8CHTO   H93 3256   4.823   9.806   1.235 -0.3330 -0.7502  0.8015
    8CHTO   O30 3257   4.825   9.946   1.387 -0.2927 -0.1298 -0.1004
    8CHTO   C46 3258   4.889   9.841   1.492 -0.1132  0.1549  0.2147
    8CHTO   H88 3259   4.954   9.772   1.438 -0.8426 -1.6958  1.6392
    8CHTO   C53 3260   4.967   9.930   1.588  0.9551  0.0545 -0.2918
    8CHTO   O72 3261   5.069  10.017   1.534  0.6653 -0.3963  0.0595
    8CHTO  H199 3262   5.095  10.080   1.598  1.6923  0.0780 -0.8032
    8CHTO   O22 3263   4.735   9.986   1.184 -0.0070  0.2863  0.4176
    8CHTO   C31 3264   4.831  10.028   1.079  0.1405 -0.2374  0.0214
    8CHTO   H59 3265   4.781  10.115   1.033 -0.0400 -0.1289  0.4165
    8CHTO   C29 3266   4.975  10.070   1.128 -0.4742  0.2709 -0.8628
    8CHTO   H57 3267   5.011  10.002   1.207 -0.0253  1.3977 -0.0824
    8CHTO   O21 3268   4.961  10.190   1.196  0.5546 -0.4715  0.0176
    8CHTO   H37 3269   5.022  10.256   1.169  0.6447 -1.2584 -1.7710
    8CHTO   C27 3270   5.079  10.075   1.009  0.4176  0.3885 -0.2921
    8CHTO   H55 3271   5.048  10.150   0.935 -2.7485  0.6949  1.2639
    8CHTO    N5 3272   5.215  10.107   1.055  0.6507  0.1402  0.0287
    8CHTO   H43 3273   5.216  10.213   1.077  1.2974  0.9856 -3.6500
    8CHTO   H44 3274   5.242  10.063   1.149  0.8684 -0.9519 -0.5390
    8CHTO   C25 3275   5.073   9.941   0.929  0.1311  0.7327  0.1592
    8CHTO   H53 3276   5.094   9.865   1.006  2.7992  1.8971  0.6500
    8CHTO   O17 3277   4.941   9.933   0.871  0.4859  0.4570  0.3012
    8CHTO   C32 3278   4.832   9.924   0.962 -0.6343 -0.7836  0.1212
    8CHTO   H60 3279   4.828   9.826   1.011  0.1724  0.0487  1.9065
    8CHTO   C36 3280   4.698   9.937   0.884 -0.2196 -0.0902 -0.0535
    8CHTO   O25 3281   4.695  10.056   0.805 -0.4890 -0.3545 -0.0525
    8CHTO   H40 3282   4.640  10.037   0.732  0.8880 -0.4896 -1.0616
    8CHTO   O15 3283   5.182   9.915   0.826 -0.6273  0.0679 -0.4516
    8CHTO   C19 3284   5.231   9.880   0.697  0.2921 -0.1803 -0.2113
    8CHTO   H47 3285   5.175   9.794   0.657  2.5641 -0.8722 -2.0216
    8CHTO   C20 3286   5.207   9.982   0.588  0.0427  0.1531  0.2130
    8CHTO   H48 3287   5.254  10.080   0.607  0.4327  0.4819 -2.3784
    8CHTO   O19 3288   5.060  10.010   0.589 -0.3985  0.4393 -0.5700
    8CHTO   H35 3289   5.024  10.049   0.512 -2.2987  0.8295  0.4918
    8CHTO   C21 3290   5.253   9.928   0.438 -0.5837  0.2944 -0.0764
    8CHTO   H49 3291   5.176   9.856   0.413 -3.0447  2.4691  0.9432
    8CHTO    N4 3292   5.245  10.040   0.346 -0.0067  0.9543 -0.0635
    8CHTO   H41 3293   5.314  10.110   0.390  2.2900 -0.2228 -1.6568
    8CHTO   H42 3294   5.143  10.074   0.350 -0.4811 -0.2722 -1.1391
    8CHTO   C22 3295   5.391   9.861   0.446 -0.2848 -0.1686 -0.1548
    8CHTO   H50 3296   5.470   9.935   0.439  0.3860 -0.7592  0.9899
    8CHTO   O14 3297   5.394   9.777   0.563  0.6487 -0.3743 -0.4236
    8CHTO   C23 3298   5.377   9.841   0.691 -0.7772 -0.4007 -0.2658
    8CHTO   H51 3299   5.444   9.928   0.695 -1.6996  0.3241 -0.5969
    8CHTO   C34 3300   5.406   9.744   0.807 -0.3058 -0.4214 -0.3798
    8CHTO   O23 3301   5.545   9.723   0.795 -0.2701  0.6375  0.1832
    8CHTO   H38 3302   5.567   9.643   0.837 -2.5451  0.6241  1.3813
    8CHTO   O16 3303   5.408   9.771   0.328 -0.0019  0.2564 -0.7005
    8CHTO   C24 3304   5.552   9.693   0.321 -0.1403 -0.4150  0.0938
    8CHTO   H52 3305   5.599   9.687   0.420 -0.7010 -2.0898  0.2770
    8CHTO   C26 3306   5.652   9.756   0.224  0.1439  0.4155 -0.0023
    8CHTO   H54 3307   5.610   9.760   0.122 -2.8411 -1.5045  1.0819
    8CHTO   O20 3308   5.676   9.887   0.276  0.2587 -0.3230 -0.0906
    8CHTO   H36 3309   5.764   9.916   0.260  0.7274 -0.4225  2.2389
    8CHTO   C30 3310   5.779   9.668   0.208  0.6394 -0.6068  0.2780
    8CHTO   H58 3311   5.830   9.656   0.305  0.5655  0.3792  0.4454
    8CHTO    N6 3312   5.885   9.729   0.118  0.2411 -0.6025 -0.4613
    8CHTO   H45 3313   5.909   9.828   0.155  1.4116 -1.1800  0.3434
    8CHTO   H46 3314   5.847   9.741   0.018  2.0059 -0.8123 -1.1849
    8CHTO   C33 3315   5.744   9.529   0.160 -0.3232  0.7364  0.3672
    8CHTO   H61 3316   5.690   9.528   0.064  0.8287 -1.1899 -0.2750
    8CHTO   O18 3317   5.652   9.473   0.259 -0.0229 -1.4482 -0.5114
    8CHTO   C28 3318   5.525   9.549   0.268  0.1346 -0.4354 -0.5021
    8CHTO   H56 3319   5.484   9.560   0.168  1.5225  3.1962 -0.7401
    8CHTO   C35 3320   5.440   9.470   0.369 -0.1640 -0.2570  0.6565
    8CHTO   O24 3321   5.502   9.439   0.491 -0.5058  0.0358  0.1338
    8CHTO   H39 3322   5.509   9.346   0.484  0.2950  0.2317 -2.0872
    8CHTO    O9 3323   5.856   9.438   0.132  0.5182 -0.1564  0.0993
    8CHTO   C13 3324   5.825   9.333   0.026  0.3634  0.1747 -0.5822
    8CHTO   H26 3325   5.764   9.383  -0.052 -1.4149  0.9808  1.2504
    8CHTO   C11 3326   5.745   9.216   0.094 -0.1193  0.8662 -0.0631
    8CHTO   H24 3327   5.649   9.261   0.124 -1.7316 -1.2499 -1.9046
    8CHTO    O8 3328   5.821   9.174   0.212 -0.2659 -0.5828  0.5562
    8CHTO    H3 3329   5.814   9.237   0.281 -0.1653 -0.5795  0.5646
    8CHTO    C9 3330   5.728   9.114  -0.020 -0.7389  0.2197 -0.4129
    8CHTO   H22 3331   5.681   9.167  -0.104 -0.0576 -0.1021 -0.9973
    8CHTO    N2 3332   5.620   9.017   0.006 -0.2504 -0.1201  0.9196
    8CHTO   H10 3333   5.588   8.977  -0.090  0.2121  3.1451 -0.6591
    8CHTO   H11 3334   5.656   8.941   0.074  2.2406  0.3871  0.2223
    8CHTO    C7 3335   5.862   9.049  -0.063 -0.4596 -0.4629  0.4618
    8CHTO   H20 3336   5.848   9.031  -0.172  1.9189  0.9791 -0.1217
    8CHTO    O4 3337   5.976   9.131  -0.031 -0.0505 -0.4023 -0.4041
    8CHTO   C14 3338   5.951   9.272  -0.041 -0.2408 -0.6894  0.1124
    8CHTO   H27 3339   5.955   9.291  -0.151 -0.3973  1.9272  0.5264
    8CHTO   C18 3340   6.076   9.342   0.019  0.2200  0.2453 -0.4447
    8CHTO   O13 3341   6.169   9.347  -0.091 -0.3040  0.2278 -0.1595
    8CHTO    H7 3342   6.232   9.278  -0.088  1.4912  1.8803  1.1399
    8CHTO    O2 3343   5.885   8.900   0.019 -0.4479 -0.1943  0.5062
    8CHTO    C1 3344   6.008   8.828   0.009 -0.3313  0.1579 -0.2867
    8CHTO   H14 3345   6.089   8.904  -0.001  0.1850 -0.2773  0.5479
    8CHTO    C2 3346   6.017   8.735  -0.111 -0.4867 -0.4600  0.8934
    8CHTO   H15 3347   5.922   8.681  -0.116 -0.7836  0.1418 -0.0048
    8CHTO    O6 3348   6.034   8.810  -0.237  0.3182  0.4002 -0.2071
    8CHTO    H1 3349   6.123   8.822  -0.264 -0.7350  1.9156 -3.2282
    8CHTO    C3 3350   6.139   8.638  -0.104  0.1296  0.0555  0.2831
    8CHTO   H16 3351   6.233   8.688  -0.132 -0.3141  1.0251  0.5135
    8CHTO    N1 3352   6.121   8.528  -0.211  0.4120 -0.3473  0.2208
    8CHTO    H8 3353   6.095   8.430  -0.174  3.1291 -1.2977 -0.3047
    8CHTO    H9 3354   6.217   8.520  -0.260  0.3705 -2.4206  0.4491
    8CHTO    C4 3355   6.159   8.580   0.032 -0.0203  0.8148 -0.5499
    8CHTO   H17 3356   6.084   8.503   0.051 -0.0081  1.3612  1.8329
    8CHTO    O1 3357   6.150   8.680   0.129  0.4074  0.1023 -0.2682
    8CHTO    C5 3358   6.027   8.743   0.142 -0.2139  0.3085  0.2204
    8CHTO   H18 3359   5.954   8.664   0.153  1.1672 -1.0489 -0.1967
    8CHTO   C16 3360   6.022   8.827   0.271  0.7221 -0.3349 -0.1854
    8CHTO   O11 3361   5.897   8.886   0.298 -0.0255 -0.3328  0.5336
    8CHTO    H5 3362   5.831   8.823   0.318  1.1268 -1.2508  1.5703
    8CHTO    O3 3363   6.294   8.526   0.036  0.0886  0.3142  0.2781
    8CHTO    C6 3364   6.299   8.421   0.141 -0.0263  0.3336  0.1678
    8CHTO   H19 3365   6.205   8.412   0.196  0.6763  0.9479  1.4652
    8CHTO    C8 3366   6.325   8.280   0.064 -0.0544  0.3960  0.2755
    8CHTO   H21 3367   6.402   8.292  -0.012  1.1290 -4.4884  0.5469
    8CHTO    O7 3368   6.211   8.237  -0.011 -0.2455  0.0712 -0.1916
    8CHTO    H2 3369   6.160   8.311  -0.038 -2.0399 -0.5822  1.2987
    8CHTO   C12 3370   6.376   8.170   0.164 -0.1477 -0.2526 -0.6023
    8CHTO   H25 3371   6.297   8.145   0.238 -1.3497  2.9707 -0.7104
    8CHTO    N3 3372   6.406   8.043   0.101 -0.5148  0.4372  0.6228
    8CHTO   H12 3373   6.502   8.004   0.132 -0.3271 -0.0057 -0.4917
    8CHTO   H13 3374   6.323   7.975   0.099 -0.5152  0.4730 -1.5876
    8CHTO   C15 3375   6.495   8.241   0.237  0.5440 -0.5132  0.1781
    8CHTO   H28 3376   6.560   8.279   0.158 -0.4084 -0.4489 -0.5814
    8CHTO   O10 3377   6.595   8.127   0.329  0.2553  0.3253 -0.8455
    8CHTO    H4 3378   6.564   8.040   0.314 -1.1467  0.7096 -0.2872
    8CHTO    O5 3379   6.444   8.347   0.322  0.0950  0.6812 -0.0309
    8CHTO   C10 3380   6.406   8.459   0.244  0.3042  0.5794 -0.3253
    8CHTO   H23 3381   6.496   8.492   0.193  0.2580 -0.6652 -1.2348
    8CHTO   C17 3382   6.372   8.572   0.336 -0.0856  0.0913  0.4923
    8CHTO   O12 3383   6.236   8.578   0.386  0.2514  0.4997 -0.5502
    8CHTO    H6 3384   6.195   8.494   0.389 -0.9200  1.0207 -1.8236
    9CHTO  H203 3385   8.704   4.065   3.405  0.9007 -0.0976 -0.7395
    9CHTO   O82 3386   8.657   4.018   3.339 -0.2247 -0.0991  0.0468
    9CHTO  C123 3387   8.741   3.908   3.300 -0.3724  0.0326 -0.2529
    9CHTO  H227 3388   8.830   3.911   3.366  1.4628  0.8883 -2.6809
    9CHTO   O77 3389   8.661   3.792   3.316 -0.0715  0.1869 -0.1690
    9CHTO  C118 3390   8.704   3.666   3.270  0.1930 -0.6588  0.1075
    9CHTO  H222 3391   8.801   3.630   3.308  0.0792  0.6394  1.6555
    9CHTO  C125 3392   8.595   3.558   3.307 -0.4964  0.5053 -0.5228
    9CHTO   O84 3393   8.587   3.545   3.448 -0.0479 -0.4376  0.4712
    9CHTO  H205 3394   8.523   3.480   3.467  0.4836 -1.4117 -0.9692
    9CHTO  C114 3395   8.732   3.676   3.122 -0.1091  0.4456  0.0503
    9CHTO  H218 3396   8.638   3.687   3.067 -0.8499 -2.0054  0.7629
    9CHTO  C116 3397   8.833   3.787   3.080 -0.7553 -0.9986 -0.0811
    9CHTO  H220 3398   8.933   3.754   3.114  0.0598  1.4521 -0.0494
    9CHTO   O79 3399   8.852   3.801   2.933  0.7784  1.0086  0.2171
    9CHTO  H201 3400   8.793   3.869   2.907 -1.1333 -0.3338  0.9021
    9CHTO  C120 3401   8.787   3.924   3.147  0.3381  0.3620 -0.2729
    9CHTO  H224 3402   8.699   3.950   3.086  0.2410  1.6942  0.4004
    9CHTO   N21 3403   8.889   4.026   3.126 -0.3546 -0.3367 -0.2652
    9CHTO  H211 3404   8.960   3.995   3.051 -1.0377 -0.2525 -0.9546
    9CHTO  H212 3405   8.840   4.119   3.099 -0.4935 -0.0347  0.9965
    9CHTO   O75 3406   8.788   3.554   3.078 -0.0736  0.1253 -0.2485
    9CHTO  C112 3407   8.709   3.495   2.933 -0.1643  0.2519 -0.0589
    9CHTO  H216 3408   8.689   3.579   2.864 -2.0668  1.2055  1.5992
    9CHTO   O73 3409   8.593   3.420   2.967 -0.9218 -0.0911 -0.4223
    9CHTO  C113 3410   8.529   3.363   2.853  0.2848  0.7390 -0.1600
    9CHTO  H217 3411   8.485   3.449   2.798 -1.6468  0.1929  0.4949
    9CHTO  C124 3412   8.406   3.293   2.903  0.1064  0.3447 -0.1882
    9CHTO   O83 3413   8.319   3.360   2.994  0.3291  0.1577 -0.4594
    9CHTO  H204 3414   8.284   3.295   3.051 -0.1035  0.5430 -0.2872
    9CHTO  C109 3415   8.625   3.275   2.766  0.6248 -0.0604 -0.3079
    9CHTO  H213 3416   8.648   3.183   2.823 -1.1671 -0.8644 -0.8627
    9CHTO  C110 3417   8.759   3.350   2.731  0.2565  0.4733 -0.6850
    9CHTO  H214 3418   8.745   3.425   2.654 -1.2766  0.5809 -0.3197
    9CHTO   O78 3419   8.861   3.257   2.688 -0.0906  0.2306  0.4855
    9CHTO  H200 3420   8.834   3.167   2.686 -0.4870  0.3657 -1.0905
    9CHTO  C111 3421   8.819   3.408   2.862 -0.3805 -0.2917 -0.0030
    9CHTO  H215 3422   8.851   3.327   2.929 -0.6495  0.7922  1.4793
    9CHTO   N19 3423   8.939   3.499   2.832 -0.2980  0.4068  1.0611
    9CHTO  H207 3424   8.968   3.571   2.907  1.6642  0.6948  0.0528
    9CHTO  H208 3425   9.023   3.431   2.831 -0.7641 -0.1634  0.4820
    9CHTO   O74 3426   8.558   3.237   2.651  0.1478  0.0306 -0.4821
    9CHTO  C115 3427   8.609   3.095   2.578  0.0658 -0.2943  0.3218
    9CHTO  H219 3428   8.694   3.054   2.631 -0.2969  0.8426  1.8180
    9CHTO   O76 3429   8.498   2.980   2.579 -0.7789 -0.0234  0.5671
    9CHTO  C122 3430   8.374   3.006   2.515  0.0908 -0.2822  0.4888
    9CHTO  H226 3431   8.329   3.096   2.559  0.5754 -0.2451  0.9118
    9CHTO  C126 3432   8.274   2.883   2.534  0.7561 -0.0871  0.4927
    9CHTO   O85 3433   8.144   2.885   2.474  0.9114 -0.6263 -0.4368
    9CHTO  H206 3434   8.132   2.976   2.459  0.7942 -0.0777  2.5840
    9CHTO  C121 3435   8.417   3.045   2.366 -0.0073 -0.8790 -0.1993
    9CHTO  H225 3436   8.454   2.958   2.308 -1.9198 -1.0727 -1.1776
    9CHTO   O81 3437   8.295   3.090   2.298  0.1377  0.4199 -0.5107
    9CHTO  H202 3438   8.249   3.146   2.359  1.2030 -0.7322  1.3962
    9CHTO  C119 3439   8.516   3.167   2.354  0.1772  0.0202 -0.1375
    9CHTO  H223 3440   8.528   3.180   2.246  1.3437  0.9282  0.0941
    9CHTO  C117 3441   8.652   3.132   2.431  0.7426  0.0553 -0.3407
    9CHTO  H221 3442   8.718   3.218   2.442 -0.6316  1.0642  0.1013
    9CHTO   N20 3443   8.731   3.015   2.368  0.6936 -1.0394 -0.3135
    9CHTO  H209 3444   8.677   2.977   2.282 -1.2354 -1.4520  1.0298
    9CHTO  H210 3445   8.828   3.039   2.329  1.4330 -1.8375  0.9925
    9CHTO   O80 3446   8.452   3.291   2.391  0.0109  0.6304  0.1320
    9CHTO  C103 3447   8.515   3.427   2.375  0.2685 -0.6299 -0.6361
    9CHTO  H190 3448   8.559   3.451   2.472  0.8511  0.9927 -1.2814
    9CHTO  C101 3449   8.617   3.455   2.260 -0.0044  0.5415 -0.5469
    9CHTO  H188 3450   8.569   3.429   2.166 -0.2476  0.1448 -0.3148
    9CHTO   O68 3451   8.747   3.375   2.279 -0.3445  0.2214  0.2051
    9CHTO  H168 3452   8.802   3.428   2.333 -0.2906  0.9156 -0.5222
    9CHTO   C99 3453   8.642   3.613   2.239 -0.0683 -0.7996  0.2152
    9CHTO  H186 3454   8.687   3.652   2.333  2.1216 -1.8154 -0.3829
    9CHTO   N17 3455   8.742   3.639   2.124 -0.0053  0.1796 -0.5598
    9CHTO  H174 3456   8.837   3.680   2.154  0.7555 -0.8362 -1.5601
    9CHTO  H175 3457   8.704   3.688   2.037 -0.2918  0.5420 -0.2302
    9CHTO   C97 3458   8.502   3.685   2.228  0.4091 -0.6697  0.1557
    9CHTO  H184 3459   8.450   3.641   2.141  0.7025  2.1462 -1.5150
    9CHTO   O64 3460   8.439   3.658   2.351  0.2666  0.0061  0.2335
    9CHTO  C104 3461   8.390   3.522   2.365 -0.2967 -0.1375 -0.0821
    9CHTO  H191 3462   8.331   3.494   2.278 -2.0327 -1.3115  1.4247
    9CHTO  C108 3463   8.289   3.520   2.488 -0.7469 -0.7538 -0.0613
    9CHTO   O71 3464   8.172   3.593   2.461 -0.3602  0.2612  0.4221
    9CHTO  H171 3465   8.103   3.546   2.502 -1.0968  2.3572  1.6520
    9CHTO   O62 3466   8.510   3.826   2.213  0.4498 -0.0632  0.4480
    9CHTO   C91 3467   8.407   3.891   2.135 -0.3873 -0.4384  0.5337
    9CHTO  H178 3468   8.409   3.838   2.039 -0.7951 -1.9990  1.3696
    9CHTO   C92 3469   8.444   4.049   2.112  0.2164 -0.0425 -0.1854
    9CHTO  H179 3470   8.548   4.072   2.086  0.7698 -0.0730  1.9731
    9CHTO   O66 3471   8.378   4.094   1.994 -0.5636  0.1654 -0.6631
    9CHTO  H166 3472   8.285   4.081   1.998 -0.5906  0.9948  2.9074
    9CHTO   C93 3473   8.405   4.141   2.238  0.1818 -0.0575 -0.0095
    9CHTO  H180 3474   8.401   4.246   2.203  0.6552 -0.5433 -1.5574
    9CHTO   N16 3475   8.507   4.139   2.345  0.2606  0.0969 -0.7289
    9CHTO  H172 3476   8.594   4.200   2.327 -0.7541  1.9887  0.6173
    9CHTO  H173 3477   8.468   4.181   2.437 -0.8561  1.5654 -1.8609
    9CHTO   C94 3478   8.268   4.096   2.298 -0.4543  0.0543 -0.2757
    9CHTO  H181 3479   8.275   4.050   2.396 -0.7964  1.1668  0.2748
    9CHTO   O61 3480   8.192   3.999   2.223 -0.0562  0.5698  0.1167
    9CHTO   C95 3481   8.261   3.878   2.197  0.7220  0.4512 -1.2480
    9CHTO  H182 3482   8.268   3.827   2.294  0.2637  1.3187 -0.7502
    9CHTO  C106 3483   8.169   3.790   2.116  0.8316 -0.4780 -0.4063
    9CHTO   O69 3484   8.139   3.839   1.982  0.6592  0.0946 -0.2511
    9CHTO  H169 3485   8.078   3.780   1.942  0.6799  0.0518 -0.2204
    9CHTO   O63 3486   8.195   4.222   2.294 -0.1847  0.3540 -0.6745
    9CHTO   C96 3487   8.065   4.237   2.393  0.2919 -0.5309 -0.5160
    9CHTO  H183 3488   8.100   4.228   2.496  2.5343  2.3501 -0.9709
    9CHTO   C98 3489   7.942   4.141   2.371  0.0197 -0.9976 -0.6579
    9CHTO  H185 3490   7.936   4.126   2.262 -0.0121  0.8390 -0.9196
    9CHTO   O67 3491   7.991   4.020   2.432  1.0047  0.8063  0.0191
    9CHTO  H167 3492   7.968   3.941   2.387  1.6759  0.6913 -0.1336
    9CHTO  C102 3493   7.810   4.193   2.440 -0.1066 -0.0581  0.3415
    9CHTO  H189 3494   7.837   4.192   2.547  0.9333  2.9549  0.1530
    9CHTO   N18 3495   7.692   4.106   2.425 -1.0640  0.3484 -0.2531
    9CHTO  H176 3496   7.686   4.085   2.320  1.5542 -0.5543 -0.2517
    9CHTO  H177 3497   7.605   4.155   2.467 -0.9706  1.0538 -0.8757
    9CHTO  C105 3498   7.791   4.340   2.397  0.2831  0.0435  0.1872
    9CHTO  H192 3499   7.772   4.346   2.290 -1.9081  3.1079  0.6765
    9CHTO   O65 3500   7.902   4.427   2.436  0.3203 -0.2814 -0.7779
    9CHTO  C100 3501   8.028   4.395   2.372  0.1176 -0.2072 -0.2632
    9CHTO  H187 3502   8.033   4.427   2.267 -2.6598  1.0068 -0.0616
    9CHTO  C107 3503   8.137   4.485   2.441 -0.4670  0.3223 -0.5763
    9CHTO   O70 3504   8.155   4.468   2.583  0.4946 -0.3157  0.0276
    9CHTO  H170 3505   8.101   4.397   2.613  1.8290 -1.6333 -0.6373
    9CHTO   O57 3506   7.652   4.401   2.489  0.0552 -0.3104  0.0460
    9CHTO   C85 3507   7.583   4.506   2.420  0.1260  0.2448  0.4863
    9CHTO  H157 3508   7.585   4.490   2.310 -0.1696 -1.0994  0.6671
    9CHTO   C83 3509   7.652   4.641   2.451 -0.2206 -0.0201  0.3448
    9CHTO  H155 3510   7.737   4.644   2.382  1.0536 -1.9714  1.7666
    9CHTO   O56 3511   7.705   4.644   2.584  0.2617  0.1251  0.0187
    9CHTO  H135 3512   7.634   4.628   2.643  0.3929  0.4867  0.2759
    9CHTO   C81 3513   7.567   4.759   2.413  0.3704  0.5889 -0.0966
    9CHTO  H153 3514   7.533   4.734   2.312  0.7727  0.6812 -0.2552
    9CHTO   N14 3515   7.635   4.889   2.405 -0.3247 -0.3886  0.0590
    9CHTO  H141 3516   7.559   4.956   2.371 -0.1623 -1.1164 -1.7943
    9CHTO  H142 3517   7.717   4.883   2.337  0.7612  0.7565  1.2620
    9CHTO   C79 3518   7.436   4.760   2.505 -0.3020  0.2049  0.0028
    9CHTO  H151 3519   7.374   4.844   2.472 -1.3474  0.3531  2.2535
    9CHTO   O52 3520   7.350   4.638   2.475  0.0885  0.1206 -0.4020
    9CHTO   C86 3521   7.432   4.516   2.476  0.1083 -0.4162  0.6859
    9CHTO  H158 3522   7.426   4.487   2.583 -0.9797 -2.0755  0.1880
    9CHTO   C90 3523   7.359   4.403   2.399 -0.4981  0.0289 -0.2710
    9CHTO   O60 3524   7.347   4.436   2.263 -0.3581 -0.3213 -0.1122
    9CHTO  H138 3525   7.304   4.368   2.215 -2.9675  0.3409  1.2114
    9CHTO   O50 3526   7.467   4.770   2.644 -0.3803  0.2966 -0.0019
    9CHTO   C73 3527   7.455   4.816   2.783 -0.0985 -0.0068  0.0672
    9CHTO  H145 3528   7.350   4.837   2.808 -1.0511 -2.1990 -1.8494
    9CHTO   C74 3529   7.527   4.954   2.789 -0.0192  0.9012 -0.7446
    9CHTO  H146 3530   7.484   5.024   2.717 -1.7754  0.5698 -0.0376
    9CHTO   O54 3531   7.498   5.007   2.913  0.4329 -0.6116 -0.5855
    9CHTO  H133 3532   7.517   5.098   2.922 -1.6758  0.0378 -2.1496
    9CHTO   C75 3533   7.678   4.931   2.771  0.0118  1.2466 -0.3280
    9CHTO  H147 3534   7.699   4.897   2.668  2.9779  2.4238 -0.1495
    9CHTO   N13 3535   7.766   5.050   2.785  0.2321  0.1259 -0.1306
    9CHTO  H139 3536   7.801   5.074   2.686 -2.9257 -0.7920 -1.5395
    9CHTO  H140 3537   7.705   5.132   2.818  0.7236  0.6495 -0.5211
    9CHTO   C76 3538   7.727   4.816   2.866 -0.4365 -0.5205 -0.2933
    9CHTO  H148 3539   7.725   4.856   2.968 -0.4413 -2.6733  0.5807
    9CHTO   O49 3540   7.652   4.698   2.859 -0.3719  1.1083  0.6148
    9CHTO   C77 3541   7.509   4.713   2.880  0.0512 -0.4830  0.2046
    9CHTO  H149 3542   7.489   4.748   2.981 -0.1897  0.1073 -0.0427
    9CHTO   C88 3543   7.436   4.576   2.868 -0.7375  1.1403  0.1504
    9CHTO   O58 3544   7.310   4.590   2.906 -0.7217  0.1727 -0.0055
    9CHTO  H136 3545   7.263   4.519   2.866 -1.6470  1.7499 -1.7685
    9CHTO   O51 3546   7.860   4.763   2.820  0.3671 -0.6201 -0.4819
    9CHTO   C78 3547   7.942   4.687   2.925 -0.3997  0.0329 -0.6553
    9CHTO  H150 3548   7.888   4.666   3.020  0.5860  2.5237  0.5003
    9CHTO   C80 3549   8.064   4.771   2.967  0.2676  0.0356 -0.1400
    9CHTO  H152 3550   8.105   4.817   2.875 -0.8372 -1.5122 -1.4381
    9CHTO   O55 3551   8.017   4.889   3.034 -0.0325  0.3364  0.1798
    9CHTO  H134 3552   7.942   4.871   3.087  0.6141 -2.1719  0.2966
    9CHTO   C84 3553   8.178   4.699   3.049  0.2549 -0.1676 -0.1063
    9CHTO  H156 3554   8.125   4.685   3.144 -1.0767  1.9534 -0.5184
    9CHTO   N15 3555   8.302   4.781   3.075  0.6737 -0.0902 -0.6211
    9CHTO  H143 3556   8.390   4.721   3.077 -0.4667 -1.8147 -0.5687
    9CHTO  H144 3557   8.316   4.853   2.997 -0.3846  0.0705 -0.6691
    9CHTO   C87 3558   8.202   4.561   2.982  0.5543  0.3251  0.1193
    9CHTO  H159 3559   8.254   4.584   2.889 -0.3926  0.2497 -0.4362
    9CHTO   O53 3560   8.073   4.483   2.958 -0.2642  0.7069  0.1643
    9CHTO   C82 3561   7.990   4.554   2.870 -0.1324 -0.4341 -0.2017
    9CHTO  H154 3562   8.044   4.570   2.777 -0.3510  0.8700 -0.1164
    9CHTO   C89 3563   7.861   4.473   2.827  0.1317 -0.1572 -0.5559
    9CHTO   O59 3564   7.892   4.366   2.738 -0.3030  0.0404  0.2754
    9CHTO  H137 3565   7.840   4.374   2.660 -1.7175  0.8281  1.2908
    9CHTO   O45 3566   8.286   4.474   3.094 -0.7051  0.2411  0.1942
    9CHTO   C67 3567   8.318   4.333   3.071 -0.3697  0.0051 -0.1767
    9CHTO  H124 3568   8.231   4.269   3.092 -1.8817  0.8556 -3.5643
    9CHTO   C65 3569   8.355   4.309   2.916  0.6297  0.0274  0.2294
    9CHTO  H122 3570   8.373   4.406   2.870 -0.7556 -0.4075 -1.2488
    9CHTO   O44 3571   8.240   4.252   2.842  0.2992 -0.2328 -0.4747
    9CHTO  H102 3572   8.275   4.170   2.813 -2.5874 -1.1301 -1.5746
    9CHTO   C63 3573   8.497   4.247   2.907  0.3681 -0.2575  0.2753
    9CHTO  H120 3574   8.572   4.320   2.937 -0.4324 -0.2148  2.2366
    9CHTO   N11 3575   8.545   4.219   2.771  0.2487 -0.0889  0.3861
    9CHTO  H108 3576   8.479   4.208   2.687  1.3672 -1.0477 -0.3741
    9CHTO  H109 3577   8.626   4.284   2.745 -0.3416  0.5730  0.1631
    9CHTO   C61 3578   8.514   4.127   3.010  0.2751 -0.6118  0.5950
    9CHTO  H118 3579   8.623   4.114   3.014  0.2612 -1.2887 -1.0643
    9CHTO   O40 3580   8.472   4.156   3.146  0.0440 -0.8171 -0.6473
    9CHTO   C68 3581   8.432   4.297   3.168  1.0798 -0.5924  0.2797
    9CHTO  H125 3582   8.518   4.361   3.138  0.4966  0.3327  0.5417
    9CHTO   C72 3583   8.410   4.321   3.314  1.2641 -0.0606 -0.6882
    9CHTO   O48 3584   8.518   4.319   3.412  0.5442 -0.6672 -0.2202
    9CHTO  H105 3585   8.477   4.343   3.493 -0.8751 -0.0859 -1.0952
    9CHTO   O38 3586   8.462   4.001   2.962 -0.2388  0.0702  0.5080
    9CHTO   C55 3587   8.337   3.945   3.008 -0.0692 -0.3058  0.4049
    9CHTO  H112 3588   8.260   4.023   3.022 -0.7563 -1.1310  1.3044
    9CHTO   C56 3589   8.347   3.845   3.134  0.1344  0.0905 -0.5811
    9CHTO  H113 3590   8.418   3.774   3.089  1.9649  1.3052  0.2882
    9CHTO   O42 3591   8.398   3.900   3.255  0.4377 -1.0380  0.5180
    9CHTO  H100 3592   8.440   3.982   3.240  0.0353 -1.0196 -0.5483
    9CHTO   C57 3593   8.209   3.784   3.164  0.0423  0.5279 -1.0602
    9CHTO  H114 3594   8.141   3.868   3.178 -0.8218 -0.8127  3.6087
    9CHTO   N10 3595   8.202   3.694   3.285  1.3676 -0.3547  0.3323
    9CHTO  H106 3596   8.117   3.711   3.349  0.5104 -0.4888 -0.7584
    9CHTO  H107 3597   8.215   3.588   3.268  2.0136 -0.1951 -0.2285
    9CHTO   C58 3598   8.156   3.698   3.043  0.1890  0.4008 -0.6284
    9CHTO  H115 3599   8.215   3.604   3.032 -1.4857 -0.8339  0.5934
    9CHTO   O37 3600   8.168   3.775   2.922 -0.6645 -0.3740 -0.1535
    9CHTO   C59 3601   8.285   3.853   2.887  0.7580  0.7871  0.3369
    9CHTO  H116 3602   8.362   3.782   2.859  0.7007  0.9792 -0.3074
    9CHTO   C70 3603   8.250   3.937   2.766  0.2306 -0.1542 -0.5152
    9CHTO   O46 3604   8.259   3.865   2.643  0.4819  0.6272 -0.3541
    9CHTO  H103 3605   8.347   3.842   2.618  0.6136 -1.0434  1.5309
    9CHTO   O39 3606   7.991   3.663   3.063 -0.7022  0.2388 -0.2163
    9CHTO   C60 3607   7.935   3.537   3.029 -0.0657  0.2371 -0.3068
    9CHTO  H117 3608   8.010   3.458   3.034 -1.2860 -0.8252  1.5076
    9CHTO   C62 3609   7.831   3.504   3.140  0.2641  0.2558 -0.3249
    9CHTO  H119 3610   7.891   3.486   3.231 -0.3129 -2.0856 -0.3556
    9CHTO   O43 3611   7.746   3.609   3.139  0.7031 -0.1025  0.3071
    9CHTO  H101 3612   7.698   3.623   3.060  1.0328 -0.1338  0.1032
    9CHTO   C66 3613   7.756   3.363   3.105  0.8403 -0.2062  0.0063
    9CHTO  H123 3614   7.827   3.281   3.108  0.0741 -0.8438  1.1301
    9CHTO   N12 3615   7.667   3.330   3.221  0.2618  0.1774 -0.2112
    9CHTO  H110 3616   7.593   3.406   3.242  0.8494  1.0193 -1.1397
    9CHTO  H111 3617   7.617   3.234   3.217 -1.3313  0.9453  0.7655
    9CHTO   C69 3618   7.688   3.341   2.968 -0.2839  1.0442 -0.3686
    9CHTO  H126 3619   7.585   3.381   2.976 -1.2537 -1.7825  2.3532
    9CHTO   O41 3620   7.770   3.406   2.847  0.4395 -0.1542  0.4226
    9CHTO   C64 3621   7.868   3.530   2.888 -0.8246 -0.3096  0.1538
    9CHTO  H121 3622   7.810   3.623   2.867  0.9184  0.6087 -0.6750
    9CHTO   C71 3623   7.980   3.543   2.784  0.2321  0.4122  0.0501
    9CHTO   O47 3624   7.917   3.533   2.653 -0.0275 -0.6564  0.0736
    9CHTO  H104 3625   7.982   3.562   2.592 -0.3436 -1.9142 -0.8814
    9CHTO   O34 3626   7.680   3.194   2.939 -0.0354 -0.3212 -0.5233
    9CHTO   C49 3627   7.783   3.101   2.840  0.0246 -0.1019 -0.1201
    9CHTO   H91 3628   7.771   3.132   2.736  0.5183 -3.1773 -1.1403
    9CHTO   C47 3629   7.728   2.956   2.856 -0.4515  0.0432  0.0602
    9CHTO   H89 3630   7.795   2.897   2.791  0.2613  2.0110 -1.0427
    9CHTO   O33 3631   7.595   2.935   2.817 -0.0661 -0.7483 -0.2472
    9CHTO   H70 3632   7.581   2.977   2.734  0.7279  0.4735  0.2223
    9CHTO   C45 3633   7.744   2.900   3.006  0.3205  0.1081  0.5813
    9CHTO   H87 3634   7.654   2.921   3.066  1.0795 -1.3994  2.2709
    9CHTO    N8 3635   7.765   2.752   3.003 -0.0545  0.0924 -0.1999
    9CHTO   H75 3636   7.846   2.720   3.067  2.3965  0.6643 -2.9062
    9CHTO   H76 3637   7.793   2.725   2.902 -1.3298 -0.4544 -0.4187
    9CHTO   C43 3638   7.867   2.976   3.082 -0.6117 -0.2683  0.1635
    9CHTO   H85 3639   7.826   3.065   3.128  4.3594  1.1169  2.2731
    9CHTO   O29 3640   7.968   3.006   2.981  0.0816 -0.1047  0.3548
    9CHTO   C50 3641   7.929   3.098   2.879 -0.0150 -0.8991  0.6592
    9CHTO   H92 3642   7.952   3.199   2.916 -3.6234  0.6068 -0.8909
    9CHTO   C54 3643   8.027   3.083   2.762  0.5288  0.3469  0.7444
    9CHTO   O36 3644   8.025   3.196   2.680  0.0834  0.1664  0.3933
    9CHTO   H72 3645   8.039   3.169   2.592  2.0856 -0.3939  0.8643
    9CHTO   O27 3646   7.926   2.918   3.198  0.1580  0.0028  0.5444
    9CHTO   C37 3647   8.000   2.979   3.307 -0.0659 -0.1500  0.7034
    9CHTO   H79 3648   8.038   2.899   3.372 -1.5951 -1.2142  0.3109
    9CHTO   C38 3649   8.133   3.056   3.258 -0.2294  0.1247  0.2067
    9CHTO   H80 3650   8.102   3.128   3.182 -0.2313  0.5143  0.5758
    9CHTO   O31 3651   8.227   2.963   3.204 -0.3177  0.0734 -0.0014
    9CHTO   H68 3652   8.190   2.884   3.169  0.3013  0.7326 -2.1919
    9CHTO   C39 3653   8.198   3.139   3.380 -0.0196 -0.0400 -0.4215
    9CHTO   H81 3654   8.253   3.065   3.437  1.0578 -0.4882 -2.0258
    9CHTO    N7 3655   8.304   3.239   3.338 -0.3384 -0.3153  0.1905
    9CHTO   H73 3656   8.380   3.184   3.285  0.5683 -1.1894  2.3969
    9CHTO   H74 3657   8.253   3.312   3.276  0.4163  1.2706  1.4140
    9CHTO   C40 3658   8.091   3.206   3.466  0.9242  0.2311 -0.6144
    9CHTO   H82 3659   8.055   3.299   3.422 -0.8133  0.0974  0.4412
    9CHTO   O26 3660   7.983   3.116   3.509  0.1441 -0.4003 -0.2517
    9CHTO   C41 3661   7.911   3.066   3.394 -0.7436 -0.4082 -0.1390
    9CHTO   H83 3662   7.872   3.153   3.339  0.4919  0.8553  0.9518
    9CHTO   C52 3663   7.798   2.976   3.458  0.1541 -0.4040 -0.1470
    9CHTO   O35 3664   7.695   3.063   3.534 -0.2252  0.4640 -0.0785
    9CHTO   H71 3665   7.631   3.104   3.479 -0.3000 -0.2418 -0.5172
    9CHTO   O28 3666   8.133   3.244   3.595 -0.0258 -0.2251  0.7622
    9CHTO   C42 3667   8.067   3.359   3.660  0.0860 -0.5462 -0.2219
    9CHTO   H84 3668   8.090   3.349   3.766 -0.1533  0.1099 -0.1027
    9CHTO   C44 3669   7.907   3.357   3.658 -0.2353  0.3280  0.7484
    9CHTO   H86 3670   7.871   3.331   3.559  0.9143  2.3808 -0.2440
    9CHTO   O32 3671   7.882   3.248   3.748  0.4424  0.1127  1.0781
    9CHTO   H69 3672   7.916   3.168   3.714 -1.1335  0.1024 -0.6089
    9CHTO   C48 3673   7.843   3.489   3.705 -0.0161 -0.1386 -0.4224
    9CHTO   H90 3674   7.858   3.505   3.811 -2.0837  0.1545 -0.1488
    9CHTO    N9 3675   7.692   3.479   3.682 -0.2748 -0.4505 -0.1842
    9CHTO   H77 3676   7.648   3.565   3.730 -0.7302 -0.9384  0.2873
    9CHTO   H78 3677   7.668   3.476   3.577  0.1230  1.4461 -0.3479
    9CHTO   C51 3678   7.906   3.604   3.628 -0.3777  0.7198 -0.0200
    9CHTO   H93 3679   7.904   3.585   3.520  1.5876  0.7983 -0.0873
    9CHTO   O30 3680   8.043   3.618   3.677  0.7412  0.1318  0.4603
    9CHTO   C46 3681   8.120   3.499   3.616  0.3277 -0.7371  0.6029
    9CHTO   H88 3682   8.123   3.506   3.508 -0.2786  2.0130  0.7226
    9CHTO   C53 3683   8.274   3.506   3.650  0.1938 -0.4847  0.0571
    9CHTO   O72 3684   8.330   3.633   3.617  0.3532 -0.0355 -0.5159
    9CHTO  H199 3685   8.396   3.624   3.551  0.9860 -0.6733  0.1853
    9CHTO   O22 3686   7.850   3.738   3.660  0.1235  0.3185  0.1258
    9CHTO   C31 3687   7.836   3.844   3.562 -0.6974 -0.5604  0.1480
    9CHTO   H59 3688   7.779   3.926   3.611 -1.6096 -0.7868 -0.5176
    9CHTO   C29 3689   7.976   3.905   3.531  0.2868 -0.3419 -0.8887
    9CHTO   H57 3690   8.041   3.830   3.483 -1.1062 -1.9986 -0.2365
    9CHTO   O21 3691   8.039   3.944   3.656 -0.0312  0.5057 -0.3829
    9CHTO   H37 3692   8.013   3.879   3.719 -0.6926 -1.1659 -2.3003
    9CHTO   C27 3693   7.970   4.033   3.435 -0.6718 -0.5716 -0.1698
    9CHTO   H55 3694   7.899   4.107   3.474 -0.3468 -0.7764  0.8061
    9CHTO    N5 3695   8.104   4.098   3.401 -0.1666  1.1982  0.1785
    9CHTO   H43 3696   8.132   4.059   3.305  0.6762  0.8122  0.5809
    9CHTO   H44 3697   8.170   4.056   3.475 -1.6518 -1.0389  0.2697
    9CHTO   C25 3698   7.895   3.983   3.305 -0.7218  0.0617 -0.2899
    9CHTO   H53 3699   7.952   3.909   3.246 -1.5038  0.1830 -1.2099
    9CHTO   O17 3700   7.762   3.939   3.340  0.2690 -0.5480 -0.2027
    9CHTO   C32 3701   7.763   3.818   3.425  0.2254  0.0919  0.2015
    9CHTO   H60 3702   7.812   3.734   3.376  0.0501 -2.0497  3.5888
    9CHTO   C36 3703   7.618   3.779   3.447  0.3045  0.5063 -0.8047
    9CHTO   O25 3704   7.557   3.735   3.321  0.7312 -0.2061  0.9582
    9CHTO   H40 3705   7.511   3.656   3.339 -1.6079  0.8469 -0.1599
    9CHTO   O15 3706   7.889   4.091   3.211 -0.1569  0.3179 -0.4650
    9CHTO   C19 3707   7.823   4.109   3.082  0.8808 -0.7633 -0.0590
    9CHTO   H47 3708   7.871   4.199   3.040 -0.5539 -1.0549 -2.4245
    9CHTO   C20 3709   7.846   3.989   2.986  0.4053  0.3359 -0.2039
    9CHTO   H48 3710   7.812   3.894   3.030  1.3735 -0.3935 -1.0195
    9CHTO   O19 3711   7.984   3.996   2.962 -0.1330  0.1481  0.4034
    9CHTO   H35 3712   8.037   3.972   3.036 -0.0952  1.0991  0.6955
    9CHTO   C21 3713   7.759   4.014   2.855  0.6012  0.5291  0.2501
    9CHTO   H49 3714   7.799   4.098   2.799 -1.7898  0.9492 -0.9122
    9CHTO    N4 3715   7.781   3.907   2.758 -0.3027  0.1445 -0.0327
    9CHTO   H41 3716   7.760   3.808   2.797 -0.0768  0.6415  1.3661
    9CHTO   H42 3717   7.878   3.911   2.710 -0.2509 -0.6378 -0.0103
    9CHTO   C22 3718   7.607   4.036   2.887 -0.4580 -0.5829  0.2725
    9CHTO   H50 3719   7.575   3.943   2.935  0.3895 -1.0675 -0.1008
    9CHTO   O14 3720   7.600   4.157   2.965 -0.8969 -0.0591  0.0490
    9CHTO   C23 3721   7.673   4.146   3.090 -0.0577  0.0470 -0.4737
    9CHTO   H51 3722   7.619   4.083   3.162 -0.5655  0.3693 -0.5773
    9CHTO   C34 3723   7.655   4.292   3.135 -0.0821  0.4692  0.5000
    9CHTO   O23 3724   7.521   4.319   3.153  0.0277  0.4412  1.0043
    9CHTO   H38 3725   7.498   4.367   3.076 -2.4465  1.7412  2.4982
    9CHTO   O16 3726   7.528   4.073   2.768  0.0075  0.7100  0.0163
    9CHTO   C24 3727   7.389   3.997   2.746 -0.2377 -0.4143 -0.0346
    9CHTO   H52 3728   7.352   3.964   2.843 -0.7891  0.5250  0.0770
    9CHTO   C26 3729   7.397   3.869   2.658  0.9471 -0.1436  0.1060
    9CHTO   H54 3730   7.459   3.889   2.569  0.7022  0.4944  0.0762
    9CHTO   O20 3731   7.476   3.770   2.716 -0.5003 -0.8428 -0.1546
    9CHTO   H36 3732   7.500   3.716   2.643 -0.5354  0.6614 -1.2833
    9CHTO   C30 3733   7.257   3.816   2.627  0.4247  0.2842 -0.1688
    9CHTO   H58 3734   7.217   3.756   2.710 -0.5942  0.6695 -0.3722
    9CHTO    N6 3735   7.256   3.714   2.516  0.0756 -0.1816  0.0678
    9CHTO   H45 3736   7.253   3.767   2.422  0.7253 -0.7577 -0.2849
    9CHTO   H46 3737   7.175   3.641   2.517 -0.3683  0.3061 -0.0764
    9CHTO   C33 3738   7.145   3.925   2.602  0.1292  0.4255 -0.4046
    9CHTO   H61 3739   7.155   3.966   2.501 -0.5081  0.5638 -0.4147
    9CHTO   O18 3740   7.159   4.036   2.698  0.2862  0.1513  0.0486
    9CHTO   C28 3741   7.287   4.098   2.689  0.4976 -0.1850  0.8989
    9CHTO   H56 3742   7.319   4.121   2.587 -0.5917  0.5887  0.7275
    9CHTO   C35 3743   7.291   4.228   2.772  0.4668 -0.1025 -0.4584
    9CHTO   O24 3744   7.189   4.325   2.738 -0.0461  0.2933 -0.5712
    9CHTO   H39 3745   7.114   4.276   2.710 -0.2333  0.8863 -1.1061
    9CHTO    O9 3746   7.013   3.858   2.607 -0.0478  0.0127 -0.1859
    9CHTO   C13 3747   6.890   3.936   2.545 -0.0930  0.0219  0.0951
    9CHTO   H26 3748   6.915   3.995   2.455 -2.7832  0.0455 -0.6802
    9CHTO   C11 3749   6.839   4.033   2.661 -0.0480  0.3201 -0.5580
    9CHTO   H24 3750   6.906   4.120   2.658  0.5151 -0.0929 -0.1378
    9CHTO    O8 3751   6.854   3.958   2.784  0.7346  0.3447  0.2567
    9CHTO    H3 3752   6.911   4.004   2.842  1.8827 -0.9289  0.1577
    9CHTO    C9 3753   6.691   4.084   2.639 -0.4319 -0.0325  0.2156
    9CHTO   H22 3754   6.698   4.138   2.543  1.4511  0.2171  0.4874
    9CHTO    N2 3755   6.647   4.184   2.743 -0.0512 -0.2719  0.5634
    9CHTO   H10 3756   6.605   4.267   2.687 -0.4797  0.0518  1.3557
    9CHTO   H11 3757   6.730   4.207   2.808  0.7081 -0.4790 -0.3243
    9CHTO    C7 3758   6.593   3.967   2.619 -0.8542 -0.5134  0.2501
    9CHTO   H20 3759   6.495   4.015   2.600  0.2012  1.6639  0.1674
    9CHTO    O4 3760   6.645   3.884   2.513  0.3782 -0.3158  0.4897
    9CHTO   C14 3761   6.777   3.828   2.510  0.5610  0.4868  0.1900
    9CHTO   H27 3762   6.790   3.799   2.403  0.0204 -0.6887  0.4359
    9CHTO   C18 3763   6.784   3.695   2.590  0.5133  0.0440 -0.3282
    9CHTO   O13 3764   6.867   3.595   2.521 -0.4804  0.2518 -0.6054
    9CHTO    H7 3765   6.831   3.588   2.435 -0.4085 -0.0134 -0.6145
    9CHTO    O2 3766   6.580   3.878   2.739  0.3318  0.0323  0.1989
    9CHTO    C1 3767   6.451   3.824   2.779 -0.9578  0.5130  0.4810
    9CHTO   H14 3768   6.473   3.731   2.835 -1.7426 -0.6034 -1.0465
    9CHTO    C2 3769   6.352   3.781   2.659  0.1974 -0.3887  0.1097
    9CHTO   H15 3770   6.313   3.872   2.612 -0.9740 -1.3759 -0.8735
    9CHTO    O6 3771   6.411   3.697   2.563  0.5615 -0.0935 -0.2103
    9CHTO    H1 3772   6.448   3.617   2.595  2.6057  1.3580  1.1903
    9CHTO    C3 3773   6.227   3.710   2.734 -0.2540 -0.0667  0.4533
    9CHTO   H16 3774   6.247   3.622   2.797 -0.0935  0.1640  0.7261
    9CHTO    N1 3775   6.127   3.666   2.635 -0.5221  0.4254 -0.3516
    9CHTO    H8 3776   6.049   3.618   2.691  1.4741 -1.4622  0.9042
    9CHTO    H9 3777   6.170   3.587   2.575 -0.2815  0.3261 -0.0512
    9CHTO    C4 3778   6.158   3.818   2.825 -0.0560 -0.2953 -0.1352
    9CHTO   H17 3779   6.125   3.901   2.763 -1.5337 -0.4940  0.3601
    9CHTO    O1 3780   6.257   3.859   2.916  0.3693  0.6148 -0.1583
    9CHTO    C5 3781   6.382   3.921   2.875 -0.1041 -0.3235  0.3450
    9CHTO   H18 3782   6.363   4.017   2.829  1.5661 -1.2971 -2.5026
    9CHTO   C16 3783   6.461   3.941   3.009 -0.0298  0.3244  0.2854
    9CHTO   O11 3784   6.582   4.015   3.002  0.1236  0.5397  0.0999
    9CHTO    H5 3785   6.637   3.966   2.945 -2.3183 -2.6646  0.3769
    9CHTO    O3 3786   6.044   3.772   2.905 -0.5928 -0.1665 -0.2219
    9CHTO    C6 3787   5.940   3.875   2.925  0.5547  0.0999  0.0577
    9CHTO   H19 3788   5.972   3.975   2.897 -1.3433  1.0554  1.1610
    9CHTO    C8 3789   5.821   3.838   2.829 -0.2182 -0.8685  0.9088
    9CHTO   H21 3790   5.796   3.732   2.842 -1.9085 -0.9084 -2.2252
    9CHTO    O7 3791   5.855   3.856   2.689  0.5607  0.7499  0.3380
    9CHTO    H2 3792   5.828   3.938   2.652 -3.3532 -0.5194  0.1944
    9CHTO   C12 3793   5.688   3.921   2.860  0.5697 -0.2183 -0.7327
    9CHTO   H25 3794   5.710   4.025   2.827  0.7581 -0.3360 -0.9804
    9CHTO    N3 3795   5.568   3.871   2.780 -0.7256 -0.6466 -0.0160
    9CHTO   H12 3796   5.487   3.823   2.834 -0.2187 -1.3785  0.1125
    9CHTO   H13 3797   5.535   3.951   2.716  1.9893 -1.0329 -1.9599
    9CHTO   C15 3798   5.660   3.922   3.020 -0.3548  0.0055 -0.2579
    9CHTO   H28 3799   5.619   3.826   3.053 -2.6185  0.7910 -0.6880
    9CHTO   O10 3800   5.560   4.043   3.060 -0.0551  0.7448 -0.5792
    9CHTO    H4 3801   5.554   4.103   2.988 -0.3846  0.8317 -0.4832
    9CHTO    O5 3802   5.781   3.968   3.095 -0.5529  0.3474 -0.2812
    9CHTO   C10 3803   5.894   3.879   3.078  0.1757  0.0671  0.3889
    9CHTO   H23 3804   5.866   3.785   3.125 -2.0884 -0.4020 -1.7941
    9CHTO   C17 3805   6.006   3.941   3.166  0.0732 -0.1371  0.0529
    9CHTO   O12 3806   6.123   3.852   3.180 -0.0290  0.3476 -0.2653
    9CHTO    H6 3807   6.126   3.801   3.259 -0.6879 -0.9132 -1.0358
   10CHTO  H203 3808   5.389   6.203  -0.231  1.0866 -1.2824  1.1502
   10CHTO   O82 3809   5.366   6.252  -0.155 -0.1682 -0.0546 -0.0159
   10CHTO  C123 3810   5.229   6.300  -0.170 -0.1997 -0.2033  0.1471
   10CHTO  H227 3811   5.195   6.302  -0.275 -1.3297 -1.2433  0.4798
   10CHTO   O77 3812   5.148   6.192  -0.103  0.1497 -0.6745  0.1629
   10CHTO  C118 3813   5.003   6.194  -0.115  0.4559 -0.3712 -0.0538
   10CHTO  H222 3814   4.974   6.175  -0.219 -1.2193  3.0254 -0.2728
   10CHTO  C125 3815   4.941   6.071  -0.023  0.5321 -0.4742  0.0650
   10CHTO   O84 3816   4.983   5.952  -0.097  0.8490  0.1711  0.2043
   10CHTO  H205 3817   4.924   5.934  -0.168  0.0515 -1.6637  1.3177
   10CHTO  C114 3818   4.958   6.334  -0.062 -0.4811 -0.5116  0.1986
   10CHTO  H218 3819   4.974   6.344   0.045 -1.5390  0.2472  0.2904
   10CHTO  C116 3820   5.029   6.456  -0.137 -0.0989 -0.2971 -0.1870
   10CHTO  H220 3821   5.009   6.441  -0.245 -3.2234  1.7169  0.0443
   10CHTO   O79 3822   4.972   6.581  -0.107 -0.3778  0.2453 -0.1292
   10CHTO  H201 3823   4.946   6.584  -0.017 -0.7140 -4.5396  0.0234
   10CHTO  C120 3824   5.187   6.445  -0.107 -0.2774  0.3831 -0.5930
   10CHTO  H224 3825   5.192   6.437   0.004  0.5782  1.0333 -0.5863
   10CHTO   N21 3826   5.270   6.555  -0.157  0.3630 -0.4936 -0.6427
   10CHTO  H211 3827   5.266   6.633  -0.083 -0.9196  0.3611 -1.6079
   10CHTO  H212 3828   5.373   6.525  -0.173  0.2516 -1.6533  0.7033
   10CHTO   O75 3829   4.818   6.344  -0.084  0.1463 -0.0675  0.0903
   10CHTO  C112 3830   4.733   6.416   0.017  0.1542  0.1886  0.3676
   10CHTO  H216 3831   4.791   6.501   0.055  0.4141  0.4965 -0.7131
   10CHTO   O73 3832   4.707   6.322   0.123  0.0060  0.2150 -0.1485
   10CHTO  C113 3833   4.630   6.382   0.230 -0.3177 -0.1157  0.0527
   10CHTO  H217 3834   4.679   6.472   0.271 -0.4162  0.6924 -1.5769
   10CHTO  C124 3835   4.612   6.287   0.346  0.1729  1.1215  0.2895
   10CHTO   O83 3836   4.591   6.149   0.301 -0.0137 -0.2164  0.3606
   10CHTO  H204 3837   4.585   6.089   0.373  0.6021 -1.2090 -0.3978
   10CHTO  C109 3838   4.492   6.429   0.174  0.0137  0.9466  0.4681
   10CHTO  H213 3839   4.448   6.339   0.130  1.9432  0.6280 -0.8579
   10CHTO  C110 3840   4.514   6.543   0.065  0.6290  0.0072 -0.1420
   10CHTO  H214 3841   4.560   6.632   0.106 -0.1591  0.2887  0.1486
   10CHTO   O78 3842   4.383   6.572   0.005  0.0177  0.5237  0.4437
   10CHTO  H200 3843   4.371   6.658  -0.030  1.9360  0.0057 -1.6053
   10CHTO  C111 3844   4.602   6.476  -0.045  0.4133  0.1014  0.0103
   10CHTO  H215 3845   4.545   6.393  -0.090 -2.0816  1.3278  0.8791
   10CHTO   N19 3846   4.625   6.570  -0.158 -0.1289  0.2574 -0.2435
   10CHTO  H207 3847   4.695   6.510  -0.215  1.2380  1.5250  0.0534
   10CHTO  H208 3848   4.536   6.584  -0.218 -0.2092  1.4791  0.1531
   10CHTO   O74 3849   4.402   6.489   0.279  0.1881  0.0809 -0.3283
   10CHTO  C115 3850   4.237   6.479   0.245 -0.2743  0.4415  0.2243
   10CHTO  H219 3851   4.207   6.542   0.161  0.8149 -1.5376 -1.6938
   10CHTO   O76 3852   4.191   6.330   0.198 -0.2915 -0.3889 -0.1212
   10CHTO  C122 3853   4.206   6.241   0.310 -0.2204  0.6919 -0.8357
   10CHTO  H226 3854   4.312   6.242   0.334  0.0504 -1.7736 -1.8461
   10CHTO  C126 3855   4.172   6.095   0.267 -0.2818 -0.5590  0.0207
   10CHTO   O85 3856   4.273   6.054   0.171 -0.2328  0.1419 -0.1943
   10CHTO  H206 3857   4.352   6.031   0.216 -0.7561  0.4681  0.9125
   10CHTO  C121 3858   4.143   6.276   0.448  0.1289 -0.8707  0.2221
   10CHTO  H225 3859   4.073   6.200   0.488  0.1629 -1.1010 -0.1554
   10CHTO   O81 3860   4.240   6.264   0.549 -0.1960 -0.5262  0.0226
   10CHTO  H202 3861   4.325   6.301   0.536 -0.0566 -1.1224 -0.7767
   10CHTO  C119 3862   4.069   6.410   0.443 -0.1484 -0.1935 -0.3494
   10CHTO  H223 3863   3.973   6.392   0.395 -0.0103 -0.7992 -0.3988
   10CHTO  C117 3864   4.156   6.529   0.370  0.2783  0.1295  0.3342
   10CHTO  H221 3865   4.232   6.575   0.432 -0.1822  0.9642  0.2994
   10CHTO   N20 3866   4.060   6.637   0.342  0.0460 -0.8224 -0.3797
   10CHTO  H209 3867   4.070   6.673   0.241  1.0250  0.6041  0.2072
   10CHTO  H210 3868   4.060   6.721   0.410  0.5574 -1.8503  0.9187
   10CHTO   O80 3869   4.011   6.450   0.611  0.1325  0.8427 -0.3870
   10CHTO  C103 3870   3.872   6.468   0.649 -0.1402 -0.0880  0.1051
   10CHTO  H190 3871   3.868   6.507   0.751 -0.9721  0.4560 -0.1319
   10CHTO  C101 3872   3.780   6.549   0.552 -0.5000  0.5196 -0.4593
   10CHTO  H188 3873   3.785   6.505   0.452 -1.0737 -0.0401 -0.2404
   10CHTO   O68 3874   3.839   6.696   0.563 -0.5368 -0.0597  0.5334
   10CHTO  H168 3875   3.832   6.745   0.483 -0.6290 -2.2650 -0.8719
   10CHTO   C99 3876   3.633   6.545   0.601 -0.4980 -0.6621  0.2840
   10CHTO  H186 3877   3.645   6.601   0.697 -0.4180 -1.7493  0.9108
   10CHTO   N17 3878   3.534   6.613   0.508 -0.4940  0.3766 -1.1230
   10CHTO  H174 3879   3.552   6.719   0.508 -2.6320  0.7849  0.0502
   10CHTO  H175 3880   3.541   6.571   0.409  0.2675 -1.0271 -0.4907
   10CHTO   C97 3881   3.584   6.401   0.631  0.6224 -0.4319 -0.0494
   10CHTO  H184 3882   3.548   6.355   0.537  1.1431  1.2450 -1.0883
   10CHTO   O64 3883   3.680   6.320   0.701 -0.0052 -0.1489 -0.1399
   10CHTO  C104 3884   3.811   6.317   0.656  0.2965 -0.6849 -0.6506
   10CHTO  H191 3885   3.819   6.270   0.558 -0.6428 -3.3549  0.5029
   10CHTO  C108 3886   3.900   6.234   0.740 -0.6131 -0.2731 -0.5183
   10CHTO   O71 3887   3.876   6.101   0.721 -0.9599  0.4085 -0.3976
   10CHTO  H171 3888   3.950   6.059   0.760 -0.0351  1.0880 -1.3884
   10CHTO   O62 3889   3.470   6.415   0.724 -0.7056 -0.2385 -0.0354
   10CHTO   C91 3890   3.391   6.299   0.764  0.0477 -0.2078  0.0383
   10CHTO  H178 3891   3.389   6.235   0.676  0.5901  1.0343 -0.8955
   10CHTO   C92 3892   3.241   6.341   0.782  0.3936 -0.0665  0.4471
   10CHTO  H179 3893   3.216   6.414   0.703 -0.7382  1.7847  2.4642
   10CHTO   O66 3894   3.157   6.227   0.769 -0.7746  0.3339  0.6473
   10CHTO  H166 3895   3.161   6.182   0.686 -4.6742  0.1412  0.4746
   10CHTO   C93 3896   3.215   6.396   0.933  0.9443 -0.1761 -0.9334
   10CHTO  H180 3897   3.107   6.386   0.952  1.3764 -2.7428  0.5209
   10CHTO   N16 3898   3.237   6.536   0.949  0.1119  0.4601 -0.1881
   10CHTO  H172 3899   3.213   6.575   1.047 -0.5822  3.1854 -1.4019
   10CHTO  H173 3900   3.192   6.594   0.869  0.8789  1.4960  0.1190
   10CHTO   C94 3901   3.289   6.314   1.043 -0.2813  0.2522 -0.3053
   10CHTO  H181 3902   3.371   6.368   1.090 -0.6953  0.6783 -0.0687
   10CHTO   O61 3903   3.342   6.191   0.988 -0.1351  0.3369  0.8099
   10CHTO   C95 3904   3.442   6.216   0.890 -0.4810  0.2890 -0.1014
   10CHTO  H182 3905   3.522   6.273   0.937  0.7666 -3.2370  2.2004
   10CHTO  C106 3906   3.519   6.087   0.848 -0.0713  1.4115 -0.1233
   10CHTO   O69 3907   3.558   5.997   0.951 -0.1585 -0.2815 -0.2061
   10CHTO  H169 3908   3.629   5.941   0.927  0.6915 -0.4084  2.4946
   10CHTO   O63 3909   3.178   6.266   1.157  0.8005  0.4770  0.1853
   10CHTO   C96 3910   3.257   6.206   1.299  0.0795  0.4618  0.1028
   10CHTO  H183 3911   3.257   6.295   1.363  0.4901  1.5552 -1.3771
   10CHTO   C98 3912   3.400   6.143   1.282 -0.3316  0.3138 -0.5313
   10CHTO  H185 3913   3.411   6.073   1.198 -1.3970 -0.8283  0.2615
   10CHTO   O67 3914   3.488   6.252   1.252  0.0317  0.0806 -0.6265
   10CHTO  H167 3915   3.482   6.314   1.322 -1.8330 -0.2231 -0.4948
   10CHTO  C102 3916   3.446   6.060   1.410 -0.1286  0.1839  0.1608
   10CHTO  H189 3917   3.474   6.135   1.486 -1.3320  1.1102 -0.2945
   10CHTO   N18 3918   3.575   5.984   1.391  0.0968  0.5953  0.2321
   10CHTO  H176 3919   3.649   6.053   1.355  1.2203  0.5541  2.3713
   10CHTO  H177 3920   3.570   5.903   1.320  1.9303  0.4310  0.2803
   10CHTO  C105 3921   3.336   5.963   1.469  1.0026 -0.6846  0.1428
   10CHTO  H192 3922   3.316   5.883   1.399  1.4732  0.4269 -1.2876
   10CHTO   O65 3923   3.212   6.035   1.493  0.2599  0.0526 -0.0539
   10CHTO  C100 3924   3.164   6.094   1.366 -0.3129  0.7207  0.0480
   10CHTO  H187 3925   3.147   6.015   1.292 -0.5978 -0.8144  1.7088
   10CHTO  C107 3926   3.017   6.132   1.382  0.1151 -0.0849 -0.0243
   10CHTO   O70 3927   3.000   6.233   1.482 -0.1965 -0.3144 -0.3698
   10CHTO  H170 3928   2.908   6.252   1.494 -0.2117  0.4303 -1.5231
   10CHTO   O57 3929   3.395   5.912   1.624  0.5085  0.6731 -0.0197
   10CHTO   C85 3930   3.324   5.930   1.752 -0.3906  0.2054 -0.5952
   10CHTO  H157 3931   3.219   5.915   1.722 -0.9630  0.6985  1.1152
   10CHTO   C83 3932   3.337   6.074   1.806 -0.0608 -0.1298 -0.1824
   10CHTO  H155 3933   3.311   6.146   1.728  0.2002 -0.3361 -0.4606
   10CHTO   O56 3934   3.477   6.108   1.828  0.0447  0.0186  0.1515
   10CHTO  H135 3935   3.489   6.198   1.853 -0.8603 -0.4530  2.3672
   10CHTO   C81 3936   3.247   6.084   1.924 -0.0046 -0.2639  0.0055
   10CHTO  H153 3937   3.146   6.052   1.899  0.1148 -2.7986  2.4389
   10CHTO   N14 3938   3.229   6.223   1.978 -0.0855  0.5668 -0.7835
   10CHTO  H141 3939   3.165   6.273   1.909 -1.1674 -0.9261 -0.8888
   10CHTO  H142 3940   3.326   6.268   1.987  0.5443 -0.8683 -0.1296
   10CHTO   C79 3941   3.302   5.985   2.040  0.0379 -0.1621  0.3187
   10CHTO  H151 3942   3.222   5.991   2.114 -0.4966 -0.9242 -0.2004
   10CHTO   O52 3943   3.305   5.850   1.992 -0.1722  0.2444  0.2971
   10CHTO   C86 3944   3.371   5.829   1.861  0.0118  0.3885 -0.6984
   10CHTO  H158 3945   3.479   5.831   1.885  0.1867  1.2201 -1.5082
   10CHTO   C90 3946   3.344   5.683   1.814 -0.3877  0.1921  0.4279
   10CHTO   O60 3947   3.448   5.641   1.717  0.0802 -0.6922  0.5468
   10CHTO  H138 3948   3.397   5.586   1.660  0.0079  0.5645 -0.6004
   10CHTO   O50 3949   3.433   6.023   2.082 -0.4261  0.2410  0.4945
   10CHTO   C73 3950   3.478   6.018   2.215 -0.0185  0.8873 -0.0971
   10CHTO  H145 3951   3.431   5.942   2.278 -0.6469 -0.7696 -2.5272
   10CHTO   C74 3952   3.459   6.155   2.287  0.5154 -0.3538  0.0784
   10CHTO  H146 3953   3.351   6.180   2.286  0.8046  0.9861  0.5587
   10CHTO   O54 3954   3.492   6.138   2.425 -0.6449  0.1664 -0.0907
   10CHTO  H133 3955   3.414   6.146   2.477  0.1523 -1.2721  1.3338
   10CHTO   C75 3956   3.548   6.263   2.213  0.0355 -0.4067  0.0336
   10CHTO  H147 3957   3.513   6.280   2.110 -0.0980 -0.7042  0.0302
   10CHTO   N13 3958   3.530   6.398   2.272 -0.1200  1.0880 -0.1984
   10CHTO  H139 3959   3.607   6.466   2.239 -1.2914  3.1528  1.2302
   10CHTO  H140 3960   3.541   6.395   2.380 -2.1455 -0.7716 -0.0144
   10CHTO   C76 3961   3.695   6.218   2.196 -0.2470  0.1724 -0.6951
   10CHTO  H148 3962   3.739   6.225   2.295  0.9580  1.2260 -1.2974
   10CHTO   O49 3963   3.705   6.085   2.141  0.0550 -0.8240 -0.3650
   10CHTO   C77 3964   3.628   5.986   2.214  0.5672 -0.3030  0.0648
   10CHTO  H149 3965   3.660   5.981   2.318  1.6476 -2.7040 -0.3715
   10CHTO   C88 3966   3.675   5.855   2.151 -0.2418 -0.5248  0.0011
   10CHTO   O58 3967   3.818   5.830   2.173 -0.4152 -0.6082 -0.2264
   10CHTO  H136 3968   3.867   5.910   2.160 -0.2304 -0.3443  1.8538
   10CHTO   O51 3969   3.787   6.309   2.099 -0.7515 -0.1805 -0.1632
   10CHTO   C78 3970   3.921   6.369   2.128 -0.2463 -0.5754  0.3880
   10CHTO  H150 3971   3.995   6.351   2.046  0.0483 -0.0332  0.5368
   10CHTO   C80 3972   3.976   6.312   2.258  0.1697 -0.5697  0.1432
   10CHTO  H152 3973   3.903   6.337   2.337 -1.2566 -1.4083 -0.8870
   10CHTO   O55 3974   3.988   6.169   2.240 -0.2312  0.1027 -0.3142
   10CHTO  H134 3975   3.989   6.133   2.327  1.8510  0.0905 -0.3296
   10CHTO   C84 3976   4.116   6.385   2.296  0.2197 -0.3166 -0.0019
   10CHTO  H156 3977   4.183   6.358   2.215 -0.4885  1.9815 -1.3894
   10CHTO   N15 3978   4.186   6.335   2.416  0.3197  0.8706  0.4866
   10CHTO  H143 3979   4.250   6.410   2.459  1.9285 -0.2738  0.1667
   10CHTO  H144 3980   4.112   6.300   2.483 -1.3390 -0.2509 -1.8657
   10CHTO   C87 3981   4.101   6.540   2.298  0.0431 -0.4351 -0.0428
   10CHTO  H159 3982   4.049   6.567   2.390 -0.3855 -1.5781  0.0613
   10CHTO   O53 3983   4.027   6.588   2.169  0.1886 -0.5923  0.0928
   10CHTO   C82 3984   3.907   6.526   2.144  0.0741  0.4377 -0.4563
   10CHTO  H154 3985   3.827   6.543   2.216  0.2672  3.0759 -0.8029
   10CHTO   C89 3986   3.859   6.576   2.009 -0.2215  0.0320 -0.1685
   10CHTO   O59 3987   3.802   6.702   2.024  0.0036  0.0876  0.3208
   10CHTO  H137 3988   3.709   6.698   2.026  0.0118  0.4868  1.8690
   10CHTO   O45 3989   4.261   6.602   2.302  0.2843  0.2364 -0.5131
   10CHTO   C67 3990   4.264   6.746   2.288 -0.0217 -0.2865 -0.6527
   10CHTO  H124 3991   4.196   6.772   2.207 -1.3262 -1.1963  0.1390
   10CHTO   C65 3992   4.224   6.825   2.412  0.3921 -0.5473 -0.0337
   10CHTO  H122 3993   4.240   6.758   2.496  0.4518 -1.8035 -1.0332
   10CHTO   O44 3994   4.082   6.845   2.402 -0.0036 -0.1229 -0.2256
   10CHTO  H102 3995   4.051   6.914   2.345  1.7180  0.9601  0.1208
   10CHTO   C63 3996   4.326   6.942   2.449 -0.4453  0.0161 -0.0841
   10CHTO  H120 3997   4.419   6.898   2.485 -0.0925  0.8727  0.0635
   10CHTO   N11 3998   4.289   7.026   2.562 -0.3991  0.4785  0.2039
   10CHTO  H108 3999   4.304   7.132   2.563 -0.0843  0.4281  0.8478
   10CHTO  H109 4000   4.318   6.987   2.658 -0.0725 -1.1923 -0.5510
   10CHTO   C61 4001   4.353   7.020   2.321 -0.0104  0.2669 -0.3516
   10CHTO  H118 4002   4.427   7.097   2.347 -0.2260 -0.5352  2.8775
   10CHTO   O40 4003   4.414   6.939   2.219 -0.9800 -0.2890  0.2141
   10CHTO   C68 4004   4.411   6.788   2.234 -0.8887 -0.5381 -0.9724
   10CHTO  H125 4005   4.485   6.764   2.313  0.8920  1.6770 -1.9313
   10CHTO   C72 4006   4.453   6.728   2.100  0.1197 -0.6114  0.1192
   10CHTO   O48 4007   4.591   6.755   2.068  0.0799 -0.0236 -0.6102
   10CHTO  H105 4008   4.613   6.757   1.977 -0.9157  2.2600 -0.8357
   10CHTO   O38 4009   4.239   7.085   2.262 -0.3709 -0.5398 -0.1923
   10CHTO   C55 4010   4.244   7.206   2.174 -0.8019 -0.3318 -0.8685
   10CHTO  H112 4011   4.143   7.216   2.131 -1.5012  0.4543  0.9019
   10CHTO   C56 4012   4.362   7.200   2.061  0.4458 -0.0276  0.4736
   10CHTO  H113 4013   4.451   7.160   2.113  1.3823  1.3455 -0.0448
   10CHTO   O42 4014   4.327   7.098   1.966 -0.2425 -0.1874 -0.4175
   10CHTO  H100 4015   4.394   7.078   1.904 -0.5141 -0.2176 -0.7029
   10CHTO   C57 4016   4.392   7.344   2.001 -0.7337  0.0564 -0.7415
   10CHTO  H114 4017   4.309   7.377   1.939 -3.1756 -1.9617  1.3332
   10CHTO   N10 4018   4.522   7.340   1.928 -0.1570 -0.0395  0.0237
   10CHTO  H106 4019   4.607   7.370   1.987 -0.4140 -1.0630  0.9348
   10CHTO  H107 4020   4.520   7.392   1.833 -2.3852  0.6942  0.4516
   10CHTO   C58 4021   4.405   7.451   2.116 -0.3089  0.1329 -0.2033
   10CHTO  H115 4022   4.487   7.428   2.187 -1.1214 -1.7119  0.1924
   10CHTO   O37 4023   4.281   7.449   2.189  0.2957  0.0424 -0.0592
   10CHTO   C59 4024   4.265   7.329   2.268 -0.3778 -0.4590 -0.5670
   10CHTO  H116 4025   4.351   7.325   2.335  1.6337  1.0343 -2.9241
   10CHTO   C70 4026   4.147   7.346   2.360  0.2345 -0.8086  0.8307
   10CHTO   O46 4027   4.033   7.389   2.283  0.2242 -0.0454  0.2062
   10CHTO  H103 4028   3.959   7.418   2.332  0.5558 -3.3852  2.8361
   10CHTO   O39 4029   4.402   7.602   2.053  0.0451 -0.0416 -0.2398
   10CHTO   C60 4030   4.442   7.707   2.140 -0.1557  0.0816 -0.5058
   10CHTO  H117 4031   4.420   7.685   2.244 -1.8409  0.9607 -0.6499
   10CHTO   C62 4032   4.591   7.727   2.121  0.7982 -0.1338 -0.2371
   10CHTO  H119 4033   4.637   7.630   2.149 -0.9828 -0.8146  0.3719
   10CHTO   O43 4034   4.619   7.760   1.982 -0.1915 -0.0940 -0.0871
   10CHTO  H101 4035   4.588   7.846   1.961 -0.6672 -0.6775 -1.8736
   10CHTO   C66 4036   4.654   7.845   2.215 -0.8421  0.1690  0.2251
   10CHTO  H123 4037   4.630   7.829   2.320  0.7495  3.9114  1.2326
   10CHTO   N12 4038   4.803   7.839   2.213 -0.4316  0.7854  0.2922
   10CHTO  H110 4039   4.836   7.754   2.272 -0.8202  0.0922 -0.4908
   10CHTO  H111 4040   4.829   7.825   2.109 -0.1915 -2.2751  0.7239
   10CHTO   C69 4041   4.597   7.979   2.166  0.1861 -0.0755 -0.4673
   10CHTO  H126 4042   4.617   7.989   2.057 -0.4722 -0.3278 -0.6132
   10CHTO   O41 4043   4.452   7.976   2.197 -0.0298 -0.4645  0.0754
   10CHTO   C64 4044   4.372   7.844   2.115 -0.1251 -0.3822 -0.2876
   10CHTO  H121 4045   4.361   7.867   2.007 -0.6302  2.3546  0.3045
   10CHTO   C71 4046   4.225   7.856   2.164 -0.3382  0.7092 -0.4579
   10CHTO   O47 4047   4.167   7.978   2.118  0.3518  0.1955  0.4155
   10CHTO  H104 4048   4.079   8.002   2.140  0.8405  1.4106  1.0937
   10CHTO   O34 4049   4.649   8.100   2.226  0.0088  0.1524  0.4559
   10CHTO   C49 4050   4.671   8.245   2.292  0.1890 -0.1898 -0.2135
   10CHTO   H91 4051   4.731   8.233   2.383 -0.4911 -0.5945  0.1882
   10CHTO   C47 4052   4.538   8.309   2.329  0.3336 -0.1839  0.2089
   10CHTO   H89 4053   4.561   8.388   2.403 -0.2429  0.1822 -0.0047
   10CHTO   O33 4054   4.469   8.213   2.409  0.2764  0.6411  0.2459
   10CHTO   H70 4055   4.377   8.226   2.401  0.2231 -0.1982 -0.6584
   10CHTO   C45 4056   4.458   8.359   2.200 -0.2713  0.4899 -0.0013
   10CHTO   H87 4057   4.434   8.266   2.145  0.0358  1.1016 -1.1750
   10CHTO    N8 4058   4.329   8.426   2.238  0.6950 -0.6220  0.4773
   10CHTO   H75 4059   4.325   8.441   2.344 -0.1528  0.3781  0.3069
   10CHTO   H76 4060   4.315   8.510   2.171 -1.7268 -0.0242  1.7056
   10CHTO   C43 4061   4.548   8.441   2.095  0.3417  0.7178 -0.3275
   10CHTO   H85 4062   4.486   8.439   2.006  1.0544  0.0776 -0.8130
   10CHTO   O29 4063   4.676   8.383   2.074 -0.1534 -0.0139 -0.1246
   10CHTO   C50 4064   4.752   8.337   2.190 -0.2477 -0.1883  0.6568
   10CHTO   H92 4065   4.830   8.272   2.148 -1.7266 -1.6268  0.1032
   10CHTO   C54 4066   4.847   8.444   2.242  0.1366 -0.1571  0.4648
   10CHTO   O36 4067   4.784   8.537   2.328  0.2395  0.2341  0.0366
   10CHTO   H72 4068   4.839   8.608   2.354  1.3380 -0.8807  0.8543
   10CHTO   O27 4069   4.560   8.580   2.124  0.3305 -0.0113 -0.1314
   10CHTO   C37 4070   4.626   8.704   2.078 -0.1383 -0.2709  0.6667
   10CHTO   H79 4071   4.734   8.706   2.094 -0.0124 -0.5129 -0.1248
   10CHTO   C38 4072   4.597   8.736   1.930 -0.2369  0.3195 -0.2592
   10CHTO   H80 4073   4.489   8.731   1.907 -0.2565 -1.5247  0.1638
   10CHTO   O31 4074   4.660   8.619   1.864  0.1338  0.6765  0.2905
   10CHTO   H68 4075   4.699   8.644   1.783 -1.3469  0.2689 -0.5812
   10CHTO   C39 4076   4.657   8.879   1.882 -0.1666  0.1757  0.2280
   10CHTO   H81 4077   4.766   8.872   1.888 -0.1109  0.6009 -0.2432
   10CHTO    N7 4078   4.632   8.925   1.741  0.6882 -0.0657 -0.1561
   10CHTO   H73 4079   4.525   8.924   1.725  0.2493  0.5136  2.4252
   10CHTO   H74 4080   4.682   8.859   1.672 -1.5871  0.0697 -1.9823
   10CHTO   C40 4081   4.618   8.986   1.989  0.3843  0.3438  0.2650
   10CHTO   H82 4082   4.512   9.004   1.966  0.4710  0.6437  0.0910
   10CHTO   O26 4083   4.636   8.937   2.122  0.7633 -0.2288  0.6708
   10CHTO   C41 4084   4.562   8.821   2.160  0.4338  0.5867  0.5155
   10CHTO   H83 4085   4.458   8.821   2.124  0.8588 -1.9173 -0.8450
   10CHTO   C52 4086   4.575   8.796   2.309  0.5405  0.0384 -0.2038
   10CHTO   O35 4087   4.544   8.920   2.377  0.6126 -0.4570 -0.1082
   10CHTO   H71 4088   4.527   8.992   2.320  0.6850 -2.0063 -2.1178
   10CHTO   O28 4089   4.697   9.105   1.976 -0.1581  0.1263  0.5785
   10CHTO   C42 4090   4.639   9.232   2.016 -0.0121 -0.0171 -0.6776
   10CHTO   H84 4091   4.565   9.203   2.091 -0.1930  0.2300 -0.7614
   10CHTO   C44 4092   4.565   9.314   1.913 -0.0185  0.0813 -0.5363
   10CHTO   H86 4093   4.629   9.330   1.827 -1.1218 -0.3078 -1.4358
   10CHTO   O32 4094   4.451   9.231   1.876 -0.1601  0.2572  0.3727
   10CHTO   H69 4095   4.408   9.254   1.796 -0.3089  3.5465  1.3545
   10CHTO   C48 4096   4.529   9.456   1.966  0.0318 -0.2551  0.0743
   10CHTO   H90 4097   4.439   9.436   2.024  0.8195 -0.5133  1.2115
   10CHTO    N9 4098   4.474   9.537   1.853  0.0001  1.2607  0.0664
   10CHTO   H77 4099   4.446   9.466   1.777 -2.6427 -0.0250  2.1682
   10CHTO   H78 4100   4.547   9.608   1.816  1.8312  0.0270  1.2141
   10CHTO   C51 4101   4.648   9.532   2.040  0.0191  0.1420 -0.1387
   10CHTO   H93 4102   4.731   9.553   1.972  0.1499  0.6790  0.1889
   10CHTO   O30 4103   4.685   9.447   2.146 -0.3656 -0.6290  0.0495
   10CHTO   C46 4104   4.748   9.315   2.094  0.1106 -0.0844 -0.0683
   10CHTO   H88 4105   4.826   9.338   2.021  0.0492  0.3665  0.0050
   10CHTO   C53 4106   4.814   9.242   2.218  0.1570  0.9364 -0.5382
   10CHTO   O72 4107   4.710   9.202   2.307 -1.0282 -0.0371 -0.8843
   10CHTO  H199 4108   4.704   9.108   2.298 -2.2489 -0.3365  2.3972
   10CHTO   O22 4109   4.605   9.650   2.116 -0.1603 -0.6943 -0.2822
   10CHTO   C31 4110   4.671   9.782   2.105 -0.2628 -0.1686 -0.2047
   10CHTO   H59 4111   4.630   9.839   2.191 -0.4811 -0.4740 -0.1025
   10CHTO   C29 4112   4.821   9.773   2.141 -0.0322 -0.0478  0.6215
   10CHTO   H57 4113   4.872   9.690   2.089 -0.5938 -0.1478  0.2270
   10CHTO   O21 4114   4.827   9.746   2.280 -0.6477  0.6555  0.7020
   10CHTO   H37 4115   4.803   9.655   2.282 -0.2603  0.4534 -2.3978
   10CHTO   C27 4116   4.911   9.899   2.132  0.0766 -0.1565  0.0706
   10CHTO   H55 4117   4.878   9.970   2.209  1.7287 -1.1153  1.6877
   10CHTO    N5 4118   5.055   9.876   2.145  0.4961  0.6918  0.1775
   10CHTO   H43 4119   5.108   9.970   2.143 -0.4846  1.2727  0.8637
   10CHTO   H44 4120   5.076   9.827   2.238  3.6542  1.0302 -0.3212
   10CHTO   C25 4121   4.878   9.984   2.010 -0.0394  0.8751  0.0112
   10CHTO   H53 4122   4.909   9.941   1.914  0.1086  1.0352 -0.0124
   10CHTO   O17 4123   4.732   9.990   1.988 -0.3628  0.1133  0.3177
   10CHTO   C32 4124   4.660   9.865   1.982 -0.6479  0.2896 -0.2209
   10CHTO   H60 4125   4.693   9.798   1.903  0.5151  0.1238  0.3990
   10CHTO   C36 4126   4.519   9.898   1.934 -0.2247  0.7555  0.3268
   10CHTO   O25 4127   4.517   9.968   1.804  0.6169 -0.4075 -0.1005
   10CHTO   H40 4128   4.542   9.902   1.742  1.0690  0.7282 -1.1317
   10CHTO   O15 4129   4.922  10.127   2.033 -0.2623 -0.2291  0.5298
   10CHTO   C19 4130   4.953  10.213   1.917 -0.5050  0.4953  0.3526
   10CHTO   H47 4131   4.912  10.150   1.837  0.5113 -2.4929  2.1150
   10CHTO   C20 4132   4.895  10.355   1.919  0.1440 -0.4616 -0.1455
   10CHTO   H48 4133   4.917  10.409   2.012  1.4454 -1.1678 -0.0301
   10CHTO   O19 4134   4.753  10.362   1.908  0.4104 -0.3375 -0.1037
   10CHTO   H35 4135   4.717  10.307   1.841  0.7513 -0.5682 -0.0986
   10CHTO   C21 4136   4.965  10.451   1.806 -0.0239  0.2466  0.4258
   10CHTO   H49 4137   4.923  10.424   1.709 -0.7599 -1.4248  1.2012
   10CHTO    N4 4138   4.932  10.594   1.826 -0.3655  0.0034 -0.3282
   10CHTO   H41 4139   4.994  10.623   1.910 -0.3487 -0.3487 -0.2179
   10CHTO   H42 4140   4.829  10.619   1.844 -0.1786  2.6678 -2.6018
   10CHTO   C22 4141   5.115  10.427   1.813  0.0487 -0.7138  0.7717
   10CHTO   H50 4142   5.161  10.451   1.908 -0.0239 -0.5281  0.7590
   10CHTO   O14 4143   5.142  10.290   1.791 -0.2048  0.3426  0.1064
   10CHTO   C23 4144   5.109  10.211   1.902  0.2665  0.3530 -0.4756
   10CHTO   H51 4145   5.158  10.249   1.993  0.0545 -1.9476  0.6428
   10CHTO   C34 4146   5.159  10.075   1.861 -0.6327 -0.1476  0.0066
   10CHTO   O23 4147   5.294  10.049   1.898 -0.2445  0.4773  0.1090
   10CHTO   H38 4148   5.325   9.981   1.841 -0.2288 -0.0493  0.7443
   10CHTO   O16 4149   5.191  10.488   1.701  0.4764  0.1897 -0.3233
   10CHTO   C24 4150   5.345  10.503   1.722 -0.0515 -0.2860  0.1428
   10CHTO   H52 4151   5.380  10.462   1.817  1.5017 -1.0701 -0.7419
   10CHTO   C26 4152   5.377  10.653   1.728 -0.2202  0.1479  0.0397
   10CHTO   H54 4153   5.327  10.705   1.644 -1.3273  0.0199  0.6079
   10CHTO   O20 4154   5.308  10.708   1.848  0.5168  0.3737 -0.1925
   10CHTO   H36 4155   5.214  10.708   1.846  0.5240  0.7248 -0.9906
   10CHTO   C30 4156   5.534  10.676   1.739  0.7321 -0.5676 -0.1636
   10CHTO   H58 4157   5.562  10.628   1.834 -2.3469  0.3185  1.2537
   10CHTO    N6 4158   5.560  10.821   1.752  0.0694 -0.3339 -0.6150
   10CHTO   H45 4159   5.663  10.850   1.736 -1.2417  3.7154 -2.3289
   10CHTO   H46 4160   5.510  10.880   1.677 -0.6063  0.3048  0.3326
   10CHTO   C33 4161   5.595  10.600   1.623 -0.3637 -0.0817  0.6049
   10CHTO   H61 4162   5.557  10.642   1.528  0.7625 -0.9083 -0.2296
   10CHTO   O18 4163   5.563  10.461   1.623  0.7352 -0.2894 -0.4630
   10CHTO   C28 4164   5.423  10.434   1.605  0.2653  0.2747  0.1166
   10CHTO   H56 4165   5.391  10.471   1.507 -0.2209 -1.2620 -0.3185
   10CHTO   C35 4166   5.404  10.283   1.610  0.5397 -0.0619  0.2550
   10CHTO   O24 4167   5.297  10.233   1.529  0.6162 -0.0234  0.2691
   10CHTO   H39 4168   5.214  10.273   1.548  0.2112  0.1892 -1.9140
   10CHTO    O9 4169   5.738  10.622   1.618 -0.0952  0.3670 -0.4842
   10CHTO   C13 4170   5.801  10.628   1.473  0.1283  0.3660 -0.4578
   10CHTO   H26 4171   5.739  10.702   1.420 -1.0627 -0.2995 -0.0060
   10CHTO   C11 4172   5.796  10.483   1.394  0.2066  0.2418 -0.1418
   10CHTO   H24 4173   5.691  10.461   1.368  0.1208 -0.6991  0.9504
   10CHTO    O8 4174   5.844  10.369   1.468 -0.5857 -0.8925 -0.2056
   10CHTO    H3 4175   5.787  10.339   1.537  0.1595  1.5862  1.5517
   10CHTO    C9 4176   5.879  10.501   1.263 -0.6363  0.2247  0.5957
   10CHTO   H22 4177   5.851  10.599   1.223 -3.6475  0.2470  2.5629
   10CHTO    N2 4178   5.845  10.405   1.159  0.4148  0.2980 -0.2453
   10CHTO   H10 4179   5.741  10.416   1.134  0.3864  0.3510 -0.1085
   10CHTO   H11 4180   5.854  10.304   1.197  0.0584  0.8487  1.3323
   10CHTO    C7 4181   6.030  10.517   1.310  0.4630 -0.1781 -0.2826
   10CHTO   H20 4182   6.083  10.573   1.230  1.5594 -1.0963 -0.2156
   10CHTO    O4 4183   6.046  10.573   1.439  0.0200 -0.3104  0.0765
   10CHTO   C14 4184   5.957  10.681   1.476  0.0680  0.2766 -0.0289
   10CHTO   H27 4185   5.968  10.762   1.401  1.0586 -2.3312 -2.8165
   10CHTO   C18 4186   6.003  10.737   1.607 -0.3881 -0.3183 -0.1708
   10CHTO   O13 4187   5.926  10.850   1.645  0.3770 -0.7866 -0.1180
   10CHTO    H7 4188   5.871  10.819   1.714  1.7393 -1.5325  0.6602
   10CHTO    O2 4189   6.111  10.382   1.303 -0.2217  0.2474 -0.0298
   10CHTO    C1 4190   6.249  10.382   1.345  0.5982 -0.5364  0.2910
   10CHTO   H14 4191   6.278  10.467   1.409  0.7480  0.2776 -0.8429
   10CHTO    C2 4192   6.352  10.382   1.231 -0.4674 -0.6068 -0.6545
   10CHTO   H15 4193   6.322  10.301   1.163 -2.9936  0.7170 -1.2145
   10CHTO    O6 4194   6.342  10.504   1.154  0.3018  0.0408 -0.3550
   10CHTO    H1 4195   6.339  10.494   1.061 -2.9137  2.6783 -0.6365
   10CHTO    C3 4196   6.505  10.365   1.273  0.1078 -0.1062 -0.3898
   10CHTO   H16 4197   6.550  10.454   1.319  1.4155 -0.5461 -0.7970
   10CHTO    N1 4198   6.590  10.340   1.162  0.0393  0.6273  0.5263
   10CHTO    H8 4199   6.690  10.312   1.191 -0.3229 -1.4523 -0.1204
   10CHTO    H9 4200   6.552  10.264   1.095  0.2922  0.8839  0.0945
   10CHTO    C4 4201   6.512  10.256   1.388  0.4152 -0.0570 -0.2842
   10CHTO   H17 4202   6.497  10.158   1.343  1.4015 -0.9904  1.3766
   10CHTO    O1 4203   6.413  10.262   1.489  0.2515 -0.1669  0.3476
   10CHTO    C5 4204   6.280  10.258   1.434 -0.8954  0.3272 -0.8589
   10CHTO   H18 4205   6.271  10.161   1.384 -0.7698 -0.2299  0.1927
   10CHTO   C16 4206   6.182  10.249   1.545  0.0033  0.2761  0.1001
   10CHTO   O11 4207   6.182  10.126   1.624  0.5491  0.6539 -0.4475
   10CHTO    H5 4208   6.224  10.055   1.579 -4.1058 -0.9320 -2.6127
   10CHTO    O3 4209   6.641  10.259   1.461  0.3232 -0.2670 -0.2429
   10CHTO    C6 4210   6.694  10.131   1.497  0.4493  0.4643 -0.9863
   10CHTO   H19 4211   6.631  10.044   1.480 -1.7481  1.2058  2.6879
   10CHTO    C8 4212   6.825  10.094   1.422 -0.1137  0.7182 -0.5908
   10CHTO   H21 4213   6.901  10.169   1.445  0.8074 -0.1839 -0.6531
   10CHTO    O7 4214   6.798  10.098   1.278 -0.1389  0.0255  0.1999
   10CHTO    H2 4215   6.783  10.014   1.239 -0.7677 -0.4995  1.5515
   10CHTO   C12 4216   6.887   9.957   1.477 -0.3042  0.1450  0.1145
   10CHTO   H25 4217   6.818   9.878   1.439  0.4718  0.0706 -1.1538
   10CHTO    N3 4218   7.020   9.929   1.410  0.1406  0.0495 -0.6303
   10CHTO   H12 4219   7.103   9.925   1.479 -2.6825  1.4203  3.0567
   10CHTO   H13 4220   7.014   9.841   1.348 -1.5275 -2.3338  2.7107
   10CHTO   C15 4221   6.883   9.960   1.629  0.0481 -0.0885 -0.3910
   10CHTO   H28 4222   6.965  10.017   1.671 -0.5646 -0.1158  0.8694
   10CHTO   O10 4223   6.887   9.825   1.692 -0.2314  0.7405  0.7694
   10CHTO    H4 4224   6.969   9.779   1.698  0.9516  2.9233  1.9256
   10CHTO    O5 4225   6.759   9.997   1.692 -0.3704 -0.0787 -0.3979
   10CHTO   C10 4226   6.724  10.129   1.651  0.5094 -0.1302 -0.6290
   10CHTO   H23 4227   6.807  10.194   1.676  0.9960 -0.4902 -1.2739
   10CHTO   C17 4228   6.609  10.164   1.744 -0.2641 -1.1592  0.7032
   10CHTO   O12 4229   6.664  10.200   1.874 -0.0809 -0.4243 -0.2633
   10CHTO    H6 4230   6.703  10.123   1.910 -2.4358 -1.7276 -0.4289
   11CHTO  H203 4231   7.886   5.059   0.668 -1.0548  1.0058  0.7663
   11CHTO   O82 4232   7.826   5.107   0.613 -0.2571  0.8265 -0.2779
   11CHTO  C123 4233   7.827   5.250   0.639 -0.5125 -0.0288 -0.1489
   11CHTO  H227 4234   7.878   5.306   0.560 -1.6097  2.4084  0.8336
   11CHTO   O77 4235   7.683   5.263   0.636 -0.2066 -0.3683  0.2535
   11CHTO  C118 4236   7.632   5.391   0.636 -0.2546 -0.9318 -0.1934
   11CHTO  H222 4237   7.682   5.466   0.574  0.2997 -1.0052  0.1556
   11CHTO  C125 4238   7.482   5.384   0.604 -0.0313 -0.7235 -0.0223
   11CHTO   O84 4239   7.463   5.322   0.481 -0.1952  0.1109 -1.0875
   11CHTO  H205 4240   7.384   5.274   0.465 -1.1179  1.8381 -1.9154
   11CHTO  C114 4241   7.643   5.440   0.778 -0.2086  0.4549 -0.1414
   11CHTO  H218 4242   7.582   5.374   0.840 -0.3011  1.7307  1.1580
   11CHTO  C116 4243   7.795   5.434   0.820 -0.0859 -0.9751  0.2326
   11CHTO  H220 4244   7.843   5.515   0.760 -2.0086 -0.0703 -0.1066
   11CHTO   O79 4245   7.813   5.462   0.956  0.3242 -0.2306 -0.4390
   11CHTO  H201 4246   7.795   5.399   1.023  2.5880 -0.3848  0.0722
   11CHTO  C120 4247   7.870   5.296   0.780  0.3268 -0.0057 -0.1026
   11CHTO  H224 4248   7.836   5.223   0.856 -0.5541  1.5727  1.0577
   11CHTO   N21 4249   8.017   5.299   0.796  0.0398  0.1872  0.2557
   11CHTO  H211 4250   8.042   5.404   0.785 -0.2851  0.3067  0.6206
   11CHTO  H212 4251   8.033   5.261   0.896 -1.5110 -0.3254  0.3305
   11CHTO   O75 4252   7.594   5.578   0.785  0.5759 -0.1275  0.1250
   11CHTO  C112 4253   7.490   5.606   0.924 -0.6087 -0.5292  1.2147
   11CHTO  H216 4254   7.527   5.568   1.020  2.0297 -0.2092  0.3803
   11CHTO   O73 4255   7.355   5.559   0.894 -0.2934 -0.9439 -0.4926
   11CHTO  C113 4256   7.262   5.611   0.990 -0.2834 -0.6183 -0.4719
   11CHTO  H217 4257   7.295   5.581   1.092  0.3594  0.5897 -0.3148
   11CHTO  C124 4258   7.131   5.533   0.963 -1.0804 -0.0584  0.2764
   11CHTO   O83 4259   7.140   5.395   0.978  0.6076  0.4029  0.3308
   11CHTO  H204 4260   7.073   5.353   1.029  0.0962  1.7032  0.7293
   11CHTO  C109 4261   7.250   5.762   1.000  0.8959 -0.2529 -0.0468
   11CHTO  H213 4262   7.225   5.799   0.899  0.3430 -0.1407  0.1259
   11CHTO  C110 4263   7.385   5.820   1.035 -0.1549  0.8194 -0.4306
   11CHTO  H214 4264   7.409   5.799   1.139 -0.7586 -1.8719 -0.8076
   11CHTO   O78 4265   7.375   5.960   1.024  0.7156  0.5499 -0.5470
   11CHTO  H200 4266   7.453   5.995   1.062 -0.2918 -1.0658  3.2160
   11CHTO  C111 4267   7.500   5.765   0.943  0.1189 -1.1854  0.3351
   11CHTO  H215 4268   7.480   5.797   0.839  1.6308  1.8866  0.9332
   11CHTO   N19 4269   7.638   5.809   0.970 -0.0087 -0.5701 -0.5242
   11CHTO  H207 4270   7.656   5.895   0.906 -1.3906  0.3907  0.3437
   11CHTO  H208 4271   7.645   5.841   1.073 -1.0970  0.0510 -0.6281
   11CHTO   O74 4272   7.142   5.797   1.097 -0.2351 -0.6857  0.1595
   11CHTO  C115 4273   6.997   5.832   1.023  0.1691 -0.0924 -1.0732
   11CHTO  H219 4274   7.006   5.844   0.915 -2.2702  1.7420 -1.0991
   11CHTO   O76 4275   6.893   5.720   1.049 -0.1606  0.1320  0.2691
   11CHTO  C122 4276   6.762   5.737   0.993  0.1444  0.3355  0.8634
   11CHTO  H226 4277   6.697   5.655   1.024 -1.9574  1.6977  0.1245
   11CHTO  C126 4278   6.769   5.740   0.826  0.5574  0.1540  0.2413
   11CHTO   O85 4279   6.650   5.705   0.763  0.5277 -0.2257 -0.2737
   11CHTO  H206 4280   6.640   5.612   0.767  1.0635 -0.3183 -0.9750
   11CHTO  C121 4281   6.699   5.864   1.054 -0.3440 -0.1529  0.3739
   11CHTO  H225 4282   6.609   5.874   0.990  0.0751  0.4985 -0.1283
   11CHTO   O81 4283   6.668   5.823   1.183 -0.4425  0.4350  0.2250
   11CHTO  H202 4284   6.593   5.873   1.209 -1.0504  0.6618 -1.8784
   11CHTO  C119 4285   6.791   5.989   1.041  0.1082  0.4636  0.5181
   11CHTO  H223 4286   6.793   6.017   0.936  0.4158 -0.6327  0.2184
   11CHTO  C117 4287   6.937   5.959   1.089 -0.1054  0.0073  0.8260
   11CHTO  H221 4288   6.963   5.959   1.195  1.8710  1.5048  0.3765
   11CHTO   N20 4289   7.030   6.072   1.046 -0.2969 -0.3124  0.2059
   11CHTO  H209 4290   7.128   6.047   1.083 -0.7242 -0.7384  1.0708
   11CHTO  H210 4291   7.036   6.105   0.943 -0.1667 -0.3261  0.2085
   11CHTO   O80 4292   6.729   6.126   1.109  0.1346 -0.1106 -0.2045
   11CHTO  C103 4293   6.701   6.125   1.283  0.5807 -0.3798  0.5013
   11CHTO  H190 4294   6.679   6.024   1.319 -1.8452 -0.4067 -0.9393
   11CHTO  C101 4295   6.811   6.198   1.370 -0.0308 -0.2605  0.4854
   11CHTO  H188 4296   6.852   6.285   1.319  1.3706 -2.2257 -1.8077
   11CHTO   O68 4297   6.910   6.103   1.387 -0.6349  0.2093 -0.3906
   11CHTO  H168 4298   6.988   6.135   1.428 -0.8987  1.2397 -0.6722
   11CHTO   C99 4299   6.744   6.243   1.506 -0.1536  0.4283 -0.5263
   11CHTO  H186 4300   6.716   6.155   1.568  0.6625  2.0022  2.1429
   11CHTO   N17 4301   6.840   6.312   1.591 -0.5620 -0.6070  0.6210
   11CHTO  H174 4302   6.804   6.347   1.686  2.1181  1.5571  0.8945
   11CHTO  H175 4303   6.917   6.237   1.602 -0.2390 -0.3200  0.3311
   11CHTO   C97 4304   6.613   6.323   1.480 -0.7172  0.2267  0.1350
   11CHTO  H184 4305   6.635   6.417   1.427  2.2292  0.1301  1.1025
   11CHTO   O64 4306   6.520   6.236   1.406  0.3840 -0.1771 -0.2429
   11CHTO  C104 4307   6.563   6.198   1.278  0.7389  0.3302  0.1401
   11CHTO  H191 4308   6.570   6.289   1.219 -0.4845 -0.5835 -1.4399
   11CHTO  C108 4309   6.452   6.116   1.209  0.1847 -0.7663 -0.0671
   11CHTO   O71 4310   6.442   5.978   1.248 -0.0281 -0.6646 -0.6883
   11CHTO  H171 4311   6.385   5.975   1.322 -1.0160  2.5716 -1.2575
   11CHTO   O62 4312   6.543   6.343   1.601  0.1787  0.4262 -0.4931
   11CHTO   C91 4313   6.445   6.447   1.592 -0.4346 -0.6627  0.1124
   11CHTO  H178 4314   6.394   6.443   1.496 -3.5374 -1.1523  1.7032
   11CHTO   C92 4315   6.520   6.584   1.593  0.2727  0.0996  0.5352
   11CHTO  H179 4316   6.621   6.576   1.550  0.6462 -0.3353  1.4824
   11CHTO   O66 4317   6.438   6.671   1.517  0.4475 -0.2987  0.2413
   11CHTO  H166 4318   6.482   6.738   1.469 -2.1584  0.0701 -1.7720
   11CHTO   C93 4319   6.532   6.650   1.732  0.0360 -0.6539 -0.4686
   11CHTO  H180 4320   6.557   6.755   1.711  1.5436 -1.4156 -2.6241
   11CHTO   N16 4321   6.637   6.598   1.825  1.0612 -0.0950  0.0362
   11CHTO  H172 4322   6.596   6.583   1.924  0.0327 -0.7073 -0.4757
   11CHTO  H173 4323   6.728   6.656   1.829  1.0697 -0.2046  2.4684
   11CHTO   C94 4324   6.386   6.648   1.804 -0.0432  0.6571 -0.1022
   11CHTO  H181 4325   6.394   6.614   1.907 -0.1406  0.7057 -0.0783
   11CHTO   O61 4326   6.286   6.569   1.731 -0.8445 -0.1797 -0.4086
   11CHTO   C95 4327   6.329   6.440   1.696 -0.2635 -0.9426 -0.3650
   11CHTO  H182 4328   6.358   6.392   1.790 -0.1639  0.6028  0.4131
   11CHTO  C106 4329   6.210   6.349   1.649  0.0774  0.2225  0.3210
   11CHTO   O69 4330   6.272   6.217   1.634  0.1260  0.2745 -0.1185
   11CHTO  H169 4331   6.321   6.214   1.554 -0.2184  0.7094 -0.3491
   11CHTO   O63 4332   6.339   6.785   1.800 -0.0376  0.1357  0.5232
   11CHTO   C96 4333   6.374   6.887   1.935  0.0686  0.4693 -0.5251
   11CHTO  H183 4334   6.424   6.831   2.015  0.9920 -0.7262 -1.9218
   11CHTO   C98 4335   6.241   6.950   1.990  0.2463 -0.2497  0.4367
   11CHTO  H185 4336   6.182   7.007   1.917  0.7420  1.1283  1.1105
   11CHTO   O67 4337   6.153   6.844   2.037 -0.2789  0.1189 -0.1186
   11CHTO  H167 4338   6.195   6.800   2.108  0.7515 -0.6152 -1.1843
   11CHTO  C102 4339   6.275   7.059   2.110  0.0172  0.3608  0.1075
   11CHTO  H189 4340   6.298   6.990   2.193 -0.9810 -1.0702 -0.7898
   11CHTO   N18 4341   6.161   7.145   2.156  0.4792 -0.4507  0.6705
   11CHTO  H176 4342   6.133   7.143   2.261  0.0188  0.9585  0.5804
   11CHTO  H177 4343   6.081   7.121   2.088 -0.5601  0.1627  1.6524
   11CHTO  C105 4344   6.400   7.140   2.070 -0.2084 -0.5122  0.2753
   11CHTO  H192 4345   6.388   7.242   2.106 -0.8372 -0.0336 -1.2329
   11CHTO   O65 4346   6.432   7.135   1.926 -0.1654  0.3170 -0.0362
   11CHTO  C100 4347   6.462   7.004   1.868  0.1064  0.1075  0.0917
   11CHTO  H187 4348   6.446   7.002   1.759  0.6795 -0.5068  0.0180
   11CHTO  C107 4349   6.615   6.981   1.879  0.3700 -0.0874  0.1128
   11CHTO   O70 4350   6.687   7.069   1.792  0.1331  0.2315 -0.0894
   11CHTO  H170 4351   6.775   7.040   1.777 -0.1968 -0.1349 -1.4070
   11CHTO   O57 4352   6.508   7.076   2.144  0.4655 -0.0298  0.3824
   11CHTO   C85 4353   6.561   7.147   2.257 -0.1413 -0.0127  0.3328
   11CHTO  H157 4354   6.473   7.199   2.301  0.2118  0.7601  0.1222
   11CHTO   C83 4355   6.654   7.263   2.206  0.2980 -0.5934 -0.3981
   11CHTO  H155 4356   6.605   7.326   2.132 -0.8236 -1.3045 -0.2773
   11CHTO   O56 4357   6.754   7.204   2.124 -0.0956  0.4579 -0.5365
   11CHTO  H135 4358   6.831   7.256   2.110 -0.3136  0.8918 -0.1106
   11CHTO   C81 4359   6.716   7.350   2.322 -0.2575  0.3421 -0.5671
   11CHTO  H153 4360   6.629   7.381   2.381  1.0051  2.4072  0.2545
   11CHTO   N14 4361   6.790   7.464   2.276  0.6050  0.2437  0.1426
   11CHTO  H141 4362   6.714   7.524   2.228 -0.0629 -1.5410 -1.0987
   11CHTO  H142 4363   6.823   7.509   2.367 -0.4775  0.1879  0.5720
   11CHTO   C79 4364   6.801   7.257   2.411 -0.4042  0.1623 -0.5436
   11CHTO  H151 4365   6.829   7.313   2.500 -0.5751 -2.1684  1.0016
   11CHTO   O52 4366   6.722   7.138   2.457 -0.5911 -0.3537 -0.3121
   11CHTO   C86 4367   6.633   7.063   2.367 -0.6594 -0.8530 -0.1899
   11CHTO  H158 4368   6.703   6.999   2.309 -0.7779  0.5752 -1.9481
   11CHTO   C90 4369   6.543   6.975   2.451  0.5746  0.2433 -0.0069
   11CHTO   O60 4370   6.609   6.872   2.518 -0.2133  0.1749 -0.0559
   11CHTO  H138 4371   6.605   6.802   2.456 -0.8751  1.1756 -1.1533
   11CHTO   O50 4372   6.922   7.208   2.340  0.2611 -0.2948 -0.0566
   11CHTO   C73 4373   7.039   7.178   2.419 -0.4418  0.4657  0.0664
   11CHTO  H145 4374   7.006   7.121   2.507 -2.7233  2.1185  0.3340
   11CHTO   C74 4375   7.105   7.309   2.468 -0.5966 -0.1891 -0.1798
   11CHTO  H146 4376   7.031   7.372   2.520  0.5320  0.1635  1.0113
   11CHTO   O54 4377   7.190   7.258   2.570 -0.4765 -0.1937  0.5893
   11CHTO  H133 4378   7.184   7.321   2.639 -1.3794  0.1931  0.1745
   11CHTO   C75 4379   7.171   7.389   2.358  0.3823 -0.7365  0.2058
   11CHTO  H147 4380   7.089   7.427   2.295 -2.7553 -2.7541  2.9658
   11CHTO   N13 4381   7.236   7.512   2.404 -0.1595  0.0040 -0.0589
   11CHTO  H139 4382   7.258   7.575   2.318 -0.0917 -0.7187 -0.5757
   11CHTO  H140 4383   7.317   7.487   2.471  0.0030  0.0628 -0.2301
   11CHTO   C76 4384   7.268   7.298   2.270 -0.6058  0.6541  0.1122
   11CHTO  H148 4385   7.358   7.276   2.327 -0.4799  2.6164  0.6947
   11CHTO   O49 4386   7.201   7.175   2.233  0.6561 -0.0366 -0.6833
   11CHTO   C77 4387   7.126   7.093   2.321  0.2039 -0.1050 -0.7099
   11CHTO  H149 4388   7.187   7.024   2.381 -1.3858  1.6001  3.0495
   11CHTO   C88 4389   7.042   6.999   2.226  0.2254  0.3201  0.2063
   11CHTO   O58 4390   6.974   6.906   2.296  0.4040 -0.9365  0.5056
   11CHTO  H136 4391   6.882   6.918   2.281  0.3051 -0.0708  1.7281
   11CHTO   O51 4392   7.300   7.374   2.129  0.0216 -0.1878 -0.3970
   11CHTO   C78 4393   7.453   7.343   2.076  0.3568  0.3337 -0.3467
   11CHTO  H150 4394   7.500   7.256   2.127 -1.5767  0.3776  1.6007
   11CHTO   C80 4395   7.544   7.463   2.104  0.1316 -0.0368 -0.3312
   11CHTO  H152 4396   7.491   7.554   2.069 -1.1741 -1.0661 -1.0761
   11CHTO   O55 4397   7.563   7.479   2.246 -0.7971  0.3123 -0.0947
   11CHTO  H134 4398   7.490   7.446   2.295  0.5405  0.5881  2.1583
   11CHTO   C84 4399   7.683   7.448   2.037  0.3384 -0.4867  0.2006
   11CHTO  H156 4400   7.730   7.355   2.068 -1.2076 -1.0534  0.8850
   11CHTO   N15 4401   7.781   7.563   2.060 -0.1216 -0.0894 -0.1279
   11CHTO  H143 4402   7.852   7.580   1.981  0.0311  0.1251  0.0576
   11CHTO  H144 4403   7.830   7.557   2.155 -0.4788 -0.3699  0.0396
   11CHTO   C87 4404   7.657   7.427   1.886  0.2220 -0.7257 -0.5089
   11CHTO  H159 4405   7.608   7.517   1.848  4.1288  1.9113  0.3349
   11CHTO   O53 4406   7.567   7.295   1.876  0.2040 -0.3032  0.0605
   11CHTO   C82 4407   7.438   7.314   1.928  0.2207  0.4358 -0.7136
   11CHTO  H154 4408   7.391   7.400   1.879 -0.3163  0.1471 -0.7157
   11CHTO   C89 4409   7.346   7.191   1.894 -0.3321 -0.5001  0.1041
   11CHTO   O59 4410   7.390   7.072   1.959 -0.3890 -0.1514  0.2725
   11CHTO  H137 4411   7.477   7.055   1.930 -1.1076  0.5545 -2.4590
   11CHTO   O45 4412   7.785   7.393   1.815  0.3436  0.4938  0.4305
   11CHTO   C67 4413   7.769   7.378   1.671 -0.0479 -0.9775  0.6760
   11CHTO  H124 4414   7.670   7.344   1.640 -0.0174 -0.5527  0.1006
   11CHTO   C65 4415   7.803   7.515   1.602 -0.4249 -0.0058  0.5948
   11CHTO  H122 4416   7.896   7.551   1.646 -0.2620 -1.0669  1.1105
   11CHTO   O44 4417   7.697   7.604   1.635  0.4386 -1.0981  0.6664
   11CHTO  H102 4418   7.648   7.637   1.562  0.8252 -1.8553  0.0500
   11CHTO   C63 4419   7.842   7.493   1.447  0.4031  0.3209  0.4301
   11CHTO  H120 4420   7.950   7.476   1.443  0.8076  3.0013 -1.7911
   11CHTO   N11 4421   7.832   7.615   1.358 -0.8538  0.6024  0.0575
   11CHTO  H108 4422   7.878   7.613   1.262 -1.4120  0.8317 -0.2196
   11CHTO  H109 4423   7.734   7.656   1.343 -1.9813 -1.4896  1.3991
   11CHTO   C61 4424   7.799   7.352   1.384  0.1881 -0.2430  0.2416
   11CHTO  H118 4425   7.850   7.335   1.288 -0.5229  1.5539 -0.4757
   11CHTO   O40 4426   7.832   7.237   1.471  0.4242  0.7225 -0.2840
   11CHTO   C68 4427   7.867   7.267   1.611  0.4455  0.2207  0.7543
   11CHTO  H125 4428   7.975   7.289   1.623  0.9704 -1.6513 -0.3052
   11CHTO   C72 4429   7.847   7.136   1.690  0.1735  0.0682  0.8749
   11CHTO   O48 4430   7.722   7.073   1.685  0.3722  0.8097  0.0127
   11CHTO  H105 4431   7.669   7.097   1.758  1.4714  1.4847  0.5864
   11CHTO   O38 4432   7.657   7.346   1.357 -0.1029  0.1847  0.4872
   11CHTO   C55 4433   7.616   7.249   1.262  0.0693  0.2938  0.6591
   11CHTO  H112 4434   7.689   7.167   1.253 -0.5742 -0.3502  1.2967
   11CHTO   C56 4435   7.589   7.325   1.114  0.2756  0.3933  0.1075
   11CHTO  H113 4436   7.516   7.406   1.129  0.6807  0.8385 -0.3106
   11CHTO   O42 4437   7.708   7.387   1.067 -0.1844  0.1610 -1.1377
   11CHTO  H100 4438   7.728   7.473   1.098  2.5859 -0.6461 -0.5800
   11CHTO   C57 4439   7.537   7.212   1.014  0.4578  0.2605  0.5053
   11CHTO  H114 4440   7.619   7.142   1.000  1.5420  1.1018  2.4427
   11CHTO   N10 4441   7.496   7.270   0.884 -0.5323  0.3623 -0.2112
   11CHTO  H106 4442   7.521   7.192   0.813  1.8446 -0.4833  1.5030
   11CHTO  H107 4443   7.549   7.358   0.852  0.3573 -0.9936 -2.6232
   11CHTO   C58 4444   7.417   7.141   1.078  0.3154 -0.1447  0.2960
   11CHTO  H115 4445   7.336   7.214   1.100 -0.4797 -0.0864 -2.6806
   11CHTO   O37 4446   7.454   7.075   1.201 -0.3334 -0.6751  0.8947
   11CHTO   C59 4447   7.490   7.170   1.304  0.6721  0.7670 -0.1687
   11CHTO  H116 4448   7.405   7.238   1.320  0.9865  0.5567  2.6397
   11CHTO   C70 4449   7.496   7.100   1.440 -0.6345  0.6539 -0.0206
   11CHTO   O46 4450   7.484   7.189   1.550 -0.0966  0.0109 -0.2104
   11CHTO  H103 4451   7.393   7.200   1.569  0.2191 -0.3822  1.6480
   11CHTO   O39 4452   7.362   7.019   0.979  0.2735  0.2974  0.3390
   11CHTO   C60 4453   7.221   7.001   0.986 -0.4995  0.7649  0.4768
   11CHTO  H117 4454   7.174   7.070   1.057 -3.6121  1.0937 -1.8305
   11CHTO   C62 4455   7.156   7.041   0.845 -0.9637  0.8695 -0.0873
   11CHTO  H119 4456   7.171   7.150   0.841 -2.1518  0.9962 -1.3842
   11CHTO   O43 4457   7.204   6.960   0.737  0.2745  0.2978  0.8294
   11CHTO  H101 4458   7.171   6.873   0.747  1.0332  0.1496  2.1136
   11CHTO   C66 4459   6.997   7.031   0.862  1.0589 -0.3491  0.3926
   11CHTO  H123 4460   6.972   7.086   0.953 -0.2856  1.4082 -1.0234
   11CHTO   N12 4461   6.917   7.089   0.750  0.6447  0.2807 -0.7254
   11CHTO  H110 4462   6.980   7.104   0.663  1.6341 -3.5552 -0.7528
   11CHTO  H111 4463   6.823   7.039   0.732  0.9488 -0.6286  0.1861
   11CHTO   C69 4464   6.956   6.882   0.878  0.5989  1.3089 -0.2884
   11CHTO  H126 4465   6.976   6.822   0.787 -1.0378  0.4086 -0.0799
   11CHTO   O41 4466   7.029   6.823   1.004 -0.1893  0.3156  0.0649
   11CHTO   C64 4467   7.182   6.858   1.024  0.3618 -0.4138  0.5488
   11CHTO  H121 4468   7.237   6.788   0.959 -1.0216  1.5611 -2.9022
   11CHTO   C71 4469   7.234   6.828   1.178  0.9047  0.9345 -0.3328
   11CHTO   O47 4470   7.167   6.904   1.280 -0.0675 -0.3767 -0.1782
   11CHTO  H104 4471   7.189   6.995   1.277  1.9199 -0.8318  0.2438
   11CHTO   O34 4472   6.804   6.874   0.904 -0.3469 -0.0324 -0.5927
   11CHTO   C49 4473   6.719   6.734   0.912  0.2825  0.5157 -0.2365
   11CHTO   H91 4474   6.769   6.669   0.840  0.3738  1.5706 -1.1472
   11CHTO   C47 4475   6.576   6.756   0.860 -0.0677 -0.0315 -1.3898
   11CHTO   H89 4476   6.531   6.655   0.845 -2.7421  0.6207  1.5065
   11CHTO   O33 4477   6.580   6.821   0.731 -0.1402 -0.5145  0.0483
   11CHTO   H70 4478   6.556   6.772   0.655  1.5882 -4.0221  1.6550
   11CHTO   C45 4479   6.495   6.841   0.973 -0.1928 -0.0308 -0.3640
   11CHTO   H87 4480   6.552   6.930   1.002  0.2240  0.2063 -1.8819
   11CHTO    N8 4481   6.362   6.883   0.924 -0.4815  0.7188 -0.1598
   11CHTO   H75 4482   6.378   6.974   0.869 -0.8572  0.5593 -0.5268
   11CHTO   H76 4483   6.287   6.886   1.001  0.9017 -0.1213  1.2684
   11CHTO   C43 4484   6.486   6.728   1.090 -0.2272 -0.0906  0.1764
   11CHTO   H85 4485   6.425   6.772   1.169 -0.4552  0.6344 -0.4038
   11CHTO   O29 4486   6.611   6.689   1.136  0.4400 -0.1663  0.5217
   11CHTO   C50 4487   6.715   6.655   1.045  0.2611 -0.2269 -0.0271
   11CHTO   H92 4488   6.813   6.673   1.092  1.5911  0.4046 -2.9214
   11CHTO   C54 4489   6.718   6.495   1.028 -0.2032  0.2943 -0.4430
   11CHTO   O36 4490   6.776   6.438   1.149 -0.2557  0.3904  0.2657
   11CHTO   H72 4491   6.787   6.346   1.133 -1.9096 -0.0796  1.7056
   11CHTO   O27 4492   6.403   6.614   1.052 -0.1839  0.4212  0.0129
   11CHTO   C37 4493   6.336   6.493   1.091 -0.2481  0.0454  0.8136
   11CHTO   H79 4494   6.406   6.429   1.146 -0.3927 -0.6990  0.1496
   11CHTO   C38 4495   6.213   6.526   1.181 -0.5888 -0.0290 -0.5150
   11CHTO   H80 4496   6.142   6.590   1.127 -1.7770 -1.7468 -1.0422
   11CHTO   O31 4497   6.253   6.592   1.301  0.3995  0.2391  0.6358
   11CHTO   H68 4498   6.187   6.645   1.340  1.3240  0.1573  2.3592
   11CHTO   C39 4499   6.126   6.401   1.217 -0.3711 -0.0212  0.2489
   11CHTO   H81 4500   6.185   6.337   1.282  0.3362  0.3921  0.0208
   11CHTO    N7 4501   5.998   6.431   1.290 -0.0142 -0.5043 -0.2718
   11CHTO   H73 4502   5.965   6.342   1.343  0.9604 -1.6430 -1.5656
   11CHTO   H74 4503   5.933   6.481   1.220  2.0395  1.3367 -0.8894
   11CHTO   C40 4504   6.105   6.312   1.087  0.0571 -0.7571  0.0625
   11CHTO   H82 4505   6.019   6.341   1.026  1.7129  1.4140 -1.3074
   11CHTO   O26 4506   6.220   6.296   1.006 -0.4993 -0.0248 -0.0435
   11CHTO   C41 4507   6.283   6.415   0.968  0.2190  0.0381  0.1839
   11CHTO   H83 4508   6.203   6.475   0.922  0.0076 -0.0460  0.4470
   11CHTO   C52 4509   6.387   6.373   0.859  0.6556 -0.2866 -0.5151
   11CHTO   O35 4510   6.403   6.475   0.761  0.2935  0.5646 -0.1682
   11CHTO   H71 4511   6.334   6.467   0.699 -0.6037 -1.9356  1.0912
   11CHTO   O28 4512   6.088   6.178   1.139 -0.4108 -0.3923 -0.4972
   11CHTO   C42 4513   6.001   6.089   1.076 -0.0018 -0.0660  0.2213
   11CHTO   H84 4514   6.004   6.115   0.970  1.2356 -0.3389  0.1773
   11CHTO   C44 4515   5.843   6.098   1.113 -0.1604  0.2547 -0.1727
   11CHTO   H86 4516   5.834   6.107   1.222 -0.0261  1.4375 -0.2523
   11CHTO   O32 4517   5.802   6.223   1.050 -0.1918 -0.0191 -0.4953
   11CHTO   H69 4518   5.785   6.212   0.958 -2.5808 -0.8735  0.0070
   11CHTO   C48 4519   5.763   5.972   1.069  0.0185  0.1690  0.5195
   11CHTO   H90 4520   5.738   5.984   0.963 -2.1039 -0.8158  0.8751
   11CHTO    N9 4521   5.630   5.984   1.139 -0.3135 -0.4002  0.6109
   11CHTO   H77 4522   5.565   6.046   1.079 -0.5826 -0.2745  1.0295
   11CHTO   H78 4523   5.595   5.894   1.187  0.7479 -0.3234  1.5510
   11CHTO   C51 4524   5.836   5.835   1.080 -0.0715 -0.3424  0.0527
   11CHTO   H93 4525   5.854   5.812   1.185  1.1062  3.6537  0.8092
   11CHTO   O30 4526   5.956   5.849   1.007  0.3628 -0.3277  0.4372
   11CHTO   C46 4527   6.051   5.950   1.078 -0.5054 -0.1282  0.2101
   11CHTO   H88 4528   6.059   5.923   1.183  2.3115 -0.8821 -0.1391
   11CHTO   C53 4529   6.199   5.939   1.015  0.3714  0.6401 -0.5009
   11CHTO   O72 4530   6.206   5.963   0.876  0.0509  0.7029 -0.1043
   11CHTO  H199 4531   6.297   5.972   0.857  0.2820 -0.4548  0.4177
   11CHTO   O22 4532   5.771   5.725   1.008 -0.1867  0.0677 -0.2354
   11CHTO   C31 4533   5.658   5.643   1.052 -0.3825 -0.0391 -0.3137
   11CHTO   H59 4534   5.635   5.674   1.156 -0.9708 -0.5412 -0.2933
   11CHTO   C29 4535   5.530   5.649   0.972  0.0159  1.3297 -0.0179
   11CHTO   H57 4536   5.553   5.592   0.881 -2.0193  1.8777 -0.9036
   11CHTO   O21 4537   5.486   5.784   0.940 -0.3271  0.0905  0.2522
   11CHTO   H37 4538   5.431   5.801   0.866 -0.0242  1.2493  0.2785
   11CHTO   C27 4539   5.416   5.568   1.036  0.0657 -0.2878  1.1117
   11CHTO   H55 4540   5.384   5.623   1.126  1.6428 -2.0724  2.8277
   11CHTO    N5 4541   5.296   5.548   0.957  0.1057 -0.3687  0.0496
   11CHTO   H43 4542   5.262   5.644   0.921 -0.1923 -0.1156  1.0016
   11CHTO   H44 4543   5.215   5.498   1.007  0.2663 -0.6664  0.0152
   11CHTO   C25 4544   5.468   5.425   1.080 -0.0939  0.6686 -0.0349
   11CHTO   H53 4545   5.475   5.355   0.996 -2.9422  2.1561 -1.5762
   11CHTO   O17 4546   5.599   5.430   1.151 -1.0578 -0.0818 -0.0910
   11CHTO   C32 4547   5.699   5.494   1.061  0.3128  0.2070 -0.6489
   11CHTO   H60 4548   5.683   5.450   0.963 -0.5694 -0.8604 -0.0379
   11CHTO   C36 4549   5.842   5.463   1.117 -0.4387 -0.1741 -0.6494
   11CHTO   O25 4550   5.855   5.320   1.126  0.7334 -0.0239 -0.1294
   11CHTO   H40 4551   5.873   5.288   1.039 -1.5375  0.1402 -0.6881
   11CHTO   O15 4552   5.382   5.355   1.187 -0.2462 -0.3279  0.1972
   11CHTO   C19 4553   5.280   5.253   1.226 -0.2167  0.4387  0.5217
   11CHTO   H47 4554   5.279   5.261   1.336  2.6249  1.2747  0.5225
   11CHTO   C20 4555   5.131   5.277   1.178 -0.0225  0.8707  0.1225
   11CHTO   H48 4556   5.129   5.300   1.070  0.4770  1.2079  0.1820
   11CHTO   O19 4557   5.095   5.389   1.259 -0.2341 -0.3735  0.1940
   11CHTO   H35 4558   5.006   5.386   1.288 -0.2824 -2.0668 -0.0954
   11CHTO   C21 4559   5.034   5.155   1.210 -0.2243  0.1156 -0.0321
   11CHTO   H49 4560   5.030   5.144   1.318 -1.0061 -0.8026 -0.1547
   11CHTO    N4 4561   4.894   5.174   1.165  0.3442  0.1714 -0.6977
   11CHTO   H41 4562   4.837   5.219   1.245  1.3619  0.5532 -0.1876
   11CHTO   H42 4563   4.856   5.073   1.153  1.2618 -0.5328  2.0057
   11CHTO   C22 4564   5.100   5.025   1.158  0.5291 -0.3929 -0.3307
   11CHTO   H50 4565   5.125   5.038   1.052  2.1760  0.9812  0.2002
   11CHTO   O14 4566   5.226   5.011   1.227 -0.0545 -0.2914  0.3972
   11CHTO   C23 4567   5.329   5.108   1.193 -0.7668 -0.0928  0.3551
   11CHTO   H51 4568   5.346   5.095   1.085 -0.2610  0.4731  0.3621
   11CHTO   C34 4569   5.458   5.075   1.262 -0.0607  0.6967 -0.2203
   11CHTO   O23 4570   5.496   4.939   1.229  0.3223  0.8363 -0.0702
   11CHTO   H38 4571   5.445   4.891   1.292  0.3929 -0.5664 -1.0601
   11CHTO   O16 4572   5.027   4.906   1.191  0.2636  0.2887 -0.2384
   11CHTO   C24 4573   4.985   4.819   1.044 -0.2238 -0.1056 -0.3199
   11CHTO   H52 4574   5.006   4.880   0.955  1.0442 -0.5524 -0.3324
   11CHTO   C26 4575   4.838   4.775   1.045  0.5226  0.3997  0.2075
   11CHTO   H54 4576   4.827   4.699   1.125 -1.1567  0.8243  0.3924
   11CHTO   O20 4577   4.747   4.887   1.058  0.2268 -0.5243 -0.3999
   11CHTO   H36 4578   4.764   4.919   1.145 -0.5769  1.8217 -1.0570
   11CHTO   C30 4579   4.812   4.704   0.906 -0.5547  0.7111  0.6004
   11CHTO   H58 4580   4.798   4.776   0.823  1.5099 -1.2022 -1.4956
   11CHTO    N6 4581   4.677   4.637   0.901  0.5836 -0.5088 -0.4547
   11CHTO   H45 4582   4.612   4.680   0.975  0.0011 -0.9391 -0.7063
   11CHTO   H46 4583   4.694   4.533   0.926 -0.7014 -0.0994  2.3385
   11CHTO   C33 4584   4.919   4.600   0.858  0.1477 -0.2277 -0.1970
   11CHTO   H61 4585   4.899   4.502   0.903  0.7648  0.1470  0.9187
   11CHTO   O18 4586   5.054   4.640   0.904 -0.3309 -0.1544  0.7552
   11CHTO   C28 4587   5.072   4.696   1.029 -0.0834 -0.0452  0.5451
   11CHTO   H56 4588   5.041   4.622   1.103 -0.3379 -0.8364 -0.3364
   11CHTO   C35 4589   5.227   4.726   1.056 -0.7003  0.1341 -0.1496
   11CHTO   O24 4590   5.290   4.601   1.054  0.1051 -0.1799  0.1785
   11CHTO   H39 4591   5.252   4.545   1.118  1.5661  0.0976  1.3333
   11CHTO    O9 4592   4.915   4.573   0.719 -0.3456  0.6506 -0.1492
   11CHTO   C13 4593   4.980   4.701   0.629 -0.2256  0.4742  0.0062
   11CHTO   H26 4594   5.006   4.779   0.702  0.3253 -1.2919  1.7455
   11CHTO   C11 4595   4.883   4.748   0.517 -0.7154 -0.3453 -0.1264
   11CHTO   H24 4596   4.782   4.760   0.559 -0.2673  0.1260  0.8274
   11CHTO    O8 4597   4.874   4.646   0.422 -0.2388  0.0963  0.0630
   11CHTO    H3 4598   4.863   4.560   0.458  0.1074  0.5399  1.2795
   11CHTO    C9 4599   4.933   4.884   0.464 -0.2326  0.3679 -0.5769
   11CHTO   H22 4600   4.907   4.957   0.542  0.0956 -0.9942  0.8073
   11CHTO    N2 4601   4.848   4.930   0.347 -0.2061 -0.4851 -0.1004
   11CHTO   H10 4602   4.742   4.923   0.366 -0.1251  0.2169  0.5932
   11CHTO   H11 4603   4.871   5.034   0.331 -1.8662 -0.0719  0.1798
   11CHTO    C7 4604   5.091   4.881   0.442 -0.0157 -0.6262 -0.7107
   11CHTO   H20 4605   5.129   4.942   0.527  1.1039 -2.1653 -0.0802
   11CHTO    O4 4606   5.152   4.751   0.444  0.0968  0.2883  0.5617
   11CHTO   C14 4607   5.124   4.673   0.560 -0.0736 -0.2483 -0.9926
   11CHTO   H27 4608   5.192   4.690   0.646 -1.1957 -0.7112  0.0045
   11CHTO   C18 4609   5.127   4.530   0.534 -0.1762 -0.1793 -0.3760
   11CHTO   O13 4610   5.265   4.490   0.527  0.1785  0.4201 -0.0470
   11CHTO    H7 4611   5.275   4.398   0.511  0.6545  0.9486 -3.0902
   11CHTO    O2 4612   5.139   4.965   0.300 -0.2950 -0.3616  0.5815
   11CHTO    C1 4613   5.231   5.069   0.328  0.5431 -0.1588  0.1455
   11CHTO   H14 4614   5.261   5.064   0.435  0.8334 -0.3163  0.0578
   11CHTO    C2 4615   5.187   5.218   0.296  0.3716 -0.1652  0.0324
   11CHTO   H15 4616   5.190   5.228   0.186 -0.3339  1.9301  0.1780
   11CHTO    O6 4617   5.052   5.233   0.345 -0.3223 -0.0379 -0.1795
   11CHTO    H1 4618   5.002   5.283   0.283  1.4859  3.1752  0.8450
   11CHTO    C3 4619   5.300   5.322   0.358  0.4878  0.4992  0.0973
   11CHTO   H16 4620   5.322   5.294   0.462  0.6790 -0.2122 -0.1333
   11CHTO    N1 4621   5.276   5.470   0.354  0.3162 -0.0122 -0.2944
   11CHTO    H8 4622   5.344   5.523   0.289  2.0483 -2.1876 -0.3275
   11CHTO    H9 4623   5.171   5.472   0.332  0.6011  0.1255 -1.6771
   11CHTO    C4 4624   5.434   5.281   0.274 -0.7965  0.1967  0.2630
   11CHTO   H17 4625   5.414   5.288   0.167  4.2597  2.2542 -0.6752
   11CHTO    O1 4626   5.467   5.145   0.300 -0.0688 -0.3788  0.3128
   11CHTO    C5 4627   5.365   5.044   0.259  0.2326 -0.4601 -0.1373
   11CHTO   H18 4628   5.350   5.051   0.152 -1.9542  0.5087  0.2092
   11CHTO   C16 4629   5.423   4.906   0.294  0.1081 -0.0443  0.3520
   11CHTO   O11 4630   5.448   4.885   0.429  0.4463  0.0776 -0.7561
   11CHTO    H5 4631   5.363   4.912   0.458  0.7540  2.0925 -1.5936
   11CHTO    O3 4632   5.552   5.354   0.309 -0.0859 -0.2704 -0.3221
   11CHTO    C6 4633   5.641   5.388   0.191  0.6602 -0.5091  0.1899
   11CHTO   H19 4634   5.632   5.329   0.100  2.8631  0.3496 -0.6369
   11CHTO    C8 4635   5.622   5.539   0.151  0.8263  0.1851 -0.2942
   11CHTO   H21 4636   5.650   5.602   0.235  0.2028  1.9129 -1.3504
   11CHTO    O7 4637   5.479   5.562   0.125 -0.1592  0.0159  0.3501
   11CHTO    H2 4638   5.413   5.519   0.176  0.6866  1.0882  2.4218
   11CHTO   C12 4639   5.721   5.569   0.030  0.3318  0.2431 -0.3578
   11CHTO   H25 4640   5.701   5.497  -0.052  0.3096 -0.7374  0.5020
   11CHTO    N3 4641   5.699   5.704  -0.031 -0.1670  0.0819  0.1013
   11CHTO   H12 4642   5.744   5.783   0.028  2.6711  0.1311 -2.0147
   11CHTO   H13 4643   5.593   5.723  -0.027 -0.6436 -2.4409  0.4982
   11CHTO   C15 4644   5.868   5.544   0.082  0.4790  0.4643 -1.5014
   11CHTO   H28 4645   5.900   5.631   0.139 -1.2414  0.8395 -1.0743
   11CHTO   O10 4646   5.960   5.526  -0.034 -0.2329  0.0691 -0.0860
   11CHTO    H4 4647   5.976   5.613  -0.067 -0.3824  0.6065  1.2065
   11CHTO    O5 4648   5.888   5.417   0.149  0.3702 -0.4852 -0.0163
   11CHTO   C10 4649   5.788   5.373   0.242 -0.1642  0.5882 -0.1710
   11CHTO   H23 4650   5.788   5.420   0.341 -5.2292 -0.2120  0.3715
   11CHTO   C17 4651   5.829   5.229   0.266 -0.2268 -0.7148  0.4660
   11CHTO   O12 4652   5.957   5.213   0.325  0.3049 -0.6781  0.2761
   11CHTO    H6 4653   5.994   5.128   0.310  0.5137 -0.1802 -2.3141
   12CHTO  H203 4654   4.996  12.215  -0.385  1.4830 -0.9039 -0.6362
   12CHTO   O82 4655   4.921  12.160  -0.399  0.1679  0.6752  0.0884
   12CHTO  C123 4656   4.956  12.039  -0.327  0.0808 -0.0796  0.4099
   12CHTO  H227 4657   5.054  12.005  -0.364 -0.2373 -0.2443 -0.2785
   12CHTO   O77 4658   4.989  12.076  -0.188  0.0758  0.2756 -0.4458
   12CHTO  C118 4659   5.040  11.974  -0.100  0.1462  0.2352  0.2778
   12CHTO  H222 4660   5.141  11.958  -0.139  0.3664 -0.9987  1.3281
   12CHTO  C125 4661   5.057  12.028   0.043 -0.4467  1.0300 -0.2303
   12CHTO   O84 4662   4.929  12.060   0.107 -0.4806  0.3501 -0.6524
   12CHTO  H205 4663   4.859  12.026   0.054  0.1405 -3.4742  0.7904
   12CHTO  C114 4664   4.939  11.855  -0.102  0.1377 -0.5018  0.2289
   12CHTO  H218 4665   4.849  11.877  -0.045  0.2087 -0.0746  0.1753
   12CHTO  C116 4666   4.884  11.802  -0.238  0.3433 -0.3396  0.0634
   12CHTO  H220 4667   4.966  11.749  -0.291  0.3211 -2.7043  2.2422
   12CHTO   O79 4668   4.778  11.705  -0.209 -0.0014  0.5684  0.2680
   12CHTO  H201 4669   4.742  11.687  -0.294 -1.4475 -0.9622  1.1512
   12CHTO  C120 4670   4.838  11.926  -0.322  0.1615 -0.5564 -0.0105
   12CHTO  H224 4671   4.754  11.969  -0.264  0.0739  0.4921 -0.9052
   12CHTO   N21 4672   4.780  11.889  -0.449 -0.2771  0.0239 -0.2862
   12CHTO  H211 4673   4.781  11.975  -0.515 -1.5148  2.2467  2.4739
   12CHTO  H212 4674   4.840  11.815  -0.499  1.5673  1.2435  0.0426
   12CHTO   O75 4675   5.018  11.748  -0.042  0.0019 -0.0422  0.1032
   12CHTO  C112 4676   4.945  11.623   0.028  0.3325 -0.5494 -0.2962
   12CHTO  H216 4677   4.893  11.557  -0.042 -0.2011 -2.2191  1.6257
   12CHTO   O73 4678   4.853  11.673   0.131 -0.1410  0.0671  0.3531
   12CHTO  C113 4679   4.786  11.579   0.213 -0.3906  0.5546 -0.2856
   12CHTO  H217 4680   4.727  11.517   0.142  1.7234 -1.8388 -0.0435
   12CHTO  C124 4681   4.685  11.644   0.311 -0.0104  0.3137 -0.0716
   12CHTO   O83 4682   4.605  11.543   0.372 -0.6965  0.4192  0.2025
   12CHTO  H204 4683   4.515  11.568   0.379 -0.5350  1.5260 -1.4219
   12CHTO  C109 4684   4.890  11.489   0.285 -0.7249  0.0804  0.7337
   12CHTO  H213 4685   4.933  11.552   0.365  2.3579  0.3305 -1.0365
   12CHTO  C110 4686   5.002  11.434   0.196  0.3018 -0.7334  0.4836
   12CHTO  H214 4687   4.962  11.348   0.142  0.8562 -1.4719  1.2403
   12CHTO   O78 4688   5.099  11.376   0.279 -0.0776 -0.1289 -0.5011
   12CHTO  H200 4689   5.133  11.300   0.235 -0.8732 -0.4543 -0.5548
   12CHTO  C111 4690   5.061  11.548   0.105 -0.2700 -0.2922  0.2535
   12CHTO  H215 4691   5.098  11.622   0.178  2.2470 -1.9494  0.7220
   12CHTO   N19 4692   5.180  11.517   0.019  0.1150 -0.6825 -0.3577
   12CHTO  H207 4693   5.244  11.474   0.095 -0.2086 -1.3124 -0.4395
   12CHTO  H208 4694   5.232  11.605  -0.016  1.5844 -0.3028  2.6128
   12CHTO   O74 4695   4.817  11.367   0.344  0.0648  0.5125  0.2872
   12CHTO  C115 4696   4.864  11.321   0.492 -0.1872 -0.1879  0.6872
   12CHTO  H219 4697   4.946  11.383   0.529  0.9044 -1.3025  0.1768
   12CHTO   O76 4698   4.753  11.345   0.593  0.0402 -0.5114  0.0748
   12CHTO  C122 4699   4.635  11.269   0.574 -0.6253  0.4265  0.7387
   12CHTO  H226 4700   4.590  11.306   0.482  1.3275 -0.0146 -0.4391
   12CHTO  C126 4701   4.539  11.293   0.684 -0.8377 -0.5176  0.1022
   12CHTO   O85 4702   4.586  11.277   0.816  0.0520 -0.2001  0.0224
   12CHTO  H206 4703   4.536  11.336   0.870  0.9663 -1.2434  2.0728
   12CHTO  C121 4704   4.671  11.119   0.555 -0.1231 -0.6645  0.1602
   12CHTO  H225 4705   4.612  11.051   0.619 -1.3158  0.4137  0.2184
   12CHTO   O81 4706   4.636  11.087   0.419 -0.2283 -0.4491 -0.5607
   12CHTO  H202 4707   4.660  11.137   0.344  1.2050  1.6388  1.2503
   12CHTO  C119 4708   4.823  11.090   0.578 -1.0122 -0.4282 -0.2197
   12CHTO  H223 4709   4.851  11.124   0.678  0.8229 -0.5500 -0.6742
   12CHTO  C117 4710   4.918  11.167   0.485  0.0679  0.3344  0.3671
   12CHTO  H221 4711   4.911  11.140   0.380  0.2350 -0.7288  0.6254
   12CHTO   N20 4712   5.068  11.159   0.519 -0.1625  0.2469  0.1036
   12CHTO  H209 4713   5.112  11.256   0.503 -1.2171  0.7785  0.4053
   12CHTO  H210 4714   5.111  11.090   0.448 -1.5673 -0.3864 -0.1459
   12CHTO   O80 4715   4.854  10.926   0.594 -0.1406 -0.6332  0.1880
   12CHTO  C103 4716   4.833  10.827   0.459  0.2115  0.2505 -0.3992
   12CHTO  H190 4717   4.749  10.860   0.397 -1.2646  0.4194  1.6339
   12CHTO  C101 4718   4.960  10.798   0.363  1.1973 -0.3611 -0.1260
   12CHTO  H188 4719   5.038  10.756   0.426 -0.5140 -4.1487 -0.4028
   12CHTO   O68 4720   5.004  10.931   0.283 -0.3742  0.3792 -0.1797
   12CHTO  H168 4721   5.041  10.906   0.200 -0.8333 -0.0753 -0.2491
   12CHTO   C99 4722   4.924  10.677   0.259 -0.5879  0.0934  0.2864
   12CHTO  H186 4723   4.846  10.708   0.186  1.3187  0.1025 -1.7976
   12CHTO   N17 4724   5.042  10.641   0.171 -0.5987  0.7118 -0.2312
   12CHTO  H174 4725   5.121  10.714   0.175  1.8817 -1.7639 -1.5752
   12CHTO  H175 4726   5.016  10.626   0.067  0.3497  1.5522 -0.6056
   12CHTO   C97 4727   4.865  10.555   0.341  0.3321 -0.0094  0.8982
   12CHTO  H184 4728   4.947  10.519   0.404  0.0569  1.1914  1.9578
   12CHTO   O64 4729   4.754  10.598   0.419 -0.5090 -0.0052  0.0376
   12CHTO  C104 4730   4.783  10.692   0.520 -0.0802  0.0250 -0.1081
   12CHTO  H191 4731   4.854  10.666   0.599  1.3481  1.7476 -0.7899
   12CHTO  C108 4732   4.657  10.728   0.593  0.3337  0.1851 -0.8916
   12CHTO   O71 4733   4.600  10.612   0.653  0.2035  0.1832  0.5475
   12CHTO  H171 4734   4.543  10.569   0.592 -0.8945  0.0393  1.6623
   12CHTO   O62 4735   4.812  10.457   0.257  0.1684  0.3096  0.3299
   12CHTO   C91 4736   4.827  10.314   0.290  0.1346 -0.0919  1.4176
   12CHTO  H178 4737   4.918  10.309   0.349  1.4001  0.7789 -0.4203
   12CHTO   C92 4738   4.848  10.249   0.153  0.7362 -0.5792  0.3821
   12CHTO  H179 4739   4.770  10.295   0.091  0.2070 -0.6800  0.9675
   12CHTO   O66 4740   4.983  10.279   0.093  0.1092 -1.0171 -0.3590
   12CHTO  H166 4741   4.992  10.372   0.089  3.4677 -1.0707  2.6089
   12CHTO   C93 4742   4.819  10.093   0.157 -0.0175 -0.5792 -0.1766
   12CHTO  H180 4743   4.905  10.044   0.206  0.4317  1.9052  1.5899
   12CHTO   N16 4744   4.805  10.043   0.020 -0.4120 -0.2468 -0.4563
   12CHTO  H172 4745   4.830   9.938   0.014 -1.3348 -0.5757  1.2514
   12CHTO  H173 4746   4.856  10.103  -0.054  0.4816 -0.3881  0.0438
   12CHTO   C94 4747   4.694  10.052   0.233 -0.1300 -0.2728  0.1356
   12CHTO  H181 4748   4.602  10.091   0.190  0.7662 -1.2009 -2.6811
   12CHTO   O61 4749   4.709  10.104   0.368 -0.1946 -0.2067 -0.6856
   12CHTO   C95 4750   4.712  10.246   0.378 -0.1756  0.4089 -0.2536
   12CHTO  H182 4751   4.617  10.286   0.343  0.1936 -0.2021 -1.9805
   12CHTO  C106 4752   4.715  10.294   0.529  0.3455  0.6158  0.0479
   12CHTO   O69 4753   4.584  10.280   0.576  0.2610  0.1305  0.3345
   12CHTO  H169 4754   4.584  10.191   0.604  2.1343  0.1846  0.5806
   12CHTO   O63 4755   4.674   9.882   0.259 -0.3879 -0.4470  0.1087
   12CHTO   C96 4756   4.778   9.825   0.351 -0.1394  0.2495  0.1849
   12CHTO  H183 4757   4.837   9.911   0.380 -1.1534  0.8151  0.5832
   12CHTO   C98 4758   4.868   9.715   0.288 -0.0784 -0.2765  0.8018
   12CHTO  H185 4759   4.807   9.647   0.227  1.9391  0.4606 -2.1392
   12CHTO   O67 4760   4.960   9.783   0.194  0.7484 -0.0828  0.1401
   12CHTO  H167 4761   4.987   9.720   0.130  3.0321  1.5089 -0.4971
   12CHTO  C102 4762   4.955   9.635   0.396  0.1659  0.4134 -0.1725
   12CHTO  H189 4763   5.030   9.706   0.434  1.4708 -0.0144 -1.9009
   12CHTO   N18 4764   5.038   9.516   0.353 -0.0539 -0.4897 -0.3142
   12CHTO  H176 4765   5.144   9.527   0.365 -0.0015  0.0089 -1.2026
   12CHTO  H177 4766   5.025   9.500   0.247  1.0315 -0.7675 -0.4045
   12CHTO  C105 4767   4.874   9.600   0.523 -0.0758  0.4791 -0.0636
   12CHTO  H192 4768   4.811   9.513   0.502  0.5239 -0.2991  1.3116
   12CHTO   O65 4769   4.794   9.711   0.566 -0.4497  0.0768  0.2567
   12CHTO  C100 4770   4.704   9.766   0.471 -0.7723 -0.0641  0.1672
   12CHTO  H187 4771   4.645   9.679   0.437 -1.5139 -0.0877  1.4640
   12CHTO  C107 4772   4.605   9.859   0.548  0.2654 -1.1092  0.3850
   12CHTO   O70 4773   4.547   9.777   0.651 -0.1013 -0.1753  0.1877
   12CHTO  H170 4774   4.610   9.737   0.708  0.4453 -0.6661 -0.7461
   12CHTO   O57 4775   4.982   9.563   0.638  0.0746  0.4539  0.3072
   12CHTO   C85 4776   4.942   9.485   0.750  0.0784 -0.0944  0.6012
   12CHTO  H157 4777   4.847   9.434   0.725  0.6104 -0.0941 -1.5432
   12CHTO   C83 4778   4.909   9.577   0.872  0.5105 -0.6853 -0.2925
   12CHTO  H155 4779   4.827   9.643   0.845  0.2692 -1.0244 -0.3984
   12CHTO   O56 4780   5.031   9.653   0.895  0.4216  0.6034  0.1046
   12CHTO  H135 4781   5.079   9.612   0.965  0.4990 -0.5667 -0.6264
   12CHTO   C81 4782   4.865   9.481   0.980  0.3760 -0.1830 -0.2074
   12CHTO  H153 4783   4.773   9.432   0.946  0.5382  0.8651 -2.2169
   12CHTO   N14 4784   4.820   9.563   1.093  0.2639  0.1097 -0.0679
   12CHTO  H141 4785   4.831   9.512   1.186  0.2016 -0.6934 -0.5000
   12CHTO  H142 4786   4.717   9.588   1.079 -0.0540 -0.6134  0.9540
   12CHTO   C79 4787   4.966   9.374   1.020 -0.1691 -0.4286  1.2354
   12CHTO  H151 4788   4.917   9.299   1.083  2.3030 -3.7364 -0.6136
   12CHTO   O52 4789   5.012   9.295   0.900 -0.2605 -0.3529 -0.4207
   12CHTO   C86 4790   5.052   9.379   0.784  0.1418  0.2670  0.0310
   12CHTO  H158 4791   5.143   9.433   0.818 -0.0508  0.7087 -0.1438
   12CHTO   C90 4792   5.091   9.294   0.661  0.0256 -0.1914 -0.1053
   12CHTO   O60 4793   4.978   9.233   0.604 -0.4550  0.2166 -0.2531
   12CHTO  H138 4794   4.940   9.168   0.659 -2.1770  0.9234 -0.5919
   12CHTO   O50 4795   5.078   9.431   1.084 -0.0683 -0.1957 -0.4745
   12CHTO   C73 4796   5.131   9.428   1.215 -0.0539 -0.2207 -0.0849
   12CHTO  H145 4797   5.056   9.391   1.287 -1.7827  0.3578 -1.5518
   12CHTO   C74 4798   5.176   9.570   1.265 -0.1654 -0.3295  0.0848
   12CHTO  H146 4799   5.092   9.640   1.261 -0.2144 -0.3186  1.2206
   12CHTO   O54 4800   5.217   9.554   1.408  0.1472  0.5239  0.5571
   12CHTO  H133 4801   5.252   9.635   1.443  2.5070 -0.1863 -0.0603
   12CHTO   C75 4802   5.299   9.618   1.173 -0.6388  0.6246 -0.8319
   12CHTO  H147 4803   5.259   9.633   1.072  0.9100 -1.1048 -1.7124
   12CHTO   N13 4804   5.356   9.746   1.217  0.4349 -0.2684  0.2943
   12CHTO  H139 4805   5.426   9.780   1.142 -0.1037 -0.0972 -0.1308
   12CHTO  H140 4806   5.271   9.812   1.208  0.3872 -0.0731  1.9909
   12CHTO   C76 4807   5.414   9.501   1.170  0.0454  0.2563 -0.0186
   12CHTO  H148 4808   5.462   9.502   1.268  0.6393 -0.9576 -0.2951
   12CHTO   O49 4809   5.368   9.371   1.137  0.5553 -0.6297  0.2665
   12CHTO   C77 4810   5.251   9.325   1.210  0.0445  0.1582 -0.8609
   12CHTO  H149 4811   5.277   9.299   1.313  0.7629 -0.0219 -1.0870
   12CHTO   C88 4812   5.200   9.189   1.157  0.8106 -0.4987  0.1899
   12CHTO   O58 4813   5.309   9.082   1.172  0.2073  0.3787 -0.3159
   12CHTO  H136 4814   5.392   9.125   1.163  1.9735 -2.6759  0.5240
   12CHTO   O51 4815   5.513   9.532   1.056  0.4539  0.6412  0.2291
   12CHTO   C78 4816   5.643   9.457   1.049  0.3327  0.2522  0.4166
   12CHTO  H150 4817   5.640   9.358   1.099  3.1959 -0.1724 -0.1452
   12CHTO   C80 4818   5.759   9.537   1.115  0.4861  0.0761  0.1291
   12CHTO  H152 4819   5.792   9.618   1.047  1.8001  0.5639  1.3262
   12CHTO   O55 4820   5.712   9.598   1.238  0.4267  0.2896 -0.6667
   12CHTO  H134 4821   5.704   9.537   1.309  1.6595  0.6760 -0.1869
   12CHTO   C84 4822   5.879   9.439   1.134 -0.3706  0.1415  0.2202
   12CHTO  H156 4823   5.850   9.355   1.199 -4.6376  1.1877 -0.1645
   12CHTO   N15 4824   6.004   9.496   1.200  0.2678  0.0471  0.3203
   12CHTO  H143 4825   6.063   9.424   1.252  0.0718 -1.4335 -1.4656
   12CHTO  H144 4826   5.988   9.583   1.260  0.2172  0.3990 -0.2005
   12CHTO   C87 4827   5.912   9.383   0.993 -0.3083  1.2170  0.2227
   12CHTO  H159 4828   5.970   9.462   0.945  0.5107  0.9048  0.7000
   12CHTO   O53 4829   5.770   9.319   0.903 -0.1206 -0.0601  0.3030
   12CHTO   C82 4830   5.669   9.417   0.903 -0.1008  0.0383  0.0293
   12CHTO  H154 4831   5.703   9.502   0.843  1.3486 -0.4739  0.0962
   12CHTO   C89 4832   5.539   9.362   0.828  0.0727 -0.2134  0.0709
   12CHTO   O59 4833   5.467   9.271   0.907 -0.3968 -0.1892 -0.9861
   12CHTO  H137 4834   5.459   9.305   0.995  1.9063  0.6262 -1.0578
   12CHTO   O45 4835   6.016   9.246   1.023 -0.0415  0.3251  0.2997
   12CHTO   C67 4836   6.092   9.198   0.913 -0.3555 -0.4676  1.2482
   12CHTO  H124 4837   6.166   9.132   0.958 -0.6863  0.2777  2.9249
   12CHTO   C65 4838   6.015   9.113   0.809 -0.4258  0.4429 -0.4443
   12CHTO  H122 4839   5.916   9.107   0.853 -0.1314  0.3448  0.2082
   12CHTO   O44 4840   6.067   8.980   0.809 -0.2661 -0.1191  0.0827
   12CHTO  H102 4841   6.139   8.983   0.749 -0.0129 -1.5610  0.2986
   12CHTO   C63 4842   6.010   9.174   0.668 -0.3470 -0.1008 -0.3423
   12CHTO  H120 4843   5.955   9.267   0.679  1.6134  0.9977  0.4224
   12CHTO   N11 4844   5.929   9.098   0.568  0.7179 -0.1396  0.0240
   12CHTO  H108 4845   5.837   9.065   0.611 -1.4765  1.7887 -2.9540
   12CHTO  H109 4846   5.991   9.018   0.536  1.6735  1.2901 -1.8363
   12CHTO   C61 4847   6.161   9.214   0.621  0.1902 -0.5181  1.0014
   12CHTO  H118 4848   6.147   9.295   0.548 -2.1543 -1.5861  0.2197
   12CHTO   O40 4849   6.244   9.272   0.726  0.4534  0.2856  0.0353
   12CHTO   C68 4850   6.176   9.313   0.849  0.0802  0.4082  0.7103
   12CHTO  H125 4851   6.113   9.400   0.821 -2.1774 -0.8834  1.6990
   12CHTO   C72 4852   6.284   9.359   0.950 -0.4959 -0.4459  0.4988
   12CHTO   O48 4853   6.348   9.481   0.904 -0.5151 -0.2940 -0.0996
   12CHTO  H105 4854   6.433   9.473   0.942 -0.4972 -0.6362 -0.2153
   12CHTO   O38 4855   6.241   9.102   0.582 -0.3361 -0.4506  0.1682
   12CHTO   C55 4856   6.338   9.122   0.484 -0.5305  0.1473 -0.1114
   12CHTO  H112 4857   6.364   9.228   0.499 -1.8379  0.3128  1.1593
   12CHTO   C56 4858   6.297   9.092   0.332  0.7989 -0.2689  0.6708
   12CHTO  H113 4859   6.251   8.993   0.343  2.0770 -0.8457  0.8360
   12CHTO   O42 4860   6.183   9.177   0.303  0.8208  0.0445  0.4375
   12CHTO  H100 4861   6.207   9.267   0.306  0.0675  0.2449  0.8049
   12CHTO   C57 4862   6.418   9.114   0.229  0.2869  0.5826 -0.7404
   12CHTO  H114 4863   6.449   9.218   0.236 -2.2912  1.3751 -0.6160
   12CHTO   N10 4864   6.402   9.086   0.085  0.8089 -0.7073  0.5231
   12CHTO  H106 4865   6.404   9.186   0.044  1.3967 -1.9779 -2.6790
   12CHTO  H107 4866   6.306   9.040   0.071  0.5472  0.4494 -1.6032
   12CHTO   C58 4867   6.531   9.025   0.289  0.2127 -0.1949 -0.1657
   12CHTO  H115 4868   6.494   8.921   0.297 -1.3825  0.4047  0.5857
   12CHTO   O37 4869   6.561   9.072   0.419 -0.7268 -0.3745 -0.9813
   12CHTO   C59 4870   6.468   9.047   0.521  0.2232 -0.0498  0.2917
   12CHTO  H116 4871   6.448   8.939   0.526 -1.6136  0.2192 -0.7575
   12CHTO   C70 4872   6.525   9.091   0.656 -0.0762  0.0874 -0.3092
   12CHTO   O46 4873   6.661   9.054   0.682 -0.3870 -0.4477 -0.5748
   12CHTO  H103 4874   6.717   9.101   0.624  0.4737 -0.4994  0.2073
   12CHTO   O39 4875   6.667   9.033   0.193  0.1295  1.0763  0.2464
   12CHTO   C60 4876   6.769   8.938   0.234 -0.6491 -0.4832 -0.8095
   12CHTO  H117 4877   6.774   8.924   0.342 -0.0655 -1.9288 -1.0046
   12CHTO   C62 4878   6.737   8.792   0.185 -0.4183  0.2510  0.1588
   12CHTO  H119 4879   6.635   8.761   0.215  0.2549 -2.4628 -0.2725
   12CHTO   O43 4880   6.731   8.787   0.033 -0.1266 -0.0079 -0.4278
   12CHTO  H101 4881   6.642   8.805   0.009 -1.0958 -1.5952  1.8352
   12CHTO   C66 4882   6.837   8.694   0.258 -0.4085  0.0246 -0.0144
   12CHTO  H123 4883   6.823   8.709   0.365 -0.6252  2.0632 -0.3144
   12CHTO   N12 4884   6.805   8.548   0.240  0.5758  0.5989  0.1386
   12CHTO  H110 4885   6.707   8.529   0.282  0.4465 -0.4503 -0.6383
   12CHTO  H111 4886   6.867   8.488   0.304 -0.1687  0.4653  0.7429
   12CHTO   C69 4887   6.982   8.723   0.222  0.7100 -0.5573  0.4779
   12CHTO  H126 4888   7.005   8.702   0.116 -0.1648  0.7143  0.0315
   12CHTO   O41 4889   7.011   8.896   0.246  0.3483  0.3723 -0.0085
   12CHTO   C64 4890   6.906   8.987   0.184 -0.1175  0.4307  0.2638
   12CHTO  H121 4891   6.902   8.996   0.073 -0.0089  1.0857  0.3097
   12CHTO   C71 4892   6.935   9.125   0.223  0.2636  0.5334 -0.4305
   12CHTO   O47 4893   7.034   9.196   0.150 -0.5575 -1.0352 -0.4638
   12CHTO  H104 4894   7.006   9.206   0.061  0.2780 -2.8507 -0.9441
   12CHTO   O34 4895   7.090   8.632   0.312  0.4206 -0.3893  0.1347
   12CHTO   C49 4896   7.182   8.609   0.438  0.4693  0.9371 -0.3589
   12CHTO   H91 4897   7.282   8.634   0.403  1.7639  0.7422  3.0204
   12CHTO   C47 4898   7.172   8.465   0.486 -0.1481 -0.3316 -0.6918
   12CHTO   H89 4899   7.262   8.444   0.547 -1.1620 -1.9492  0.3148
   12CHTO   O33 4900   7.182   8.390   0.364 -0.0933 -0.6355 -0.4897
   12CHTO   H70 4901   7.274   8.388   0.346 -0.5727  0.1794 -3.2333
   12CHTO   C45 4902   7.038   8.433   0.564  0.4150  0.4379 -0.5698
   12CHTO   H87 4903   6.966   8.393   0.490  1.1182 -0.9001 -0.5452
   12CHTO    N8 4904   7.048   8.335   0.669  0.1185  0.2206 -0.3477
   12CHTO   H75 4905   7.039   8.392   0.760  0.6406 -1.6639  0.9021
   12CHTO   H76 4906   6.956   8.278   0.662 -0.8178  1.7661 -0.9228
   12CHTO   C43 4907   6.962   8.565   0.597 -0.5787 -0.5784  0.6199
   12CHTO   H85 4908   6.932   8.604   0.499  0.8656 -2.1403 -0.4575
   12CHTO   O29 4909   7.061   8.651   0.660 -0.1042  0.3849  0.1323
   12CHTO   C50 4910   7.148   8.706   0.560 -0.3944 -0.0399 -0.4240
   12CHTO   H92 4911   7.106   8.799   0.519 -0.0978  0.6785  0.8406
   12CHTO   C54 4912   7.284   8.748   0.629  0.4954 -0.3132 -0.4321
   12CHTO   O36 4913   7.375   8.834   0.552  0.4918  0.8164 -0.3346
   12CHTO   H72 4914   7.453   8.784   0.543 -0.8878 -1.1122 -1.6747
   12CHTO   O27 4915   6.838   8.568   0.666 -0.7109 -0.1147 -0.1145
   12CHTO   C37 4916   6.760   8.572   0.785 -0.6249 -1.1521 -0.3199
   12CHTO   H79 4917   6.814   8.523   0.868 -1.9670 -0.2574  1.1165
   12CHTO   C38 4918   6.732   8.720   0.837 -0.7134  0.1277 -0.2789
   12CHTO   H80 4919   6.709   8.780   0.748  0.7524  0.8356 -0.1983
   12CHTO   O31 4920   6.848   8.775   0.898 -0.6347  0.0950  0.0907
   12CHTO   H68 4921   6.830   8.863   0.925  3.2570  0.8479  0.6118
   12CHTO   C39 4922   6.616   8.717   0.941 -0.3313 -0.2341  0.2660
   12CHTO   H81 4923   6.660   8.671   1.029  1.2280  2.1090  0.7667
   12CHTO    N7 4924   6.576   8.856   0.974 -0.1136 -0.6534  0.0448
   12CHTO   H73 4925   6.524   8.852   1.068  0.8614 -2.1621  0.5533
   12CHTO   H74 4926   6.519   8.905   0.897 -0.0883  1.4731  1.3287
   12CHTO   C40 4927   6.491   8.639   0.887 -0.5234 -0.3225 -0.6258
   12CHTO   H82 4928   6.430   8.681   0.809  2.3023 -1.7429 -3.7411
   12CHTO   O26 4929   6.538   8.514   0.846  0.0546  0.3206 -0.5981
   12CHTO   C41 4930   6.631   8.494   0.741  0.3588  0.0167  0.7763
   12CHTO   H83 4931   6.590   8.538   0.649  0.2357  3.8081  2.5570
   12CHTO   C52 4932   6.669   8.347   0.719  0.2569  0.9673  0.2997
   12CHTO   O35 4933   6.516   8.258   0.706  0.7848  0.5660 -0.0021
   12CHTO   H71 4934   6.460   8.320   0.664 -0.2419  0.3566  1.0339
   12CHTO   O28 4935   6.410   8.603   1.002 -0.0938 -0.0525  0.2109
   12CHTO   C42 4936   6.268   8.581   0.991  0.4196 -0.4350  0.1268
   12CHTO   H84 4937   6.250   8.538   1.089 -0.1645 -0.4737  0.0051
   12CHTO   C44 4938   6.223   8.467   0.889  0.5958  0.7023 -0.2777
   12CHTO   H86 4939   6.252   8.492   0.787  1.5259 -0.3350 -0.2822
   12CHTO   O32 4940   6.289   8.350   0.936  0.6156  0.4449 -0.4481
   12CHTO   H69 4941   6.343   8.310   0.871 -0.5367 -1.0589 -0.4819
   12CHTO   C48 4942   6.067   8.439   0.888 -0.1004 -0.4056 -0.0788
   12CHTO   H90 4943   6.028   8.405   0.984  1.1610 -0.8891  0.2690
   12CHTO    N9 4944   6.024   8.340   0.778 -0.0175  0.0561  0.6443
   12CHTO   H77 4945   5.932   8.294   0.812 -1.6356  0.8350 -2.5455
   12CHTO   H78 4946   6.102   8.267   0.762  0.4486  1.3812 -3.6253
   12CHTO   C51 4947   5.991   8.577   0.868 -0.6524  0.0045  0.0480
   12CHTO   H93 4948   6.009   8.612   0.766  2.7629  2.0106  1.2554
   12CHTO   O30 4949   6.027   8.673   0.968 -0.4424 -0.1883  0.6568
   12CHTO   C46 4950   6.184   8.712   0.986  0.3320 -0.2483  0.4938
   12CHTO   H88 4951   6.231   8.776   0.911  2.0382  0.1430  1.8512
   12CHTO   C53 4952   6.203   8.785   1.122  0.5450 -0.7693  0.7789
   12CHTO   O72 4953   6.118   8.900   1.143  0.0338  0.1270  0.6146
   12CHTO  H199 4954   6.140   8.943   1.223  3.3690  0.9351 -0.6352
   12CHTO   O22 4955   5.848   8.563   0.872  0.0396 -0.4935 -0.2781
   12CHTO   C31 4956   5.756   8.671   0.860  0.6095 -0.1099  0.0333
   12CHTO   H59 4957   5.656   8.624   0.848  0.3636  0.6978 -1.1697
   12CHTO   C29 4958   5.747   8.774   0.979  0.4120 -0.0674 -0.7827
   12CHTO   H57 4959   5.843   8.824   1.000 -0.7031  1.6175  0.3961
   12CHTO   O21 4960   5.716   8.690   1.094 -0.0629 -0.0365 -0.1601
   12CHTO   H37 4961   5.794   8.641   1.112 -0.1061 -0.4303 -1.0160
   12CHTO   C27 4962   5.644   8.889   0.953  0.3350 -0.1728 -0.1926
   12CHTO   H55 4963   5.544   8.843   0.956 -0.7155  1.9506 -1.1318
   12CHTO    N5 4964   5.645   8.996   1.057 -0.8858 -0.4181 -0.0583
   12CHTO   H43 4965   5.704   8.974   1.145  0.4554  1.4129 -0.4857
   12CHTO   H44 4966   5.542   9.025   1.073 -1.2852 -1.1525 -1.2155
   12CHTO   C25 4967   5.656   8.948   0.812 -0.7542  0.0249 -1.0118
   12CHTO   H53 4968   5.736   9.023   0.808 -0.5544 -0.1102  0.3076
   12CHTO   O17 4969   5.673   8.847   0.706  0.0346 -0.1727  0.5785
   12CHTO   C32 4970   5.772   8.748   0.730 -0.4773 -0.1629  0.2992
   12CHTO   H60 4971   5.861   8.812   0.735 -1.3498  1.1945 -0.9393
   12CHTO   C36 4972   5.779   8.655   0.613 -0.1591 -0.1182  0.9421
   12CHTO   O25 4973   5.793   8.716   0.484 -0.6002  0.1642  0.0607
   12CHTO   H40 4974   5.710   8.752   0.458 -0.6228 -0.4127 -0.6569
   12CHTO   O15 4975   5.529   9.016   0.774 -0.5449 -0.9298 -0.3469
   12CHTO   C19 4976   5.417   9.032   0.681  0.7734  0.0687 -0.4784
   12CHTO   H47 4977   5.367   9.121   0.723 -1.7644 -1.4897 -0.0796
   12CHTO   C20 4978   5.470   9.050   0.538  0.2321 -0.4140 -0.0964
   12CHTO   H48 4979   5.522   8.959   0.505  2.0703  0.1885  1.0296
   12CHTO   O19 4980   5.566   9.160   0.545  0.2961 -0.0595 -0.0149
   12CHTO   H35 4981   5.630   9.147   0.613  0.3344 -1.1008 -0.2398
   12CHTO   C21 4982   5.349   9.078   0.440  0.7157  0.3037  0.1231
   12CHTO   H49 4983   5.294   9.165   0.474 -0.7468 -1.4118  2.3266
   12CHTO    N4 4984   5.390   9.089   0.295  0.2359 -0.0764  0.1667
   12CHTO   H41 4985   5.435   9.186   0.280  1.9570 -0.5398  2.1844
   12CHTO   H42 4986   5.306   9.078   0.228  1.6835  0.1191 -1.7236
   12CHTO   C22 4987   5.252   8.964   0.454 -0.0537  0.6628  0.4843
   12CHTO   H50 4988   5.296   8.872   0.414 -0.9060  0.9613 -1.1971
   12CHTO   O14 4989   5.208   8.956   0.590  0.1513 -0.6702 -0.0242
   12CHTO   C23 4990   5.310   8.925   0.685 -0.6897  0.4848 -0.5605
   12CHTO   H51 4991   5.348   8.829   0.646 -0.8479  1.1586 -2.4473
   12CHTO   C34 4992   5.248   8.911   0.823 -0.4300  1.0443 -0.3466
   12CHTO   O23 4993   5.147   8.810   0.830  0.2861 -0.2663 -0.2086
   12CHTO   H38 4994   5.058   8.830   0.852 -0.1157 -2.2278  0.0408
   12CHTO   O16 4995   5.126   8.993   0.395  0.0110 -0.2823 -0.4531
   12CHTO   C24 4996   5.045   8.846   0.338  0.3352  0.1111  0.2438
   12CHTO   H52 4997   5.096   8.757   0.373  2.0801  1.2626  0.6764
   12CHTO   C26 4998   5.028   8.860   0.184 -0.5043 -0.2359  0.4749
   12CHTO   H54 4999   4.976   8.955   0.160  0.9868  0.5272  0.2017
   12CHTO   O20 5000   5.158   8.873   0.128  0.9487 -0.5421 -0.1719
   12CHTO   H36 5001   5.176   8.958   0.091  0.7600 -0.6425 -0.4932
   12CHTO   C30 5002   4.943   8.749   0.131 -0.0062  0.6605 -0.0546
   12CHTO   H58 5003   5.001   8.657   0.144 -0.2911  0.5275  0.2852
   12CHTO    N6 5004   4.929   8.761  -0.015  0.4645  0.2916 -0.3418
   12CHTO   H45 5005   5.006   8.694  -0.050  0.7203 -0.7983  2.1831
   12CHTO   H46 5006   4.833   8.731  -0.054  0.4253 -0.5368  0.3714
   12CHTO   C33 5007   4.804   8.732   0.202 -1.0133  0.3766  0.7234
   12CHTO   H61 5008   4.734   8.813   0.174 -2.0557 -0.6812  0.2118
   12CHTO   O18 5009   4.821   8.738   0.345 -0.4180  0.2889  0.5525
   12CHTO   C28 5010   4.900   8.844   0.404  0.8538  0.3743 -0.5131
   12CHTO   H56 5011   4.852   8.941   0.394  0.7062  0.3525 -0.0304
   12CHTO   C35 5012   4.899   8.814   0.559 -0.3091  0.4826 -1.2183
   12CHTO   O24 5013   4.777   8.789   0.626  0.2546  0.3005 -0.5054
   12CHTO   H39 5014   4.804   8.758   0.711  1.4474 -0.5367 -1.1595
   12CHTO    O9 5015   4.735   8.612   0.163  0.0486  0.2083  0.1924
   12CHTO   C13 5016   4.822   8.479   0.216  0.4689  0.2363  0.2220
   12CHTO   H26 5017   4.919   8.518   0.255 -0.0213 -0.4071  2.1342
   12CHTO   C11 5018   4.843   8.384   0.093  0.0512 -0.0599 -0.1972
   12CHTO   H24 5019   4.905   8.430   0.014  1.1236  0.5474  0.9771
   12CHTO    O8 5020   4.708   8.349   0.036  0.2645  0.5005 -0.0787
   12CHTO    H3 5021   4.673   8.267   0.064  0.9042  0.2485 -0.0136
   12CHTO    C9 5022   4.916   8.259   0.153 -0.2196  0.0290  0.2244
   12CHTO   H22 5023   5.006   8.299   0.203  0.3704 -0.3285 -0.5462
   12CHTO    N2 5024   4.960   8.171   0.041 -0.0330  0.4699  0.5517
   12CHTO   H10 5025   5.034   8.213  -0.026  1.3658  1.8308  2.9041
   12CHTO   H11 5026   4.882   8.127  -0.020  0.0670  1.7328 -0.5281
   12CHTO    C7 5027   4.829   8.188   0.269  0.4531  0.3064  0.1152
   12CHTO   H20 5028   4.889   8.100   0.300  1.4570  1.3330  1.1721
   12CHTO    O4 5029   4.801   8.275   0.379  0.3567 -0.3289  0.4208
   12CHTO   C14 5030   4.750   8.402   0.344 -0.6197  0.6175  0.9492
   12CHTO   H27 5031   4.770   8.462   0.436  1.4647  2.7601 -0.8303
   12CHTO   C18 5032   4.599   8.396   0.327  0.1343  0.4138  0.3690
   12CHTO   O13 5033   4.536   8.390   0.458 -0.2881 -0.5175  0.3753
   12CHTO    H7 5034   4.475   8.319   0.454 -1.9397  0.9321 -1.6563
   12CHTO    O2 5035   4.674   8.123   0.211 -0.0460  0.1346 -0.0693
   12CHTO    C1 5036   4.651   7.986   0.192 -0.5045 -0.0980  1.0891
   12CHTO   H14 5037   4.737   7.916   0.196 -0.0408  0.5026  1.7553
   12CHTO    C2 5038   4.579   7.968   0.050  0.0648 -0.0398 -0.3665
   12CHTO   H15 5039   4.503   8.048   0.044  0.7897  0.6548 -0.3093
   12CHTO    O6 5040   4.674   7.998  -0.055  0.0303 -0.1971 -0.3823
   12CHTO    H1 5041   4.736   7.928  -0.063 -0.2960 -0.5303  0.0419
   12CHTO    C3 5042   4.507   7.825   0.035  0.1903  0.0464 -0.8084
   12CHTO   H16 5043   4.590   7.761   0.002  0.9329  0.7265 -0.2719
   12CHTO    N1 5044   4.416   7.823  -0.084  0.5395  0.2683 -0.6710
   12CHTO    H8 5045   4.408   7.918  -0.135  1.1621 -0.6195 -2.4623
   12CHTO    H9 5046   4.322   7.775  -0.065 -0.3252  1.7998 -1.0563
   12CHTO    C4 5047   4.441   7.762   0.165  0.4117 -0.0568 -0.9371
   12CHTO   H17 5048   4.348   7.817   0.180  0.8358 -0.0455  1.9781
   12CHTO    O1 5049   4.524   7.790   0.278  0.0840 -0.1847  0.1862
   12CHTO    C5 5050   4.552   7.932   0.301 -0.1939  0.5773  0.0919
   12CHTO   H18 5051   4.465   7.997   0.305 -1.2439 -0.7565 -0.6646
   12CHTO   C16 5052   4.623   7.934   0.437  0.1851 -0.7827 -0.3105
   12CHTO   O11 5053   4.739   7.858   0.465 -0.0528  0.4155 -0.4115
   12CHTO    H5 5054   4.759   7.868   0.556  0.7714  1.1890 -0.6703
   12CHTO    O3 5055   4.421   7.621   0.153 -0.3083  0.1995 -0.3544
   12CHTO    C6 5056   4.354   7.546   0.262 -0.4214 -0.3325  0.3196
   12CHTO   H19 5057   4.365   7.599   0.357 -0.6142 -0.4522  0.4091
   12CHTO    C8 5058   4.199   7.525   0.237  0.3825 -0.7384  0.1208
   12CHTO   H21 5059   4.186   7.473   0.142  0.2351  1.3497 -1.0084
   12CHTO    O7 5060   4.147   7.661   0.236 -0.2907 -0.3221 -0.0181
   12CHTO    H2 5061   4.139   7.689   0.325 -0.0109 -1.0659  0.2502
   12CHTO   C12 5062   4.128   7.431   0.347 -0.4743 -0.5316  0.5978
   12CHTO   H25 5063   4.133   7.480   0.446 -0.5896  0.2187  0.2314
   12CHTO    N3 5064   3.987   7.412   0.305 -0.1156  0.3663  0.1005
   12CHTO   H12 5065   3.976   7.313   0.262  1.8271  0.5470 -0.8657
   12CHTO   H13 5066   3.935   7.426   0.398 -0.8522  2.6980 -0.6225
   12CHTO   C15 5067   4.207   7.299   0.351  1.0014 -0.4467 -0.1332
   12CHTO   H28 5068   4.202   7.241   0.259  0.3274 -2.2414  1.0201
   12CHTO   O10 5069   4.160   7.204   0.463 -0.1568 -0.2676 -0.0198
   12CHTO    H4 5070   4.149   7.246   0.547  2.4749  0.3263  0.0839
   12CHTO    O5 5071   4.347   7.333   0.382  0.8088  0.0420  0.0995
   12CHTO   C10 5072   4.416   7.398   0.278 -0.0658  0.3886  0.4205
   12CHTO   H23 5073   4.393   7.344   0.186 -0.5030  0.5162  0.4521
   12CHTO   C17 5074   4.566   7.390   0.300 -0.3822  0.5478  0.6748
   12CHTO   O12 5075   4.633   7.438   0.177  0.3574  0.3297 -0.1440
   12CHTO    H6 5076   4.716   7.397   0.165 -1.0322 -3.0117  1.0574
   13CHTO  H203 5077   8.771   4.670   1.833  0.2119  0.1215 -0.2385
   13CHTO   O82 5078   8.680   4.664   1.813 -0.0676 -0.0079  1.0514
   13CHTO  C123 5079   8.640   4.782   1.739 -0.1901  0.1536  0.5255
   13CHTO  H227 5080   8.704   4.793   1.650 -0.7467  3.3781  0.4774
   13CHTO   O77 5081   8.508   4.743   1.695 -0.3225 -0.3381 -0.0007
   13CHTO  C118 5082   8.427   4.849   1.643 -0.5252 -0.5061 -1.0036
   13CHTO  H222 5083   8.473   4.883   1.549  3.5610 -1.9568  0.3782
   13CHTO  C125 5084   8.288   4.781   1.620  0.3932  0.9653  0.2177
   13CHTO   O84 5085   8.272   4.666   1.536  0.1661  0.2328 -0.9964
   13CHTO  H205 5086   8.179   4.656   1.528  0.4320 -3.1152 -0.2975
   13CHTO  C114 5087   8.414   4.968   1.748 -0.2626  0.4310  0.6809
   13CHTO  H218 5088   8.373   4.931   1.842  1.2290  0.6451  1.4339
   13CHTO  C116 5089   8.558   5.024   1.774  0.1517 -0.0578 -0.2876
   13CHTO  H220 5090   8.597   5.050   1.674  1.5524  0.5796  0.4132
   13CHTO   O79 5091   8.545   5.139   1.861  0.2122  0.6700 -0.7238
   13CHTO  H201 5092   8.496   5.117   1.938 -0.2205  0.4638 -1.0574
   13CHTO  C120 5093   8.653   4.912   1.829  0.0317  0.3246  0.0242
   13CHTO  H224 5094   8.623   4.894   1.934  0.1113  1.3931  0.2371
   13CHTO   N21 5095   8.791   4.962   1.844  0.2502  0.1060  0.5456
   13CHTO  H211 5096   8.821   5.018   1.757 -0.4592  0.4126  0.4940
   13CHTO  H212 5097   8.857   4.877   1.845 -0.4212 -0.4187  0.5852
   13CHTO   O75 5098   8.339   5.067   1.678 -0.4829  0.2234 -0.2380
   13CHTO  C112 5099   8.229   5.127   1.778  0.5161 -0.3475  0.0858
   13CHTO  H216 5100   8.273   5.182   1.863 -1.4599  1.2472  0.1325
   13CHTO   O73 5101   8.148   5.019   1.822 -0.2923  0.2226 -0.6090
   13CHTO  C113 5102   8.048   5.067   1.914  0.4267 -0.8768 -0.5276
   13CHTO  H217 5103   8.095   5.116   2.001 -0.8921  2.4703 -1.6103
   13CHTO  C124 5104   7.983   4.948   1.983  0.6758 -0.3937  0.2224
   13CHTO   O83 5105   7.890   4.878   1.900  0.3885 -0.3212  0.1970
   13CHTO  H204 5106   7.939   4.823   1.843 -0.2008 -2.1759  1.4271
   13CHTO  C109 5107   7.943   5.162   1.847  0.5454  0.4681  0.1361
   13CHTO  H213 5108   7.893   5.102   1.770  1.2689  0.4226 -0.3041
   13CHTO  C110 5109   8.018   5.284   1.776  0.6954  0.2439 -0.2708
   13CHTO  H214 5110   8.055   5.350   1.854 -2.8426  0.6153  1.1835
   13CHTO   O78 5111   7.935   5.358   1.686  0.1838 -0.0970 -0.8599
   13CHTO  H200 5112   7.984   5.425   1.642  1.5025 -0.9288 -0.6896
   13CHTO  C111 5113   8.141   5.233   1.696 -0.5992 -0.4256  0.2711
   13CHTO  H215 5114   8.104   5.188   1.603 -0.2510  1.4090 -0.7684
   13CHTO   N19 5115   8.227   5.345   1.659  0.0245 -0.3950 -0.9173
   13CHTO  H207 5116   8.301   5.305   1.591  1.4646 -0.2778  0.5386
   13CHTO  H208 5117   8.170   5.427   1.616  1.2659  0.1728 -1.5264
   13CHTO   O74 5118   7.847   5.208   1.944  0.3149 -0.0935  0.2558
   13CHTO  C115 5119   7.707   5.240   1.875  0.3275 -0.8407 -0.9755
   13CHTO  H219 5120   7.714   5.323   1.804  1.4142 -2.1605 -2.4504
   13CHTO   O76 5121   7.650   5.112   1.779 -0.6081 -0.4245 -0.2859
   13CHTO  C122 5122   7.586   5.004   1.841  0.0240  0.0527  0.0713
   13CHTO  H226 5123   7.658   4.928   1.870  0.9666  0.8213 -0.2102
   13CHTO  C126 5124   7.500   4.945   1.729  0.2396 -0.2749  0.3482
   13CHTO   O85 5125   7.403   5.030   1.670  0.5225  0.1513  0.2567
   13CHTO  H206 5126   7.451   5.102   1.633  0.2002 -0.1034 -0.6674
   13CHTO  C121 5127   7.495   5.041   1.966 -0.3790  0.2330  0.9247
   13CHTO  H225 5128   7.396   4.990   1.959 -0.4028  0.2681  1.0120
   13CHTO   O81 5129   7.563   4.988   2.081  0.7033  0.2612 -0.8355
   13CHTO  H202 5130   7.617   5.054   2.121 -0.7122  1.8520 -1.5072
   13CHTO  C119 5131   7.472   5.197   1.989 -0.0839 -0.1476  0.4822
   13CHTO  H223 5132   7.425   5.240   1.900  1.5855 -0.6067 -0.6373
   13CHTO  C117 5133   7.615   5.277   2.004  1.3935  0.5977 -0.0077
   13CHTO  H221 5134   7.672   5.255   2.094 -0.6726 -1.4279  0.8528
   13CHTO   N20 5135   7.590   5.421   2.013  0.2004 -0.4988  0.9489
   13CHTO  H209 5136   7.520   5.432   2.094 -1.2913 -0.6923 -0.2807
   13CHTO  H210 5137   7.548   5.456   1.920 -2.0153 -0.4694  1.9338
   13CHTO   O80 5138   7.371   5.232   2.110 -0.0889 -0.1332 -0.0355
   13CHTO  C103 5139   7.210   5.283   2.071  0.7036  0.2219 -0.4783
   13CHTO  H190 5140   7.176   5.326   2.165  0.8647  1.0300 -0.7890
   13CHTO  C101 5141   7.200   5.382   1.956  0.5262  0.3452  0.2767
   13CHTO  H188 5142   7.247   5.340   1.868  1.1450  0.7537  0.4066
   13CHTO   O68 5143   7.258   5.535   2.001  0.4036  0.0805  0.7682
   13CHTO  H168 5144   7.224   5.552   2.087  1.8614  1.4770  1.0876
   13CHTO   C99 5145   7.042   5.417   1.915  0.3836 -0.4426  0.1040
   13CHTO  H186 5146   6.987   5.461   2.001  0.8408  0.6737 -0.1685
   13CHTO   N17 5147   7.021   5.504   1.791  0.1737  0.4077  0.1567
   13CHTO  H174 5148   6.999   5.604   1.825 -1.8471  0.4482 -1.2076
   13CHTO  H175 5149   7.111   5.504   1.730 -1.1048 -0.3172 -1.7913
   13CHTO   C97 5150   6.974   5.282   1.891  0.7560 -0.1015 -0.5293
   13CHTO  H184 5151   7.015   5.238   1.799 -0.0529 -0.3569 -0.7673
   13CHTO   O64 5152   6.993   5.195   2.005  0.3796  0.1604 -0.1130
   13CHTO  C104 5153   7.121   5.155   2.050  0.0239 -0.0525 -0.0775
   13CHTO  H191 5154   7.159   5.091   1.971 -0.7561 -1.4630  0.6798
   13CHTO  C108 5155   7.102   5.066   2.173 -0.3763 -0.3224  0.2113
   13CHTO   O71 5156   7.052   4.936   2.133  0.4190 -0.9284  0.3384
   13CHTO  H171 5157   6.959   4.946   2.136  0.6392  1.2132  1.2002
   13CHTO   O62 5158   6.832   5.287   1.877  0.0309  0.6163  0.0172
   13CHTO   C91 5159   6.760   5.174   1.817  0.3720 -0.0957  0.3633
   13CHTO  H178 5160   6.815   5.082   1.834  0.9669  0.3293  0.7683
   13CHTO   C92 5161   6.735   5.202   1.666  0.5856 -0.6511 -0.5520
   13CHTO  H179 5162   6.696   5.304   1.657  1.3433 -0.4983 -2.3023
   13CHTO   O66 5163   6.864   5.206   1.599  0.4455  0.2127  0.0608
   13CHTO  H166 5164   6.899   5.291   1.616 -2.2810  1.2668  0.5666
   13CHTO   C93 5165   6.634   5.094   1.605  0.1466  0.6139 -0.7085
   13CHTO  H180 5166   6.683   4.996   1.608 -2.2564 -0.6419 -1.0080
   13CHTO   N16 5167   6.606   5.117   1.459  0.0353  0.0140  0.2813
   13CHTO  H172 5168   6.699   5.111   1.404  1.2040  0.1773  2.1798
   13CHTO  H173 5169   6.539   5.196   1.428 -0.4031  0.0093  1.2079
   13CHTO   C94 5170   6.505   5.084   1.689  0.3108  0.0851 -0.2316
   13CHTO  H181 5171   6.457   5.181   1.701  2.5173  1.1009  0.6279
   13CHTO   O61 5172   6.553   5.038   1.816 -0.4564  0.5913 -0.2654
   13CHTO   C95 5173   6.621   5.139   1.885  0.1899 -0.2053 -0.0164
   13CHTO  H182 5174   6.561   5.230   1.888  2.2944  1.2008 -0.1724
   13CHTO  C106 5175   6.648   5.093   2.036  0.5432 -0.3479  0.3954
   13CHTO   O69 5176   6.735   4.982   2.053  0.0827  0.0425  0.0065
   13CHTO  H169 5177   6.822   5.005   2.080  0.3305 -0.1799 -0.6023
   13CHTO   O63 5178   6.390   4.974   1.633 -0.2966 -0.0477  0.1678
   13CHTO   C96 5179   6.244   4.979   1.730  0.0892 -0.0874 -0.2338
   13CHTO  H183 5180   6.170   4.925   1.670 -0.1559 -0.0122 -0.0021
   13CHTO   C98 5181   6.181   5.116   1.767  0.3276  0.7437  0.0118
   13CHTO  H185 5182   6.254   5.186   1.811  0.7962  1.5506 -2.0004
   13CHTO   O67 5183   6.136   5.187   1.650 -0.6900  0.0534  0.0798
   13CHTO  H167 5184   6.197   5.173   1.580 -1.3174  0.1063 -0.4817
   13CHTO  C102 5185   6.057   5.101   1.863  0.5582  0.0390  0.5236
   13CHTO  H189 5186   5.982   5.047   1.803  1.4099 -0.3811 -0.1945
   13CHTO   N18 5187   6.001   5.234   1.898  0.0727  0.2170  0.2237
   13CHTO  H176 5188   5.894   5.234   1.915 -0.1799  1.1161 -1.2733
   13CHTO  H177 5189   6.021   5.301   1.816  0.8176 -1.5469 -1.0521
   13CHTO  C105 5190   6.099   5.013   1.984  0.1026  0.1585 -1.0669
   13CHTO  H192 5191   6.159   5.070   2.055  0.2811 -0.7665 -0.4702
   13CHTO   O65 5192   6.168   4.895   1.954  0.2574  0.1885 -0.4896
   13CHTO  C100 5193   6.280   4.897   1.861  0.3048  0.2268  0.4803
   13CHTO  H187 5194   6.362   4.946   1.916 -0.0184  1.0932  0.2004
   13CHTO  C107 5195   6.306   4.746   1.827 -0.2357  0.2724 -0.0444
   13CHTO   O70 5196   6.191   4.676   1.782 -0.0165  0.5738  0.3131
   13CHTO  H170 5197   6.199   4.666   1.689 -0.1258  0.3174  0.3307
   13CHTO   O57 5198   5.970   4.975   2.059  0.0084  0.6356 -0.5920
   13CHTO   C85 5199   5.880   4.877   2.006 -0.1933  0.2293  0.1261
   13CHTO  H157 5200   5.918   4.840   1.908 -2.7009  0.8558 -1.1353
   13CHTO   C83 5201   5.739   4.943   1.974  0.3760 -0.7060 -0.0425
   13CHTO  H155 5202   5.747   5.018   1.895  0.4086  0.7909  1.3520
   13CHTO   O56 5203   5.692   5.024   2.085 -0.3745  0.1103 -0.0140
   13CHTO  H135 5204   5.695   4.977   2.166 -0.6513 -2.6094 -1.5047
   13CHTO   C81 5205   5.635   4.837   1.928  0.5505  0.0215  0.1205
   13CHTO  H153 5206   5.676   4.789   1.838  0.5997  1.1197 -0.4566
   13CHTO   N14 5207   5.509   4.899   1.878 -0.1057 -0.0589  0.2283
   13CHTO  H141 5208   5.538   4.971   1.804  1.0404 -1.2783 -0.5301
   13CHTO  H142 5209   5.450   4.823   1.831  0.9409 -0.6662 -0.1213
   13CHTO   C79 5210   5.603   4.724   2.036 -0.6712  0.7183  0.3041
   13CHTO  H151 5211   5.553   4.639   1.990  0.9652 -0.1252  0.0544
   13CHTO   O52 5212   5.733   4.672   2.080 -0.9649 -0.6472  0.1887
   13CHTO   C86 5213   5.847   4.755   2.105  0.0687 -0.1712 -1.0014
   13CHTO  H158 5214   5.830   4.799   2.206 -1.7260 -1.2849 -0.8028
   13CHTO   C90 5215   5.965   4.652   2.113  0.0135  0.0334 -0.6393
   13CHTO   O60 5216   6.089   4.707   2.156 -0.9044  0.8340  0.0188
   13CHTO  H138 5217   6.080   4.733   2.245 -0.7905  1.9724 -0.2965
   13CHTO   O50 5218   5.527   4.772   2.149 -0.0932 -0.0447 -0.1876
   13CHTO   C73 5219   5.409   4.734   2.222  0.6820 -0.5779 -0.2779
   13CHTO  H145 5220   5.350   4.660   2.166  3.6176 -4.0345  0.9747
   13CHTO   C74 5221   5.322   4.862   2.235  0.4767  0.7767  0.1543
   13CHTO  H146 5222   5.299   4.906   2.137 -0.3487  0.5212  0.2263
   13CHTO   O54 5223   5.196   4.829   2.294  0.2536 -0.1744  0.0588
   13CHTO  H133 5224   5.191   4.882   2.371 -0.0284 -0.3722  0.1758
   13CHTO   C75 5225   5.407   4.963   2.333  0.3040 -0.0297  0.4193
   13CHTO  H147 5226   5.499   4.995   2.280 -1.0270  0.1360 -1.8622
   13CHTO   N13 5227   5.338   5.090   2.379  0.2159  0.3780  0.5775
   13CHTO  H139 5228   5.405   5.139   2.448  1.4690 -0.8671  0.2692
   13CHTO  H140 5229   5.314   5.157   2.299 -0.8141 -1.0210 -0.3084
   13CHTO   C76 5230   5.462   4.887   2.464  0.6814 -0.1744  0.4150
   13CHTO  H148 5231   5.370   4.858   2.516 -1.0057  1.4648 -1.5721
   13CHTO   O49 5232   5.539   4.766   2.431  0.2055  0.4011 -0.1945
   13CHTO   C77 5233   5.457   4.670   2.358 -0.3445 -0.0070 -0.2521
   13CHTO  H149 5234   5.370   4.652   2.422 -1.9748 -0.7737 -2.6049
   13CHTO   C88 5235   5.530   4.532   2.337 -0.0337 -0.7291 -0.5151
   13CHTO   O58 5236   5.574   4.474   2.441 -0.0187 -0.7594 -0.5093
   13CHTO  H136 5237   5.593   4.529   2.515 -1.6422 -0.6961 -0.1091
   13CHTO   O51 5238   5.558   4.986   2.572 -0.4896 -0.9492 -0.2371
   13CHTO   C78 5239   5.720   5.009   2.538 -0.1674  0.3364 -0.1248
   13CHTO  H150 5240   5.769   5.058   2.625 -0.4956 -2.2042  1.5579
   13CHTO   C80 5241   5.734   5.093   2.413 -0.2539 -0.7580 -0.4065
   13CHTO  H152 5242   5.702   5.033   2.325 -0.4457 -1.1097 -0.0946
   13CHTO   O55 5243   5.653   5.211   2.433  0.1398  0.1508  0.5294
   13CHTO  H134 5244   5.655   5.264   2.355  1.7882 -2.2096 -1.1164
   13CHTO   C84 5245   5.891   5.135   2.407 -0.0312  0.4369 -0.2436
   13CHTO  H156 5246   5.917   5.191   2.496  0.7664  0.1849 -0.3216
   13CHTO   N15 5247   5.911   5.233   2.296 -0.6280 -0.4057  0.0486
   13CHTO  H143 5248   5.920   5.333   2.334  1.4338 -1.2113  1.7693
   13CHTO  H144 5249   5.991   5.203   2.233 -0.5586 -1.8555  0.8088
   13CHTO   C87 5250   5.976   5.007   2.389 -0.1310 -0.2196  0.3278
   13CHTO  H159 5251   5.942   4.955   2.299  2.2591 -3.3518  1.1343
   13CHTO   O53 5252   5.940   4.918   2.510 -0.7460 -0.2835  0.4377
   13CHTO   C82 5253   5.802   4.878   2.521 -0.4361 -0.8392 -0.1112
   13CHTO  H154 5254   5.777   4.822   2.431  1.1970  0.6759 -1.5625
   13CHTO   C89 5255   5.789   4.784   2.643 -0.7947  0.0827 -0.3331
   13CHTO   O59 5256   5.868   4.668   2.620  0.6475  0.0656  0.3019
   13CHTO  H137 5257   5.900   4.643   2.704 -1.3177  1.0944  1.3931
   13CHTO   O45 5258   6.143   5.039   2.384 -0.2998  0.4371 -0.2041
   13CHTO   C67 5259   6.217   4.943   2.467  0.1867  0.5491  0.7411
   13CHTO  H124 5260   6.163   4.848   2.463  1.7257 -0.2895 -0.3572
   13CHTO   C65 5261   6.356   4.913   2.413  0.1015  0.1668  0.6057
   13CHTO  H122 5262   6.346   4.898   2.306 -0.4688 -0.4610  0.7414
   13CHTO   O44 5263   6.404   4.793   2.464  0.3234  0.9182 -0.4472
   13CHTO  H102 5264   6.394   4.801   2.557 -0.1832 -0.7743 -0.3459
   13CHTO   C63 5265   6.450   5.038   2.453 -0.1647  0.2151  0.1096
   13CHTO  H120 5266   6.412   5.128   2.404 -1.5986  0.3893  1.4847
   13CHTO   N11 5267   6.586   5.039   2.396  0.2179 -0.2675  0.0011
   13CHTO  H108 5268   6.621   4.938   2.392  2.3971  0.3441  2.5069
   13CHTO  H109 5269   6.655   5.087   2.462  0.1164 -0.6072  0.3552
   13CHTO   C61 5270   6.448   5.052   2.611 -0.2629 -0.2274 -0.1194
   13CHTO  H118 5271   6.506   5.144   2.632 -1.0140  0.2022  0.0788
   13CHTO   O40 5272   6.327   5.075   2.661  0.4652 -0.0720 -0.0474
   13CHTO   C68 5273   6.215   4.989   2.625  0.2282 -0.3437  0.6369
   13CHTO  H125 5274   6.122   5.050   2.629  0.9860  0.6819  4.1134
   13CHTO   C72 5275   6.192   4.864   2.716 -0.4552  0.1783  0.2978
   13CHTO   O48 5276   6.149   4.892   2.852  0.0383 -0.4054  0.7291
   13CHTO  H105 5277   6.121   4.809   2.884  0.3457 -1.4308 -1.5716
   13CHTO   O38 5278   6.512   4.952   2.693  0.0041  0.6480 -0.1270
   13CHTO   C55 5279   6.602   4.991   2.801  0.3401  0.6402 -0.0246
   13CHTO  H112 5280   6.616   4.905   2.868 -0.2818 -0.0503 -0.7690
   13CHTO   C56 5281   6.548   5.118   2.881  0.4426 -0.1477 -0.5721
   13CHTO  H113 5282   6.516   5.198   2.813  0.3048  1.6877  1.5863
   13CHTO   O42 5283   6.428   5.080   2.952  0.1000 -0.1497 -0.9029
   13CHTO  H100 5284   6.373   5.155   2.944  0.2045  0.0682  0.2808
   13CHTO   C57 5285   6.653   5.172   2.986 -1.0454  0.7609  0.3325
   13CHTO  H114 5286   6.660   5.099   3.068  1.7237  2.6245  1.8231
   13CHTO   N10 5287   6.614   5.293   3.059  0.5114 -0.0545 -0.2413
   13CHTO  H106 5288   6.575   5.283   3.159  0.2592  0.7432 -0.2558
   13CHTO  H107 5289   6.687   5.372   3.052  1.8748 -1.1128  1.5824
   13CHTO   C58 5290   6.794   5.187   2.925 -0.1940 -0.3925  0.1673
   13CHTO  H115 5291   6.780   5.266   2.848 -0.2125 -0.7464 -0.1928
   13CHTO   O37 5292   6.831   5.061   2.857  0.0352 -0.0524  0.0550
   13CHTO   C59 5293   6.746   5.014   2.747 -0.3009  0.0607  0.2355
   13CHTO  H116 5294   6.757   5.088   2.668  0.6074  0.1113  0.3963
   13CHTO   C70 5295   6.804   4.885   2.693  0.0968  0.4010  0.5758
   13CHTO   O46 5296   6.813   4.781   2.789 -0.1550 -0.1815  0.2298
   13CHTO  H103 5297   6.735   4.746   2.828 -0.1019 -0.2798  0.2460
   13CHTO   O39 5298   6.923   5.213   3.035 -0.2520  0.2813  0.4537
   13CHTO   C60 5299   6.987   5.339   3.001  0.5643 -0.0539 -0.6278
   13CHTO  H117 5300   6.941   5.376   2.910 -1.5221  0.5473  0.6178
   13CHTO   C62 5301   6.961   5.464   3.094  0.1553  0.0966  0.6571
   13CHTO  H119 5302   6.852   5.482   3.106 -0.2567 -0.5685 -1.9420
   13CHTO   O43 5303   7.032   5.444   3.222  0.7281  0.3814 -0.3558
   13CHTO  H101 5304   6.989   5.485   3.295 -0.2190  1.2402 -1.3628
   13CHTO   C66 5305   7.028   5.592   3.025 -0.1280  0.3300  0.7020
   13CHTO  H123 5306   6.989   5.609   2.925  3.0538  3.3666 -0.1234
   13CHTO   N12 5307   6.994   5.713   3.104 -0.9459 -0.4682  0.1334
   13CHTO  H110 5308   6.890   5.714   3.130 -0.7108 -1.0842  1.1284
   13CHTO  H111 5309   7.050   5.735   3.194 -1.5966 -1.3757  0.7739
   13CHTO   C69 5310   7.178   5.581   3.005 -0.3605 -0.2409  0.1983
   13CHTO  H126 5311   7.240   5.579   3.097  0.4547  1.9211 -0.2609
   13CHTO   O41 5312   7.216   5.448   2.923  0.1539  0.2718  0.3312
   13CHTO   C64 5313   7.140   5.308   2.977  0.0365  0.7563 -0.0485
   13CHTO  H121 5314   7.187   5.278   3.073 -1.9097 -0.9195  0.4178
   13CHTO   C71 5315   7.154   5.205   2.870  0.0833 -0.3882 -0.4294
   13CHTO   O47 5316   7.293   5.200   2.827  0.3569  0.5844  0.2327
   13CHTO  H104 5317   7.309   5.124   2.776  0.1734 -0.3775  1.5861
   13CHTO   O34 5318   7.240   5.694   2.935 -0.1681  0.5842  0.2161
   13CHTO   C49 5319   7.329   5.785   2.853 -0.0937  0.5963 -0.9473
   13CHTO   H91 5320   7.343   5.740   2.754 -0.2742 -1.6577  0.0249
   13CHTO   C47 5321   7.462   5.791   2.931 -0.0513 -0.1022 -0.3731
   13CHTO   H89 5322   7.521   5.867   2.876  0.6697 -0.5690 -0.2454
   13CHTO   O33 5323   7.524   5.660   2.931 -0.3102 -1.0788  0.0783
   13CHTO   H70 5324   7.571   5.641   3.010  2.3432  0.0126 -1.1394
   13CHTO   C45 5325   7.423   5.853   3.078 -0.1384 -0.5279  0.2542
   13CHTO   H87 5326   7.393   5.772   3.147 -0.7211 -0.9805 -0.5154
   13CHTO    N8 5327   7.551   5.909   3.134 -0.0824  0.1681  0.1215
   13CHTO   H75 5328   7.643   5.904   3.077 -0.0099  1.9846  0.0231
   13CHTO   H76 5329   7.573   5.884   3.236 -1.6090 -0.2639  0.3507
   13CHTO   C43 5330   7.301   5.964   3.075  0.5031 -0.1891  0.0400
   13CHTO   H85 5331   7.219   5.893   3.085  0.4934 -0.4922 -1.9756
   13CHTO   O29 5332   7.304   6.023   2.949  0.5968 -0.1804  0.2575
   13CHTO   C50 5333   7.275   5.930   2.843 -0.7018  0.2283  0.2967
   13CHTO   H92 5334   7.165   5.927   2.843 -0.6541 -2.0401  0.2199
   13CHTO   C54 5335   7.312   5.994   2.707 -0.3152 -0.1250  0.6530
   13CHTO   O36 5336   7.207   6.092   2.674 -1.0116  0.1055 -0.8843
   13CHTO   H72 5337   7.240   6.178   2.688 -2.2852  0.8098 -2.0575
   13CHTO   O27 5338   7.288   6.058   3.178  0.9798 -0.4265 -0.7004
   13CHTO   C37 5339   7.212   6.176   3.208  0.6329 -0.8011  0.5842
   13CHTO   H79 5340   7.154   6.150   3.298 -1.9817 -1.1331 -1.1605
   13CHTO   C38 5341   7.310   6.308   3.242 -0.7740  0.5911 -0.3634
   13CHTO   H80 5342   7.382   6.317   3.160  1.2517 -2.5902  0.9752
   13CHTO   O31 5343   7.379   6.280   3.363 -0.9244 -0.4911  0.1053
   13CHTO   H68 5344   7.436   6.205   3.363  0.8329  0.8064 -0.3558
   13CHTO   C39 5345   7.226   6.441   3.258  0.1585  0.6650  0.6702
   13CHTO   H81 5346   7.165   6.431   3.348  0.6066  1.5416  1.0779
   13CHTO    N7 5347   7.320   6.559   3.247  0.4380 -0.6321  0.1410
   13CHTO   H73 5348   7.417   6.553   3.294 -0.1150  1.6423  1.6536
   13CHTO   H74 5349   7.335   6.584   3.143  0.4730 -1.5509 -0.0863
   13CHTO   C40 5350   7.124   6.455   3.138 -0.2637 -0.3988 -0.1681
   13CHTO   H82 5351   7.189   6.445   3.051  0.2197  0.1875  0.1250
   13CHTO   O26 5352   7.040   6.341   3.145 -0.9686  0.0062  0.2014
   13CHTO   C41 5353   7.111   6.219   3.101  0.2230 -0.2668  0.7017
   13CHTO   H83 5354   7.163   6.233   3.005  0.6401 -2.9807  0.4908
   13CHTO   C52 5355   6.996   6.109   3.087 -0.5082 -1.3050 -0.3995
   13CHTO   O35 5356   6.904   6.142   2.955 -0.3003  0.4768 -0.4321
   13CHTO   H71 5357   6.900   6.079   2.886 -0.1461  1.4086 -1.3063
   13CHTO   O28 5358   7.033   6.557   3.150 -0.1511  0.0209  0.7905
   13CHTO   C42 5359   6.953   6.615   3.041 -0.8776  0.2147 -0.0191
   13CHTO   H84 5360   6.958   6.540   2.961 -2.4359 -0.4047  0.4467
   13CHTO   C44 5361   7.016   6.750   2.977  0.1437 -0.0964  0.1681
   13CHTO   H86 5362   7.021   6.822   3.058 -1.3221 -1.2024  1.2695
   13CHTO   O32 5363   7.152   6.718   2.936  0.5841 -0.3672  0.4800
   13CHTO   H69 5364   7.201   6.793   2.910 -2.5776  1.2013 -1.2564
   13CHTO   C48 5365   6.922   6.809   2.862 -0.0512 -0.2267  0.9763
   13CHTO   H90 5366   6.936   6.733   2.785  0.1029  0.8734 -0.0965
   13CHTO    N9 5367   6.965   6.936   2.798  0.2265 -0.0192  0.1464
   13CHTO   H77 5368   6.990   7.016   2.867  3.3942 -0.4868 -0.3583
   13CHTO   H78 5369   7.048   6.918   2.731  0.7555  0.4047  0.6785
   13CHTO   C51 5370   6.775   6.820   2.915  0.4653  0.1531 -0.6566
   13CHTO   H93 5371   6.772   6.890   2.998  3.2301  0.4870 -0.7755
   13CHTO   O30 5372   6.725   6.693   2.954  0.2836  0.5890 -0.6353
   13CHTO   C46 5373   6.803   6.626   3.079  1.1441  0.3880 -0.2915
   13CHTO   H88 5374   6.788   6.678   3.174 -0.6888 -0.1651 -0.2628
   13CHTO   C53 5375   6.744   6.488   3.091  0.0548  0.3669  0.3376
   13CHTO   O72 5376   6.757   6.432   3.219 -0.2543 -0.1243 -0.0673
   13CHTO  H199 5377   6.759   6.339   3.206 -0.3088 -0.1617  0.1961
   13CHTO   O22 5378   6.680   6.868   2.821  0.3470 -0.0492  0.6323
   13CHTO   C31 5379   6.541   6.920   2.845 -0.6945  0.1137 -0.3705
   13CHTO   H59 5380   6.503   6.928   2.741  2.3895  1.4604 -1.4560
   13CHTO   C29 5381   6.447   6.826   2.925  0.2704 -0.3460  0.3016
   13CHTO   H57 5382   6.499   6.800   3.018  1.5012 -0.6234 -0.4519
   13CHTO   O21 5383   6.438   6.702   2.850  0.1351 -0.4189  0.3063
   13CHTO   H37 5384   6.392   6.631   2.891 -0.5869  1.1889  2.3577
   13CHTO   C27 5385   6.302   6.883   2.952  0.2348 -0.9769  0.3832
   13CHTO   H55 5386   6.239   6.873   2.862 -1.5070 -2.0301  1.6945
   13CHTO    N5 5387   6.228   6.803   3.054 -0.0708 -0.1506  0.3325
   13CHTO   H43 5388   6.205   6.855   3.146  1.3357  1.1365 -0.0209
   13CHTO   H44 5389   6.259   6.701   3.068  0.3228 -0.0608  0.1213
   13CHTO   C25 5390   6.307   7.040   2.986 -0.3871 -0.3192  0.5108
   13CHTO   H53 5391   6.320   7.048   3.095 -1.6196 -1.7483  0.7770
   13CHTO   O17 5392   6.407   7.118   2.906  0.4362 -0.4414 -0.3189
   13CHTO   C32 5393   6.539   7.065   2.898  0.0448 -0.4973 -0.0639
   13CHTO   H60 5394   6.572   7.065   3.002 -0.0074  0.2965 -0.0437
   13CHTO   C36 5395   6.639   7.165   2.841 -0.1999  0.9610  0.3790
   13CHTO   O25 5396   6.659   7.290   2.905  0.5954 -0.1530  0.4018
   13CHTO   H40 5397   6.727   7.336   2.860 -1.2746  1.1622 -1.1606
   13CHTO   O15 5398   6.171   7.104   2.968  0.1548 -0.0365  0.2359
   13CHTO   C19 5399   6.069   7.158   2.883 -0.8826 -0.7047  0.1100
   13CHTO   H47 5400   6.093   7.265   2.886 -1.7361 -0.4868 -0.6335
   13CHTO   C20 5401   6.062   7.106   2.740  0.0103  0.8190  0.5727
   13CHTO   H48 5402   6.023   7.004   2.735 -3.1140  2.0047 -0.5995
   13CHTO   O19 5403   6.192   7.113   2.691 -0.3283  0.4771  0.1948
   13CHTO   H35 5404   6.197   7.115   2.597 -0.9536  3.2825  0.1911
   13CHTO   C21 5405   5.952   7.186   2.655  0.4904  0.4294 -0.0159
   13CHTO   H49 5406   5.982   7.290   2.644  1.4812  0.0662 -0.9643
   13CHTO    N4 5407   5.951   7.127   2.521  0.2168 -0.3477 -0.5061
   13CHTO   H41 5408   5.914   7.025   2.522 -1.5293  0.2560 -1.8744
   13CHTO   H42 5409   5.879   7.186   2.467  0.5718 -0.4636 -1.1178
   13CHTO   C22 5410   5.815   7.182   2.732  0.0054  0.2091 -0.1124
   13CHTO   H50 5411   5.778   7.080   2.718 -0.8499  0.3704  0.8750
   13CHTO   O14 5412   5.825   7.213   2.876 -0.2203 -0.1860  0.2953
   13CHTO   C23 5413   5.927   7.141   2.955 -0.4812  0.4935  0.3214
   13CHTO   H51 5414   5.896   7.036   2.970 -2.8403  1.1583  0.2634
   13CHTO   C34 5415   5.916   7.210   3.091  0.5502 -0.0002 -0.4661
   13CHTO   O23 5416   6.004   7.146   3.182  0.4740 -0.2282  0.0400
   13CHTO   H38 5417   5.989   7.176   3.270 -0.2642  0.9352 -0.4668
   13CHTO   O16 5418   5.703   7.265   2.672  0.3082  0.3959 -0.1069
   13CHTO   C24 5419   5.549   7.203   2.679 -0.8937 -0.4803 -0.1358
   13CHTO   H52 5420   5.527   7.159   2.776 -0.6673  2.4488  1.3127
   13CHTO   C26 5421   5.512   7.110   2.558  0.0468  0.7410  0.4141
   13CHTO   H54 5422   5.536   7.162   2.463  2.8360 -3.0353 -1.0438
   13CHTO   O20 5423   5.609   7.008   2.561 -0.1527  0.1512  0.6868
   13CHTO   H36 5424   5.673   7.017   2.629  0.5276 -1.7246  0.3359
   13CHTO   C30 5425   5.366   7.065   2.557  0.6238 -0.3897  0.7187
   13CHTO   H58 5426   5.338   7.002   2.642  1.3097  0.3348  1.4872
   13CHTO    N6 5427   5.334   6.980   2.438  0.0383  0.5266  0.3143
   13CHTO   H45 5428   5.414   6.972   2.366  2.2575  1.9762  2.5404
   13CHTO   H46 5429   5.241   7.007   2.389  0.2830 -0.3556 -0.6604
   13CHTO   C33 5430   5.274   7.191   2.569 -0.0483  0.2680  0.3635
   13CHTO   H61 5431   5.274   7.251   2.476 -1.1700  0.5427  0.5262
   13CHTO   O18 5432   5.316   7.282   2.674  0.5615 -0.7219  0.5013
   13CHTO   C28 5433   5.448   7.327   2.668 -0.8106  0.7200 -0.1653
   13CHTO   H56 5434   5.475   7.380   2.577  0.3165 -1.2497 -1.0070
   13CHTO   C35 5435   5.462   7.436   2.783  0.1669  0.3305  0.0576
   13CHTO   O24 5436   5.588   7.491   2.803 -0.2690  0.6414  0.0668
   13CHTO   H39 5437   5.578   7.575   2.845 -1.6841  0.7171 -0.3949
   13CHTO    O9 5438   5.132   7.150   2.586 -0.4165  0.1407  0.7947
   13CHTO   C13 5439   5.089   7.076   2.711  0.0752  1.0462  0.3630
   13CHTO   H26 5440   5.176   7.063   2.778 -0.1778  2.0878  0.9180
   13CHTO   C11 5441   5.023   6.946   2.671  0.4477 -0.4752  0.2209
   13CHTO   H24 5442   5.098   6.898   2.606  1.7919 -1.5236  2.4601
   13CHTO    O8 5443   4.897   6.956   2.591 -0.0293 -0.0786  0.1297
   13CHTO    H3 5444   4.880   7.043   2.560  1.0435 -0.1654 -0.7011
   13CHTO    C9 5445   5.003   6.865   2.802 -0.4842  1.1737 -0.7673
   13CHTO   H22 5446   5.098   6.870   2.856 -1.3495 -0.6052  0.9501
   13CHTO    N2 5447   4.971   6.723   2.783 -0.1968  0.2145 -0.2928
   13CHTO   H10 5448   5.052   6.661   2.817  0.8852  1.8162  0.1308
   13CHTO   H11 5449   4.874   6.695   2.820  0.3453 -0.4776  0.6237
   13CHTO    C7 5450   4.896   6.945   2.888 -0.0904  0.1114  0.0506
   13CHTO   H20 5451   4.937   6.955   2.991  0.4475  2.2079 -0.3376
   13CHTO    O4 5452   4.867   7.078   2.843  0.4508 -0.1977 -0.4390
   13CHTO   C14 5453   4.986   7.150   2.809  0.4045  0.0236 -0.5153
   13CHTO   H27 5454   5.040   7.172   2.904  1.4977 -1.4103 -0.7888
   13CHTO   C18 5455   4.944   7.290   2.753  0.3684  0.4362 -0.1117
   13CHTO   O13 5456   4.906   7.374   2.859  0.8183 -0.0358 -0.0077
   13CHTO    H7 5457   4.986   7.421   2.873 -0.2322  1.7677  0.1292
   13CHTO    O2 5458   4.739   6.873   2.900 -0.7254  0.0888  0.0274
   13CHTO    C1 5459   4.698   6.838   3.036  0.1442 -0.8063  0.3908
   13CHTO   H14 5460   4.697   6.931   3.096  2.3046 -0.6308  0.1992
   13CHTO    C2 5461   4.784   6.727   3.114 -0.5889  0.4072  1.0116
   13CHTO   H15 5462   4.798   6.648   3.039 -2.0250  1.1973 -0.1049
   13CHTO    O6 5463   4.912   6.776   3.155 -0.3249  0.4923 -0.2252
   13CHTO    H1 5464   4.917   6.800   3.246  1.4793 -3.2881  0.7347
   13CHTO    C3 5465   4.706   6.664   3.240  0.1709 -0.8278 -0.2301
   13CHTO   H16 5466   4.720   6.738   3.320 -0.9501 -0.1364 -0.6664
   13CHTO    N1 5467   4.768   6.534   3.292  0.0052  0.0197 -0.0473
   13CHTO    H8 5468   4.861   6.573   3.332  2.2661 -3.4107 -1.7902
   13CHTO    H9 5469   4.801   6.458   3.224  1.6976 -0.1527  0.9499
   13CHTO    C4 5470   4.546   6.648   3.225 -0.4344 -0.3809 -0.4392
   13CHTO   H17 5471   4.522   6.555   3.173 -0.5406 -0.6106  0.0165
   13CHTO    O1 5472   4.499   6.761   3.148  0.0628 -0.5349 -0.1823
   13CHTO    C5 5473   4.552   6.786   3.024  0.6820 -0.3438  0.2795
   13CHTO   H18 5474   4.563   6.696   2.963 -0.8917  0.6033 -1.4917
   13CHTO   C16 5475   4.468   6.891   2.948  0.0552 -0.2176 -0.1996
   13CHTO   O11 5476   4.331   6.852   2.923  0.1901  0.0981  0.3365
   13CHTO    H5 5477   4.332   6.780   2.863 -1.0828  1.1174 -0.9633
   13CHTO    O3 5478   4.474   6.657   3.347  0.6178 -0.1002  0.1803
   13CHTO    C6 5479   4.344   6.601   3.361 -0.1563 -0.8221  0.7994
   13CHTO   H19 5480   4.301   6.582   3.263  1.2575  0.5603 -0.1023
   13CHTO    C8 5481   4.358   6.470   3.442 -0.0906 -0.1176 -1.0786
   13CHTO   H21 5482   4.409   6.495   3.535 -0.6876  0.7817 -0.9942
   13CHTO    O7 5483   4.440   6.379   3.365 -0.5046 -0.2487  1.0450
   13CHTO    H2 5484   4.430   6.397   3.273  0.3898 -1.9800  0.5827
   13CHTO   C12 5485   4.217   6.410   3.479 -0.5772  0.6124  0.7223
   13CHTO   H25 5486   4.171   6.377   3.383  2.1119 -3.0033  0.5570
   13CHTO    N3 5487   4.239   6.280   3.563 -0.1805 -0.2192  0.2350
   13CHTO   H12 5488   4.188   6.286   3.658  0.0356  2.2396  0.2337
   13CHTO   H13 5489   4.238   6.189   3.506 -0.9770  1.1002 -1.9378
   13CHTO   C15 5490   4.125   6.518   3.547  0.2264 -0.3892 -0.1695
   13CHTO   H28 5491   4.159   6.545   3.647  1.8178 -2.9505  0.0237
   13CHTO   O10 5492   3.991   6.463   3.552  0.0651 -0.3715  0.4083
   13CHTO    H4 5493   3.944   6.461   3.633  0.1895 -1.2929  0.4609
   13CHTO    O5 5494   4.118   6.631   3.460  0.0136  0.0851 -0.0714
   13CHTO   C10 5495   4.245   6.701   3.428 -0.2159  0.1003  0.4428
   13CHTO   H23 5496   4.290   6.720   3.525 -1.1557  0.3587  0.8346
   13CHTO   C17 5497   4.217   6.832   3.347 -0.0660  0.1286  0.3894
   13CHTO   O12 5498   4.170   6.813   3.214 -0.0175  0.2031  0.0174
   13CHTO    H6 5499   4.219   6.748   3.167  1.0170  0.6591  0.4464
   14CHTO  H203 5500   6.905   4.552   2.085  1.1976  0.5428 -0.9068
   14CHTO   O82 5501   6.902   4.633   2.133  0.0969  0.3211 -0.5746
   14CHTO  C123 5502   6.808   4.626   2.243  0.1915 -0.4576  0.9500
   14CHTO  H227 5503   6.797   4.727   2.285  2.1179 -0.2575  1.0277
   14CHTO   O77 5504   6.683   4.572   2.176  0.3189  0.0144  0.5947
   14CHTO  C118 5505   6.568   4.576   2.265 -1.0951 -0.1769 -0.2698
   14CHTO  H222 5506   6.571   4.678   2.308  1.9471 -0.8753  1.3309
   14CHTO  C125 5507   6.425   4.552   2.192 -0.0002 -0.0789  0.4108
   14CHTO   O84 5508   6.384   4.663   2.115 -0.1566  0.1436  0.5139
   14CHTO  H205 5509   6.375   4.644   2.023  3.0962  1.7346 -0.2085
   14CHTO  C114 5510   6.584   4.482   2.383 -0.0581  0.4500  0.4138
   14CHTO  H218 5511   6.586   4.381   2.342 -3.3795  0.0580  1.0291
   14CHTO  C116 5512   6.712   4.516   2.457  0.3921 -0.5892  0.6555
   14CHTO  H220 5513   6.711   4.617   2.501 -0.1576 -0.4414  0.3144
   14CHTO   O79 5514   6.737   4.420   2.556  0.4322 -0.0963  0.3631
   14CHTO  H201 5515   6.686   4.446   2.630 -0.2116  0.3667 -0.2368
   14CHTO  C120 5516   6.838   4.514   2.354 -0.6133  0.3174  0.2449
   14CHTO  H224 5517   6.844   4.414   2.306 -4.4927 -0.1519  0.5789
   14CHTO   N21 5518   6.973   4.526   2.418 -0.5776  0.2000 -0.0693
   14CHTO  H211 5519   6.960   4.551   2.522  1.5274 -1.0822  0.5269
   14CHTO  H212 5520   7.049   4.578   2.361  0.4808 -1.6791 -0.4143
   14CHTO   O75 5521   6.475   4.502   2.475 -0.3201  0.0685 -0.3710
   14CHTO  C112 5522   6.373   4.375   2.498  0.6271  0.3161 -0.3570
   14CHTO  H216 5523   6.389   4.326   2.595 -3.2916  2.9633  1.7680
   14CHTO   O73 5524   6.379   4.282   2.391 -0.3917 -0.0121  0.2986
   14CHTO  C113 5525   6.307   4.157   2.406 -0.8990 -0.2285 -0.2284
   14CHTO  H217 5526   6.331   4.114   2.506 -0.1099 -1.4559 -0.9246
   14CHTO  C124 5527   6.328   4.048   2.305 -0.6458 -0.4038 -0.6040
   14CHTO   O83 5528   6.476   4.028   2.296 -0.1135  0.3999 -0.1160
   14CHTO  H204 5529   6.504   3.970   2.364  1.7191  1.7150  0.2984
   14CHTO  C109 5530   6.158   4.196   2.400  0.6251  0.1777  0.7855
   14CHTO  H213 5531   6.139   4.251   2.307 -3.0920  0.6230  1.7314
   14CHTO  C110 5532   6.125   4.309   2.495 -0.1498 -0.2386 -0.5544
   14CHTO  H214 5533   6.122   4.270   2.597  0.8088 -0.4192 -0.5896
   14CHTO   O78 5534   5.990   4.358   2.481  0.4822 -0.1305 -0.3116
   14CHTO  H200 5535   5.937   4.293   2.521 -1.6202  0.0937 -2.6320
   14CHTO  C111 5536   6.225   4.430   2.500  0.4319  0.6676 -0.4370
   14CHTO  H215 5537   6.212   4.494   2.412  1.1251  1.9235  0.3575
   14CHTO   N19 5538   6.209   4.517   2.626  0.1338  0.3409  0.4894
   14CHTO  H207 5539   6.271   4.605   2.616  0.0451  0.4204  0.6440
   14CHTO  H208 5540   6.237   4.459   2.713 -1.9830  0.0795  1.0349
   14CHTO   O74 5541   6.062   4.088   2.413 -0.3821  0.3768 -0.4870
   14CHTO  C115 5542   6.008   4.045   2.286  0.5158 -0.5111  0.0011
   14CHTO  H219 5543   6.054   4.102   2.205  0.9396  1.0649  1.3117
   14CHTO   O76 5544   6.053   3.874   2.248  0.5758  0.2508 -0.4163
   14CHTO  C122 5545   5.966   3.780   2.309  0.7510 -0.1190  0.3928
   14CHTO  H226 5546   5.992   3.771   2.415  0.1664 -1.9306  0.3975
   14CHTO  C126 5547   5.988   3.631   2.239 -0.1715  0.2366  0.1347
   14CHTO   O85 5548   6.117   3.572   2.274  0.1733  0.5845  0.2046
   14CHTO  H206 5549   6.194   3.598   2.226  1.4805 -0.9591  1.4082
   14CHTO  C121 5550   5.813   3.819   2.302  0.2788 -0.3614 -0.4715
   14CHTO  H225 5551   5.762   3.733   2.253  0.8223 -0.6389 -0.5576
   14CHTO   O81 5552   5.756   3.818   2.438  0.0516  0.0853 -0.1577
   14CHTO  H202 5553   5.818   3.840   2.506  2.0073  4.8229 -3.1701
   14CHTO  C119 5554   5.774   3.946   2.226  0.1271 -0.2619  0.1860
   14CHTO  H223 5555   5.821   3.934   2.128  1.2081 -2.6744  0.9839
   14CHTO  C117 5556   5.846   4.074   2.283 -0.8587  0.2713  0.4618
   14CHTO  H221 5557   5.818   4.101   2.385 -1.7628 -2.6414  1.0284
   14CHTO   N20 5558   5.815   4.197   2.195 -0.1936 -0.5306  0.2282
   14CHTO  H209 5559   5.898   4.266   2.200 -0.1229 -0.6623  0.9199
   14CHTO  H210 5560   5.732   4.251   2.238 -0.6359  0.6491 -2.0244
   14CHTO   O80 5561   5.611   3.962   2.185 -0.3841 -0.2694 -0.3578
   14CHTO  C103 5562   5.569   3.957   2.052  0.0341 -0.4648 -0.5121
   14CHTO  H190 5563   5.634   4.026   1.999  0.0955  0.9452  1.3803
   14CHTO  C101 5564   5.560   3.810   1.989  0.4013  0.0740  0.1264
   14CHTO  H188 5565   5.493   3.752   2.053  1.4052 -1.8649 -0.5423
   14CHTO   O68 5566   5.702   3.747   1.995  0.3076 -1.1160 -0.4776
   14CHTO  H168 5567   5.708   3.676   1.933 -1.7405 -1.0730 -0.7503
   14CHTO   C99 5568   5.490   3.826   1.846 -0.4766 -0.4531  0.2602
   14CHTO  H186 5569   5.538   3.896   1.776 -0.0239 -0.5257  0.4979
   14CHTO   N17 5570   5.481   3.701   1.764  0.3365  0.1334 -0.5430
   14CHTO  H174 5571   5.522   3.619   1.822 -3.5331 -1.4519  0.0832
   14CHTO  H175 5572   5.505   3.719   1.661 -0.0681  1.6875 -0.3644
   14CHTO   C97 5573   5.352   3.877   1.871  0.2192 -0.7505 -0.0228
   14CHTO  H184 5574   5.285   3.804   1.919  0.6828 -0.8834  0.4380
   14CHTO   O64 5575   5.353   4.002   1.939 -0.1774 -0.1134 -0.3097
   14CHTO  C104 5576   5.422   4.014   2.062  0.5315  0.2620 -0.7303
   14CHTO  H191 5577   5.374   3.966   2.148  2.8443 -0.8940 -0.0230
   14CHTO  C108 5578   5.420   4.160   2.098 -0.2532  0.2297 -0.6917
   14CHTO   O71 5579   5.503   4.235   2.011  0.4116  0.7226 -0.8724
   14CHTO  H171 5580   5.471   4.259   1.926 -0.6348  1.8586 -0.1787
   14CHTO   O62 5581   5.294   3.928   1.749 -0.0340 -0.1214  0.2247
   14CHTO   C91 5582   5.153   3.944   1.743 -0.9413 -0.0220 -0.0500
   14CHTO  H178 5583   5.103   3.858   1.786  0.1400 -1.1615 -1.0515
   14CHTO   C92 5584   5.111   3.952   1.595  0.3244  0.0853  1.1068
   14CHTO  H179 5585   5.147   3.862   1.544  0.2757 -1.5284  3.8212
   14CHTO   O66 5586   4.970   3.930   1.592 -0.0980  0.2262 -0.0883
   14CHTO  H166 5587   4.949   3.872   1.522 -1.1548  0.5923 -0.0856
   14CHTO   C93 5588   5.137   4.096   1.531 -0.6284  0.4107  0.1139
   14CHTO  H180 5589   5.084   4.087   1.436  0.7290 -1.1678 -0.5243
   14CHTO   N16 5590   5.277   4.116   1.496 -0.5090 -0.0214  0.0213
   14CHTO  H172 5591   5.306   4.039   1.427  0.6236 -1.2327  1.8128
   14CHTO  H173 5592   5.299   4.212   1.452  2.8380 -1.0812 -0.7337
   14CHTO   C94 5593   5.079   4.217   1.617  0.4352  0.0523  0.3635
   14CHTO  H181 5594   5.159   4.284   1.652  0.4239  1.8442 -2.8290
   14CHTO   O61 5595   5.015   4.163   1.738  0.3777 -0.0559  0.1871
   14CHTO   C95 5596   5.087   4.075   1.824  0.2448 -0.0280 -0.0769
   14CHTO  H182 5597   5.162   4.134   1.877  0.7613  0.9000 -1.7988
   14CHTO  C106 5598   4.988   4.035   1.943  0.3277 -0.4349  0.2575
   14CHTO   O69 5599   5.063   3.935   2.024 -0.4195 -0.3696  0.8498
   14CHTO  H169 5600   5.005   3.862   2.029 -0.3269 -0.4245  1.0996
   14CHTO   O63 5601   4.975   4.293   1.540  0.0107 -0.3196  0.7452
   14CHTO   C96 5602   4.986   4.473   1.543 -0.5438 -0.3272  0.3861
   14CHTO  H183 5603   4.896   4.516   1.499 -0.3516  1.2878  1.5034
   14CHTO   C98 5604   5.110   4.527   1.472  0.1232  1.0659 -0.0039
   14CHTO  H185 5605   5.201   4.469   1.498  0.4093  1.5831  0.1593
   14CHTO   O67 5606   5.085   4.496   1.334  0.4704 -0.2339  0.8882
   14CHTO  H167 5607   5.158   4.465   1.285 -0.6061 -0.2457 -0.7719
   14CHTO  C102 5608   5.144   4.679   1.495 -0.0485  0.5332  0.7792
   14CHTO  H189 5609   5.069   4.734   1.436  0.3597  2.1145  1.6771
   14CHTO   N18 5610   5.277   4.715   1.437  0.0357 -0.2693  0.3362
   14CHTO  H176 5611   5.286   4.798   1.368  2.7118 -2.5438 -2.1763
   14CHTO  H177 5612   5.361   4.711   1.504  0.7260  4.0334 -0.1063
   14CHTO  C105 5613   5.126   4.714   1.646 -0.7714 -0.3651 -0.0580
   14CHTO  H192 5614   5.207   4.671   1.705 -0.6214 -0.0218 -0.0139
   14CHTO   O65 5615   5.006   4.657   1.702  0.3090 -0.0946 -0.3490
   14CHTO  C100 5616   4.974   4.522   1.690  0.3162  0.1552  0.2221
   14CHTO  H187 5617   5.054   4.470   1.746  0.4472 -1.7057 -1.6275
   14CHTO  C107 5618   4.837   4.497   1.760 -0.1025  0.2527 -1.0349
   14CHTO   O70 5619   4.839   4.385   1.843 -0.3701 -0.2151 -0.2237
   14CHTO  H170 5620   4.752   4.372   1.876  0.3659  0.1731  1.8897
   14CHTO   O57 5621   5.136   4.865   1.655 -0.3899 -0.0069  0.0429
   14CHTO   C85 5622   5.036   4.946   1.718 -0.1553  0.2801 -0.8182
   14CHTO  H157 5623   4.944   4.884   1.725 -0.6870  1.2121  0.9614
   14CHTO   C83 5624   5.017   5.067   1.618  0.0245 -0.3080  0.0221
   14CHTO  H155 5625   4.971   5.028   1.528 -1.5436 -0.0927  0.7147
   14CHTO   O56 5626   5.146   5.122   1.583  0.3446 -0.0958  0.0781
   14CHTO  H135 5627   5.179   5.185   1.644  0.2071  0.3801 -0.3297
   14CHTO   C81 5628   4.925   5.172   1.680 -0.1372 -0.2324 -0.1090
   14CHTO  H153 5629   4.832   5.126   1.712  0.1031  0.4312  1.5818
   14CHTO   N14 5630   4.877   5.287   1.593 -0.7351 -0.4804  0.6064
   14CHTO  H141 5631   4.850   5.264   1.493  2.7330  1.4360 -0.8537
   14CHTO  H142 5632   4.792   5.328   1.644 -0.7694  4.1652 -2.8445
   14CHTO   C79 5633   4.992   5.232   1.807  0.3012  0.5428 -0.4535
   14CHTO  H151 5634   4.920   5.303   1.848 -0.3634  1.5469 -3.2742
   14CHTO   O52 5635   5.011   5.125   1.903 -0.3839  0.2766  0.4809
   14CHTO   C86 5636   5.081   5.004   1.860 -0.1572  0.3400 -0.1148
   14CHTO  H158 5637   5.186   5.037   1.847 -0.3745  0.3692 -2.0007
   14CHTO   C90 5638   5.068   4.896   1.964 -0.4759  0.3480 -0.0164
   14CHTO   O60 5639   5.140   4.776   1.956  0.2594  0.1832 -0.0049
   14CHTO  H138 5640   5.233   4.789   1.952 -0.0205  1.6866 -3.2220
   14CHTO   O50 5641   5.118   5.303   1.774  0.2699 -0.2177  0.3365
   14CHTO   C73 5642   5.136   5.437   1.828  0.1110 -0.6562 -0.2307
   14CHTO  H145 5643   5.065   5.458   1.909  0.7728 -1.5191  0.5890
   14CHTO   C74 5644   5.121   5.542   1.710  0.2068  0.2261  0.2513
   14CHTO  H146 5645   5.024   5.521   1.662 -0.5457  1.5028  1.1549
   14CHTO   O54 5646   5.112   5.670   1.774  0.3911 -0.8013  0.2025
   14CHTO  H133 5647   5.052   5.665   1.846  1.3332 -0.5777  1.0134
   14CHTO   C75 5648   5.234   5.534   1.606 -0.6723  0.3583  0.5913
   14CHTO  H147 5649   5.219   5.439   1.554 -1.4218  0.2072  1.0844
   14CHTO   N13 5650   5.232   5.648   1.505  0.4649  0.4846  0.1280
   14CHTO  H139 5651   5.134   5.693   1.516  0.6151  0.7451  0.4016
   14CHTO  H140 5652   5.250   5.605   1.408 -1.0672  0.5776 -0.2130
   14CHTO   C76 5653   5.378   5.531   1.680 -0.0968  0.3717  0.7395
   14CHTO  H148 5654   5.398   5.630   1.720 -0.5113  0.4501  0.7604
   14CHTO   O49 5655   5.372   5.423   1.780 -0.8940 -0.0061  0.0905
   14CHTO   C77 5656   5.284   5.448   1.891 -0.6387  0.2954  0.4348
   14CHTO  H149 5657   5.308   5.544   1.937 -0.2248  0.2521  0.3188
   14CHTO   C88 5658   5.287   5.342   2.005  0.3061  0.0329  0.5181
   14CHTO   O58 5659   5.430   5.349   2.085  0.1647  0.2189  0.4767
   14CHTO  H136 5660   5.452   5.265   2.121 -0.5708 -0.2450 -0.1462
   14CHTO   O51 5661   5.489   5.489   1.559 -0.1907 -0.3099 -0.3537
   14CHTO   C78 5662   5.643   5.558   1.598  0.1900 -0.1412  0.0661
   14CHTO  H150 5663   5.663   5.595   1.701  0.6378 -0.0190 -0.0675
   14CHTO   C80 5664   5.681   5.672   1.493 -0.1365 -0.3892  0.6827
   14CHTO  H152 5665   5.694   5.628   1.392 -1.9074  0.1968  0.2008
   14CHTO   O55 5666   5.583   5.776   1.504  0.6819 -0.4213  0.0215
   14CHTO  H134 5667   5.547   5.801   1.421  0.4288 -0.5369  0.0966
   14CHTO   C84 5668   5.828   5.726   1.530 -0.0834 -0.2725 -0.0640
   14CHTO  H156 5669   5.837   5.739   1.637 -0.3562  0.3652 -0.1156
   14CHTO   N15 5670   5.882   5.842   1.452  0.3992  0.5008  0.3114
   14CHTO  H143 5671   5.968   5.811   1.397  1.0538 -0.1055  1.6632
   14CHTO  H144 5672   5.911   5.919   1.521 -2.0042  0.2364  1.6654
   14CHTO   C87 5673   5.927   5.608   1.528  0.6041 -0.2087 -0.5581
   14CHTO  H159 5674   5.939   5.566   1.428  1.1525 -3.2588  0.7475
   14CHTO   O53 5675   5.873   5.489   1.614 -0.4166  0.2894 -0.4247
   14CHTO   C82 5676   5.739   5.445   1.585 -0.2376 -0.4589 -0.0928
   14CHTO  H154 5677   5.728   5.408   1.483 -2.2736 -0.1274 -0.0121
   14CHTO   C89 5678   5.707   5.327   1.684  0.2528  0.1640 -0.3557
   14CHTO   O59 5679   5.691   5.374   1.819 -0.1145  0.6406 -0.2884
   14CHTO  H137 5680   5.605   5.403   1.843  0.2885  0.8890  0.8961
   14CHTO   O45 5681   6.073   5.641   1.595 -0.3034 -0.3820 -0.3364
   14CHTO   C67 5682   6.179   5.544   1.583 -0.0397  0.5005 -0.2419
   14CHTO  H124 5683   6.137   5.449   1.616  0.7096  0.2385 -0.0294
   14CHTO   C65 5684   6.226   5.525   1.438  0.6534 -0.3429  0.0886
   14CHTO  H122 5685   6.134   5.515   1.382  1.1641 -0.4234 -0.7462
   14CHTO   O44 5686   6.299   5.402   1.427 -0.1309  0.7711  0.4732
   14CHTO  H102 5687   6.248   5.337   1.383 -0.3058  2.2185 -1.5579
   14CHTO   C63 5688   6.304   5.649   1.390  0.1889  0.2954  0.1895
   14CHTO  H120 5689   6.241   5.738   1.389  2.3753  1.9179  1.0545
   14CHTO   N11 5690   6.349   5.647   1.241  0.0291  0.1456 -0.0298
   14CHTO  H108 5691   6.319   5.730   1.180  2.3355  1.2797  0.3391
   14CHTO  H109 5692   6.326   5.558   1.187 -2.3128  0.9828 -0.5088
   14CHTO   C61 5693   6.428   5.676   1.484  0.7589 -0.0876  0.4939
   14CHTO  H118 5694   6.462   5.777   1.455 -2.4854  1.0429  0.3910
   14CHTO   O40 5695   6.376   5.691   1.622 -0.4238 -0.5010  0.1972
   14CHTO   C68 5696   6.302   5.577   1.679  0.4217  0.2004 -0.2152
   14CHTO  H125 5697   6.269   5.625   1.773  1.8361  1.0602 -0.1333
   14CHTO   C72 5698   6.395   5.455   1.724  0.5549  0.2307 -0.6324
   14CHTO   O48 5699   6.495   5.492   1.825  0.2881 -0.0060 -0.2373
   14CHTO  H105 5700   6.575   5.521   1.784 -0.0070 -0.0457 -0.8442
   14CHTO   O38 5701   6.533   5.575   1.495  0.1455  0.0608 -0.2497
   14CHTO   C55 5702   6.666   5.608   1.452 -0.4307  0.5360 -0.2111
   14CHTO  H112 5703   6.662   5.701   1.392 -0.4711 -0.8793 -2.4667
   14CHTO   C56 5704   6.714   5.485   1.360  0.1063 -0.1552  0.0335
   14CHTO  H113 5705   6.714   5.407   1.437  0.9196  0.7242  0.9351
   14CHTO   O42 5706   6.629   5.453   1.248 -0.4891 -0.3146  0.4881
   14CHTO  H100 5707   6.655   5.510   1.178 -0.7661 -0.4819  0.2507
   14CHTO   C57 5708   6.863   5.494   1.315 -0.9223  1.0014 -0.4461
   14CHTO  H114 5709   6.862   5.560   1.228 -0.9259 -0.5528 -1.6553
   14CHTO   N10 5710   6.926   5.366   1.261 -0.6138  0.0261  0.6146
   14CHTO  H106 5711   6.979   5.317   1.342  0.4162  1.5215  0.8873
   14CHTO  H107 5712   6.856   5.304   1.208 -0.5463  0.8681 -0.4823
   14CHTO   C58 5713   6.954   5.550   1.434 -1.0029 -0.0153 -0.0032
   14CHTO  H115 5714   6.975   5.470   1.508  0.8398  1.0498  0.6670
   14CHTO   O37 5715   6.887   5.661   1.501 -0.1064 -0.0436  0.1308
   14CHTO   C59 5716   6.767   5.633   1.571  0.1390 -0.6320 -0.1884
   14CHTO  H116 5717   6.765   5.543   1.633  0.1871  1.4204  2.9251
   14CHTO   C70 5718   6.739   5.762   1.648  0.0730  0.4833 -0.4911
   14CHTO   O46 5719   6.622   5.749   1.728  0.4698  0.5192 -0.1951
   14CHTO  H103 5720   6.551   5.732   1.669 -0.0291 -0.1300  0.5814
   14CHTO   O39 5721   7.089   5.603   1.381  0.4851  0.4547 -0.3369
   14CHTO   C60 5722   7.192   5.630   1.479 -0.0186 -0.0219 -0.3119
   14CHTO  H117 5723   7.148   5.660   1.574 -0.0614  2.0901 -0.9863
   14CHTO   C62 5724   7.282   5.504   1.509 -1.3878 -0.6864 -0.8084
   14CHTO  H119 5725   7.223   5.420   1.550  0.2843 -1.2071  0.5975
   14CHTO   O43 5726   7.318   5.446   1.382 -0.1556  0.0471 -0.0868
   14CHTO  H101 5727   7.374   5.373   1.401 -2.4769 -1.7484  0.0788
   14CHTO   C66 5728   7.417   5.533   1.603  0.0094 -0.4716  0.3672
   14CHTO  H123 5729   7.382   5.568   1.700 -2.4387 -2.7461  0.3898
   14CHTO   N12 5730   7.505   5.411   1.618  0.1816  0.3320  0.5758
   14CHTO  H110 5731   7.463   5.345   1.693  0.9440  0.3850  1.0532
   14CHTO  H111 5732   7.609   5.435   1.632  0.5819 -1.1274  0.0958
   14CHTO   C69 5733   7.505   5.648   1.550  0.5303  0.0389 -0.1831
   14CHTO  H126 5734   7.570   5.609   1.470  1.5336  1.3393 -0.0167
   14CHTO   O41 5735   7.416   5.782   1.498 -0.1021  0.2977 -0.1359
   14CHTO   C64 5736   7.267   5.753   1.422 -0.4068  0.5884  0.2427
   14CHTO  H121 5737   7.282   5.741   1.313  2.0563 -0.6870  0.6831
   14CHTO   C71 5738   7.173   5.883   1.438 -0.0969  0.3017  0.2469
   14CHTO   O47 5739   7.236   5.993   1.381  0.4932  0.3968  0.5003
   14CHTO  H104 5740   7.181   6.066   1.399 -1.0443 -0.4342 -0.7727
   14CHTO   O34 5741   7.585   5.692   1.656 -0.2512  0.0735 -0.3444
   14CHTO   C49 5742   7.717   5.758   1.623  0.4542 -0.2710  0.2670
   14CHTO   H91 5743   7.775   5.700   1.551 -0.5369 -1.9628  0.7873
   14CHTO   C47 5744   7.812   5.763   1.747  0.0723  0.1341  0.7114
   14CHTO   H89 5745   7.907   5.812   1.717 -1.5871  1.2184 -3.0540
   14CHTO   O33 5746   7.829   5.630   1.799 -0.4316  0.2774  0.1027
   14CHTO   H70 5747   7.856   5.632   1.889  1.0367 -0.1315 -0.3000
   14CHTO   C45 5748   7.751   5.852   1.873  0.5307 -0.6218  0.0312
   14CHTO   H87 5749   7.690   5.792   1.942  0.1742  1.8984  1.9906
   14CHTO    N8 5750   7.855   5.915   1.956  0.1164 -0.0468 -0.4486
   14CHTO   H75 5751   7.927   5.843   1.992  0.8405  0.4169 -0.9742
   14CHTO   H76 5752   7.913   5.993   1.910 -1.6333  1.9402  0.6112
   14CHTO   C43 5753   7.646   5.958   1.810 -0.2591 -0.1851 -0.1748
   14CHTO   H85 5754   7.554   5.902   1.793 -0.3382 -0.3259  0.6986
   14CHTO   O29 5755   7.701   6.003   1.687  0.4663 -0.6058 -0.1645
   14CHTO   C50 5756   7.705   5.911   1.580  0.5395 -0.2956 -0.1997
   14CHTO   H92 5757   7.610   5.930   1.527  1.7455  0.2434 -2.1978
   14CHTO   C54 5758   7.810   5.959   1.476 -0.1582  0.6156  0.4598
   14CHTO   O36 5759   7.815   5.868   1.368 -0.4259 -0.1245  0.2152
   14CHTO   H72 5760   7.814   5.778   1.393  2.5124 -0.3027 -0.1680
   14CHTO   O27 5761   7.604   6.069   1.891 -0.1421  0.1381 -0.1756
   14CHTO   C37 5762   7.499   6.125   1.974 -0.1651 -0.0735  0.4864
   14CHTO   H79 5763   7.535   6.196   2.050 -0.1568  1.6115 -1.0634
   14CHTO   C38 5764   7.407   6.208   1.881 -0.8949  0.0202 -0.0677
   14CHTO   H80 5765   7.391   6.150   1.790 -1.1512  0.0528 -0.0432
   14CHTO   O31 5766   7.481   6.331   1.856 -0.2693  0.3528 -0.6441
   14CHTO   H68 5767   7.474   6.353   1.765 -1.1176 -0.9431 -0.9104
   14CHTO   C39 5768   7.270   6.249   1.953 -0.2802 -0.3672  0.5929
   14CHTO   H81 5769   7.297   6.319   2.032 -0.2697  0.3866 -0.0681
   14CHTO    N7 5770   7.172   6.328   1.865 -0.1094  0.7617 -0.2355
   14CHTO   H73 5771   7.073   6.332   1.907  0.5283 -1.6094  1.6528
   14CHTO   H74 5772   7.214   6.415   1.816  0.4680  0.3590 -0.4626
   14CHTO   C40 5773   7.203   6.125   2.017  0.8403 -0.7228 -0.0961
   14CHTO   H82 5774   7.167   6.048   1.949  2.1412 -0.5340 -1.0079
   14CHTO   O26 5775   7.298   6.072   2.108 -0.2993  0.7881 -0.1156
   14CHTO   C41 5776   7.423   6.016   2.042  0.7997 -0.7305  0.5946
   14CHTO   H83 5777   7.378   5.957   1.961  0.4054  1.7373 -1.0678
   14CHTO   C52 5778   7.507   5.933   2.142  0.1381 -0.1643  0.7947
   14CHTO   O35 5779   7.437   5.810   2.156  0.2636  0.3224 -0.1702
   14CHTO   H71 5780   7.458   5.767   2.236  1.5526 -0.6382 -0.9984
   14CHTO   O28 5781   7.098   6.163   2.114 -0.1522  0.0617  0.0365
   14CHTO   C42 5782   6.975   6.092   2.136 -0.1635 -0.1039 -0.2104
   14CHTO   H84 5783   6.944   6.133   2.232 -1.8701  1.7460 -1.5166
   14CHTO   C44 5784   6.990   5.939   2.158 -0.3068  0.5870  0.4736
   14CHTO   H86 5785   7.036   5.895   2.070  2.8256  1.9855  1.3308
   14CHTO   O32 5786   7.088   5.917   2.261  1.0678  0.4694 -0.3374
   14CHTO   H69 5787   7.172   5.900   2.223  0.8598  0.1040 -0.6370
   14CHTO   C48 5788   6.857   5.864   2.200 -0.8135  0.0962 -0.3840
   14CHTO   H90 5789   6.833   5.878   2.306  0.0666 -2.8271  0.2343
   14CHTO    N9 5790   6.863   5.712   2.190  0.8452 -0.0348 -0.3752
   14CHTO   H77 5791   6.946   5.683   2.252  0.0865  2.3083  1.8150
   14CHTO   H78 5792   6.892   5.680   2.091  2.9281 -2.0107  0.8377
   14CHTO   C51 5793   6.730   5.916   2.117  0.1590  0.2525  0.0941
   14CHTO   H93 5794   6.740   5.874   2.017 -0.8471 -0.5629  0.3314
   14CHTO   O30 5795   6.730   6.062   2.114  0.1562 -0.2624 -0.4910
   14CHTO   C46 5796   6.859   6.117   2.039  0.2254 -0.7716 -0.2135
   14CHTO   H88 5797   6.877   6.054   1.953 -0.6114 -1.1578 -0.1066
   14CHTO   C53 5798   6.842   6.263   2.007 -0.0833  0.0250  0.6559
   14CHTO   O72 5799   6.722   6.302   1.937  0.0013 -0.5684 -0.3464
   14CHTO  H199 5800   6.708   6.391   1.964 -0.1880 -0.8618  0.5418
   14CHTO   O22 5801   6.610   5.876   2.175 -0.2685  0.6136 -0.0928
   14CHTO   C31 5802   6.503   5.807   2.104  0.8413 -0.4344  0.2117
   14CHTO   H59 5803   6.552   5.754   2.020 -1.1862  0.2989 -1.4686
   14CHTO   C29 5804   6.429   5.706   2.193 -0.4068  0.0095  0.1768
   14CHTO   H57 5805   6.376   5.762   2.271 -0.2830  0.3899 -0.0134
   14CHTO   O21 5806   6.526   5.622   2.259 -0.0427 -0.3798 -0.1629
   14CHTO   H37 5807   6.474   5.568   2.315 -1.4047  0.3231 -0.7251
   14CHTO   C27 5808   6.322   5.628   2.109 -0.1103  0.3802 -0.5268
   14CHTO   H55 5809   6.371   5.574   2.027 -1.2686 -0.8908 -0.4081
   14CHTO    N5 5810   6.238   5.525   2.186 -0.0313  0.4745  0.1639
   14CHTO   H43 5811   6.260   5.518   2.291  0.4063 -2.3562 -0.0557
   14CHTO   H44 5812   6.234   5.430   2.134 -0.0185  0.5691 -0.0078
   14CHTO   C25 5813   6.227   5.731   2.045 -0.2125  0.0576  0.3324
   14CHTO   H53 5814   6.197   5.799   2.127 -1.2394  0.5742 -0.4629
   14CHTO   O17 5815   6.308   5.815   1.959 -0.4787  0.0208  0.8432
   14CHTO   C32 5816   6.400   5.901   2.033 -0.6954 -0.5726  0.1027
   14CHTO   H60 5817   6.337   5.952   2.106  1.0035  0.7551  0.6686
   14CHTO   C36 5818   6.475   5.992   1.929 -0.3980 -0.4087  0.6099
   14CHTO   O25 5819   6.403   6.110   1.884  0.3664 -0.5073  0.0651
   14CHTO   H40 5820   6.464   6.156   1.830 -1.8403  1.8667 -0.5289
   14CHTO   O15 5821   6.107   5.676   1.961 -0.3467  0.4098 -0.3949
   14CHTO   C19 5822   5.969   5.710   1.944  0.5322  0.9121  0.0245
   14CHTO   H47 5823   5.946   5.666   1.846 -0.0446 -0.5528  0.7925
   14CHTO   C20 5824   5.874   5.646   2.055  0.0761 -0.0999 -0.2369
   14CHTO   H48 5825   5.908   5.676   2.155 -0.8617  0.7944 -0.1839
   14CHTO   O19 5826   5.894   5.507   2.037  0.1089 -0.0740  0.4498
   14CHTO   H35 5827   5.973   5.473   1.999 -0.1957  1.3379 -1.4556
   14CHTO   C21 5828   5.721   5.686   2.033 -0.0852  0.6393 -0.3081
   14CHTO   H49 5829   5.695   5.650   1.933  0.7617  0.7278 -0.5711
   14CHTO    N4 5830   5.630   5.622   2.127 -0.5051 -0.3813  0.3233
   14CHTO   H41 5831   5.646   5.517   2.147  2.1430  0.1574  1.1855
   14CHTO   H42 5832   5.526   5.645   2.109 -0.3811  2.2094  2.6558
   14CHTO   C22 5833   5.728   5.845   2.036 -0.1450  0.4986  0.2340
   14CHTO   H50 5834   5.775   5.871   2.130  0.1252 -2.2618  0.9075
   14CHTO   O14 5835   5.805   5.892   1.927  0.6154 -0.1719 -0.3917
   14CHTO   C23 5836   5.941   5.863   1.941  1.1305  0.2477 -0.1264
   14CHTO   H51 5837   5.977   5.915   2.031 -1.9006  1.9413  0.1786
   14CHTO   C34 5838   6.002   5.921   1.816  0.0535 -0.8458 -0.4439
   14CHTO   O23 5839   5.995   6.066   1.820  0.0115  0.2491 -0.2432
   14CHTO   H38 5840   6.037   6.113   1.751 -1.1180  1.8656  0.1464
   14CHTO   O16 5841   5.590   5.896   2.011  0.1517  0.2419  0.5044
   14CHTO   C24 5842   5.569   6.051   1.962  0.1482 -0.3338  0.4870
   14CHTO   H52 5843   5.621   6.073   1.869  0.2752  1.1584  0.9099
   14CHTO   C26 5844   5.603   6.158   2.075  0.1844  0.7894 -0.0548
   14CHTO   H54 5845   5.572   6.119   2.174  1.6249  0.0039  0.0934
   14CHTO   O20 5846   5.750   6.166   2.081 -0.1148 -0.1837 -0.2020
   14CHTO   H36 5847   5.770   6.174   2.173 -0.0099 -0.9171 -0.1590
   14CHTO   C30 5848   5.542   6.301   2.053 -0.1629  0.2633 -0.1362
   14CHTO   H58 5849   5.608   6.352   1.982  0.3931  0.0077  0.1939
   14CHTO    N6 5850   5.553   6.387   2.175 -0.0313 -0.5495 -0.0948
   14CHTO   H45 5851   5.654   6.407   2.210  0.3048 -1.1121 -0.7244
   14CHTO   H46 5852   5.501   6.340   2.257 -0.1449 -1.1956 -0.5293
   14CHTO   C33 5853   5.395   6.293   1.994  0.0093 -0.3474  0.0087
   14CHTO   H61 5854   5.321   6.266   2.070  1.1524 -2.1519  0.4935
   14CHTO   O18 5855   5.383   6.190   1.889 -0.5759  0.4907 -0.4499
   14CHTO   C28 5856   5.414   6.059   1.933 -0.1011  0.3107 -0.0323
   14CHTO   H56 5857   5.370   6.046   2.032 -1.7218 -1.0043 -0.8839
   14CHTO   C35 5858   5.367   5.952   1.831  0.3051  0.4358  0.1803
   14CHTO   O24 5859   5.439   5.965   1.705 -0.2638  0.3472 -0.2464
   14CHTO   H39 5860   5.531   5.964   1.723 -0.5979 -1.0155  1.5587
   14CHTO    O9 5861   5.354   6.418   1.944  0.4262  0.2994 -0.0196
   14CHTO   C13 5862   5.256   6.516   2.025  0.0066 -0.1366  0.9776
   14CHTO   H26 5863   5.264   6.492   2.133  0.5567 -0.7804  0.7971
   14CHTO   C11 5864   5.108   6.523   1.977 -0.0299  0.6499  0.1930
   14CHTO   H24 5865   5.072   6.419   1.979 -0.6995  0.8890  1.0901
   14CHTO    O8 5866   5.101   6.555   1.836  0.5300 -0.6982 -0.6728
   14CHTO    H3 5867   5.016   6.591   1.825  0.6974 -0.0383  0.1061
   14CHTO    C9 5868   5.034   6.606   2.080 -0.2186  0.2521 -0.2007
   14CHTO   H22 5869   5.054   6.566   2.181 -3.6588  2.3447  1.4138
   14CHTO    N2 5870   4.891   6.596   2.079 -0.2132 -0.4086  0.2587
   14CHTO   H10 5871   4.863   6.562   1.980  0.7900  2.2754 -1.0103
   14CHTO   H11 5872   4.855   6.531   2.157 -0.4143 -0.5269  0.0709
   14CHTO    C7 5873   5.098   6.754   2.070  0.2763 -0.8985  0.2420
   14CHTO   H20 5874   5.123   6.774   2.177 -1.6360 -1.0419  0.7271
   14CHTO    O4 5875   5.219   6.763   1.989  0.0142  0.4926  0.3511
   14CHTO   C14 5876   5.319   6.668   2.014 -0.2393  0.0315  0.1113
   14CHTO   H27 5877   5.376   6.681   2.108 -0.5368 -0.9753  0.4329
   14CHTO   C18 5878   5.423   6.683   1.900  0.1570 -0.3794  0.5308
   14CHTO   O13 5879   5.539   6.616   1.936 -0.5942 -0.0046  0.3860
   14CHTO    H7 5880   5.519   6.528   1.961 -0.3765 -0.0631  0.3524
   14CHTO    O2 5881   4.980   6.875   2.011 -0.3029 -0.0862  0.7094
   14CHTO    C1 5882   4.997   7.012   2.055  0.2761 -0.5368 -0.0663
   14CHTO   H14 5883   4.962   7.071   1.968  0.1811  1.1716  1.1117
   14CHTO    C2 5884   5.151   7.053   2.084 -0.3437  0.1929  0.3960
   14CHTO   H15 5885   5.180   6.999   2.175  2.5576  1.1479  0.0763
   14CHTO    O6 5886   5.237   7.035   1.968 -0.0540 -0.2633  0.1996
   14CHTO    H1 5887   5.317   7.083   1.980  0.0374 -0.7078  1.5073
   14CHTO    C3 5888   5.149   7.214   2.124 -0.1877 -0.4641  0.4396
   14CHTO   H16 5889   5.114   7.269   2.035 -2.3398 -1.3302  0.7327
   14CHTO    N1 5890   5.296   7.255   2.153  0.0686 -0.1533  0.3664
   14CHTO    H8 5891   5.303   7.346   2.096  0.0268 -0.7335 -0.5630
   14CHTO    H9 5892   5.306   7.267   2.260 -2.1617  1.2681  0.4521
   14CHTO    C4 5893   5.051   7.244   2.240 -0.4201 -1.0374 -0.0891
   14CHTO   H17 5894   5.091   7.195   2.329 -1.7261 -0.3240  0.9058
   14CHTO    O1 5895   4.919   7.193   2.204  0.2032  0.2149 -0.1022
   14CHTO    C5 5896   4.918   7.047   2.182  0.3347 -0.0287  0.8489
   14CHTO   H18 5897   4.964   6.997   2.267 -0.8965 -1.2886  0.7861
   14CHTO   C16 5898   4.770   7.006   2.179  0.1686  0.3014  0.3205
   14CHTO   O11 5899   4.692   7.014   2.305 -0.2409 -0.4068 -0.2622
   14CHTO    H5 5900   4.635   7.088   2.294  1.0112  0.4627 -0.9962
   14CHTO    O3 5901   5.021   7.381   2.268 -0.5169  0.6399 -0.0010
   14CHTO    C6 5902   5.004   7.425   2.404  0.0463  0.6582  0.1093
   14CHTO   H19 5903   5.014   7.346   2.479 -1.7650 -2.1119 -2.4228
   14CHTO    C8 5904   5.114   7.533   2.420  0.2664  0.2215 -0.5017
   14CHTO   H21 5905   5.098   7.609   2.344  1.1609  2.1608  1.2193
   14CHTO    O7 5906   5.244   7.479   2.403 -0.1296 -0.3135  0.3044
   14CHTO    H2 5907   5.244   7.388   2.425 -0.9149  0.0550  1.9045
   14CHTO   C12 5908   5.097   7.613   2.557 -0.6362 -0.8871 -0.3799
   14CHTO   H25 5909   5.135   7.542   2.633  2.3031  1.3590  0.3407
   14CHTO    N3 5910   5.174   7.736   2.564  0.0588 -0.3244 -0.0396
   14CHTO   H12 5911   5.236   7.745   2.476 -0.0601 -1.8959 -0.2874
   14CHTO   H13 5912   5.227   7.741   2.658 -1.6676 -0.2937  0.9599
   14CHTO   C15 5913   4.942   7.648   2.582 -0.8836 -0.2040  0.0101
   14CHTO   H28 5914   4.917   7.733   2.518  0.4983 -0.4504 -0.8644
   14CHTO   O10 5915   4.914   7.693   2.734 -0.1330 -0.3064  0.1602
   14CHTO    H4 5916   4.827   7.727   2.738  0.2804  0.9170 -1.0464
   14CHTO    O5 5917   4.851   7.543   2.557  0.0582 -0.1953  0.7570
   14CHTO   C10 5918   4.866   7.489   2.425  0.3782  0.3271  0.6101
   14CHTO   H23 5919   4.860   7.562   2.344 -0.7799  1.4794  1.7167
   14CHTO   C17 5920   4.752   7.389   2.391 -0.1526 -0.3370  0.7311
   14CHTO   O12 5921   4.630   7.455   2.366  0.2998 -0.2842 -0.2634
   14CHTO    H6 5922   4.594   7.473   2.450 -1.7602 -1.9904 -0.7334
   15CHTO  H203 5923   7.859   4.574   2.112  1.1308  0.6402 -0.3056
   15CHTO   O82 5924   7.788   4.634   2.101  0.0222 -0.6010 -0.0646
   15CHTO  C123 5925   7.693   4.554   2.020 -0.3648  0.1224 -0.2922
   15CHTO  H227 5926   7.683   4.453   2.063  2.9711  0.9683  2.8111
   15CHTO   O77 5927   7.576   4.635   2.045 -0.3885  0.3201  0.3887
   15CHTO  C118 5928   7.457   4.592   1.980  0.2456 -0.1566  0.2014
   15CHTO  H222 5929   7.436   4.492   2.021 -0.0578  1.9471  5.6042
   15CHTO  C125 5930   7.336   4.691   2.026  0.5154 -0.0000  0.4103
   15CHTO   O84 5931   7.318   4.705   2.167  0.3994  0.3910  0.0699
   15CHTO  H205 5932   7.227   4.707   2.191  0.2314  1.7838 -0.6564
   15CHTO  C114 5933   7.470   4.583   1.829 -0.4108 -0.8476  0.0675
   15CHTO  H218 5934   7.488   4.683   1.789 -1.3209 -0.0192  1.7008
   15CHTO  C116 5935   7.598   4.500   1.789  0.4797  0.2874  0.6867
   15CHTO  H220 5936   7.573   4.393   1.806  0.9577  0.4919  2.8810
   15CHTO   O79 5937   7.614   4.527   1.652  0.3967  0.1189  0.2282
   15CHTO  H201 5938   7.671   4.466   1.611 -0.8492 -0.6936 -0.3392
   15CHTO  C120 5939   7.730   4.549   1.866  0.2944  0.0608 -0.0111
   15CHTO  H224 5940   7.752   4.652   1.829 -0.3119  0.4323  0.6275
   15CHTO   N21 5941   7.844   4.460   1.830 -0.8174  0.4558 -0.2928
   15CHTO  H211 5942   7.813   4.363   1.795 -0.2795  0.2569 -0.2293
   15CHTO  H212 5943   7.906   4.505   1.754 -0.1207 -0.3589 -0.2174
   15CHTO   O75 5944   7.342   4.544   1.773  0.3224 -0.2259 -1.3162
   15CHTO  C112 5945   7.296   4.392   1.778  0.3164 -0.0679 -0.0718
   15CHTO  H216 5946   7.321   4.358   1.880  2.1387  1.6923  0.1019
   15CHTO   O73 5947   7.365   4.316   1.676  0.6987 -0.0546 -0.5648
   15CHTO  C113 5948   7.340   4.173   1.699  0.2538 -0.2200  0.2550
   15CHTO  H217 5949   7.373   4.139   1.800  1.7226  2.2586  0.6638
   15CHTO  C124 5950   7.439   4.102   1.603  0.8069 -0.2293 -0.1156
   15CHTO   O83 5951   7.446   3.960   1.626 -0.7332 -0.3475  0.1129
   15CHTO  H204 5952   7.378   3.930   1.683 -0.8832 -1.5150 -0.6605
   15CHTO  C109 5953   7.189   4.146   1.663  0.0715  0.9315 -0.2900
   15CHTO  H213 5954   7.177   4.178   1.559  1.6412 -1.3469 -1.1943
   15CHTO  C110 5955   7.098   4.228   1.764  0.1971 -0.4209  0.3416
   15CHTO  H214 5956   7.121   4.192   1.864  2.1941 -2.5443 -0.8248
   15CHTO   O78 5957   6.957   4.205   1.740  0.1532 -0.4192  0.1345
   15CHTO  H200 5958   6.904   4.220   1.815 -0.3971  0.7867 -0.4772
   15CHTO  C111 5959   7.137   4.379   1.753  0.3216  0.4540  0.2438
   15CHTO  H215 5960   7.105   4.407   1.652 -1.2914 -0.7422  0.4113
   15CHTO   N19 5961   7.064   4.462   1.851 -0.5895  0.3931  0.5349
   15CHTO  H207 5962   7.133   4.536   1.888 -1.5451  1.5795 -0.0076
   15CHTO  H208 5963   6.995   4.516   1.787  0.7420  0.4041 -0.9285
   15CHTO   O74 5964   7.178   4.000   1.675 -0.2112 -0.2745  0.5622
   15CHTO  C115 5965   7.076   3.929   1.587  0.0982  0.3642  0.2117
   15CHTO  H219 5966   6.973   3.955   1.612 -0.0981  0.1944 -0.4164
   15CHTO   O76 5967   7.086   3.970   1.450  0.0562  0.0876  0.4084
   15CHTO  C122 5968   7.205   3.925   1.382  0.0636  0.9747 -0.5266
   15CHTO  H226 5969   7.295   3.974   1.419  1.3830 -1.3420 -0.6327
   15CHTO  C126 5970   7.189   3.983   1.239  0.1169 -0.3880 -0.0200
   15CHTO   O85 5971   7.300   3.942   1.156 -0.1554 -0.3795  0.3989
   15CHTO  H206 5972   7.294   3.996   1.080 -0.4581 -0.5918  0.2692
   15CHTO  C121 5973   7.228   3.765   1.395 -0.1409  0.3466  0.7254
   15CHTO  H225 5974   7.232   3.716   1.295 -0.3479 -0.0504  0.9135
   15CHTO   O81 5975   7.362   3.750   1.435 -0.6564 -0.1854  0.6132
   15CHTO  H202 5976   7.389   3.660   1.440  1.1373  0.3171  0.1582
   15CHTO  C119 5977   7.119   3.697   1.484  0.3443 -0.6022  0.4640
   15CHTO  H223 5978   7.034   3.707   1.416 -0.5442 -0.4561  1.5843
   15CHTO  C117 5979   7.095   3.778   1.618 -0.0451  0.4668 -0.0663
   15CHTO  H221 5980   7.188   3.778   1.674  0.2193  1.3601 -0.4925
   15CHTO   N20 5981   6.993   3.719   1.713 -0.1071 -0.2894  0.0684
   15CHTO  H209 5982   6.902   3.743   1.660 -0.0731  1.3176  0.7141
   15CHTO  H210 5983   7.024   3.616   1.718  1.1264  0.0906  0.3560
   15CHTO   O80 5984   7.134   3.539   1.499 -0.2734  0.5942 -0.0602
   15CHTO  C103 5985   7.002   3.449   1.473 -0.3137  0.1128  0.2038
   15CHTO  H190 5986   6.936   3.454   1.560  0.6230  0.4682  0.8990
   15CHTO  C101 5987   6.914   3.482   1.338  0.1929  0.8882  0.1536
   15CHTO  H188 5988   6.990   3.483   1.260  0.5362 -1.8291  0.4061
   15CHTO   O68 5989   6.829   3.607   1.364  0.1406 -0.3522  0.3110
   15CHTO  H168 5990   6.881   3.677   1.399 -3.9234  2.3835  1.2765
   15CHTO   C99 5991   6.811   3.364   1.313 -0.3968  0.4418  0.2424
   15CHTO  H186 5992   6.744   3.356   1.401  0.5742 -3.2092  0.7127
   15CHTO   N17 5993   6.730   3.391   1.188 -0.6247 -0.2174 -0.1005
   15CHTO  H174 5994   6.756   3.484   1.140 -0.9060 -0.3332 -0.4724
   15CHTO  H175 5995   6.626   3.398   1.215 -0.0679 -2.1652  2.8169
   15CHTO   C97 5996   6.891   3.232   1.304  0.1258 -0.1872  0.4340
   15CHTO  H184 5997   6.973   3.253   1.233 -0.4088  1.1842  0.2049
   15CHTO   O64 5998   6.943   3.211   1.437 -0.4051  0.1328  0.1224
   15CHTO  C104 5999   7.053   3.303   1.467  0.6122  0.2605 -0.3996
   15CHTO  H191 6000   7.127   3.293   1.388 -0.3431  0.8577 -1.3820
   15CHTO  C108 6001   7.119   3.260   1.601  0.7174 -0.1159  0.4333
   15CHTO   O71 6002   7.205   3.147   1.589 -0.3912 -0.0856 -0.5004
   15CHTO  H171 6003   7.266   3.142   1.660 -1.4006  1.6960  0.5206
   15CHTO   O62 6004   6.819   3.111   1.262  0.1640 -0.5264  0.1533
   15CHTO   C91 6005   6.881   3.033   1.159 -0.2947 -0.1060 -0.1902
   15CHTO  H178 6006   6.980   3.071   1.134 -0.1951 -0.9699 -1.1572
   15CHTO   C92 6007   6.802   3.053   1.022  0.2707 -0.2127 -0.1858
   15CHTO  H179 6008   6.782   3.161   1.008 -0.1561 -0.2008  0.4936
   15CHTO   O66 6009   6.894   3.021   0.913 -0.1054 -0.5034 -0.3463
   15CHTO  H166 6010   6.847   2.994   0.836  1.1901  0.0505 -1.3400
   15CHTO   C93 6011   6.666   2.966   1.010 -0.3656  0.5124 -0.4941
   15CHTO  H180 6012   6.656   2.948   0.902  0.8057  0.9771 -0.6880
   15CHTO   N16 6013   6.545   3.046   1.041 -0.4193  0.1044 -0.9200
   15CHTO  H172 6014   6.556   3.153   1.047 -1.1928  0.1948 -0.9725
   15CHTO  H173 6015   6.471   3.005   1.108 -0.9705  1.0905 -0.9140
   15CHTO   C94 6016   6.682   2.831   1.096 -0.1790 -0.0133  0.2124
   15CHTO  H181 6017   6.638   2.840   1.195  1.4965 -3.4702  1.3420
   15CHTO   O61 6018   6.821   2.791   1.113 -0.0732  0.3072 -0.7855
   15CHTO   C95 6019   6.904   2.882   1.192  0.9392 -0.1116 -0.5990
   15CHTO  H182 6020   6.878   2.873   1.297  0.4524 -0.9400 -0.7890
   15CHTO  C106 6021   7.049   2.848   1.169 -0.6193 -0.2919 -0.9128
   15CHTO   O69 6022   7.079   2.720   1.199 -0.4297  0.5376 -0.6876
   15CHTO  H169 6023   7.167   2.689   1.199 -1.3306 -2.3872  2.8624
   15CHTO   O63 6024   6.618   2.719   1.002  1.4429  0.3999 -0.4827
   15CHTO   C96 6025   6.592   2.584   1.089 -0.2810  0.5609  0.1269
   15CHTO  H183 6026   6.616   2.605   1.193  0.0682  1.0290 -0.0511
   15CHTO   C98 6027   6.681   2.458   1.043  0.1453  0.1449 -0.1848
   15CHTO  H185 6028   6.675   2.453   0.934  1.1062 -0.9916 -0.1898
   15CHTO   O67 6029   6.816   2.487   1.069 -0.5268  0.4145  0.3763
   15CHTO  H167 6030   6.866   2.409   1.063  1.4112  1.4336  2.5546
   15CHTO  C102 6031   6.637   2.315   1.110 -0.1532  0.3196 -0.0164
   15CHTO  H189 6032   6.669   2.314   1.215  0.9785  1.7603 -0.3440
   15CHTO   N18 6033   6.697   2.200   1.047  0.1288  0.7932 -0.1674
   15CHTO  H176 6034   6.672   2.106   1.095  2.1250  0.6960  0.7300
   15CHTO  H177 6035   6.654   2.189   0.949  0.1853 -0.1018 -0.0977
   15CHTO  C105 6036   6.477   2.309   1.104  1.2247  0.3183  0.2514
   15CHTO  H192 6037   6.455   2.309   0.998 -1.0397  0.1513  0.6999
   15CHTO   O65 6038   6.422   2.430   1.166 -0.1442  0.1436  0.3375
   15CHTO  C100 6039   6.444   2.553   1.090 -0.3366 -0.2153 -0.6557
   15CHTO  H187 6040   6.406   2.553   0.986  0.5953  0.4010 -1.0015
   15CHTO  C107 6041   6.378   2.674   1.173  0.1202 -0.6517  0.2313
   15CHTO   O70 6042   6.235   2.663   1.185  0.2033  0.4164  0.2424
   15CHTO  H170 6043   6.192   2.671   1.102  2.4673 -0.4464 -1.0579
   15CHTO   O57 6044   6.428   2.172   1.178  0.4978  0.4488  0.4624
   15CHTO   C85 6045   6.395   2.160   1.317  0.0989  0.2037 -0.1781
   15CHTO  H157 6046   6.438   2.255   1.356  3.6372 -1.0384 -0.8712
   15CHTO   C83 6047   6.487   2.050   1.383 -0.0512  0.8186  0.1370
   15CHTO  H155 6048   6.589   2.087   1.370 -0.1724  0.6142 -1.4996
   15CHTO   O56 6049   6.482   1.931   1.306  0.2005 -0.1563  0.1581
   15CHTO  H135 6050   6.551   1.871   1.327  1.2323  0.9046 -0.1616
   15CHTO   C81 6051   6.455   2.027   1.538  0.4113 -0.3376  0.2748
   15CHTO  H153 6052   6.473   2.120   1.591 -0.3477 -0.3231  0.5131
   15CHTO   N14 6053   6.544   1.924   1.602  0.5039 -0.6934  0.1091
   15CHTO  H141 6054   6.639   1.974   1.605  0.6004 -0.9447  1.8852
   15CHTO  H142 6055   6.511   1.918   1.703  0.4772  0.8656  0.2134
   15CHTO   C79 6056   6.302   2.003   1.556  0.2299 -0.1989 -0.5787
   15CHTO  H151 6057   6.285   1.998   1.664  0.5868 -0.8648 -0.5527
   15CHTO   O52 6058   6.228   2.111   1.504 -0.6948  0.2242  0.5338
   15CHTO   C86 6059   6.240   2.138   1.363 -0.5042  0.2249 -0.2652
   15CHTO  H158 6060   6.179   2.058   1.317 -1.0748 -1.1449  2.7169
   15CHTO   C90 6061   6.178   2.271   1.330 -0.3856 -0.3660  0.6755
   15CHTO   O60 6062   6.032   2.282   1.337 -0.3288 -0.1111 -0.1123
   15CHTO  H138 6063   6.010   2.342   1.269 -0.8614  0.9643  0.9968
   15CHTO   O50 6064   6.255   1.871   1.507 -0.0101  0.5298 -0.0232
   15CHTO   C73 6065   6.149   1.783   1.483  0.5581 -0.2994  0.2407
   15CHTO  H145 6066   6.054   1.836   1.469  0.5789 -0.6604 -1.4436
   15CHTO   C74 6067   6.118   1.678   1.598  0.2214 -0.0724 -0.8163
   15CHTO  H146 6068   6.092   1.734   1.688  1.4516 -1.0481  0.1703
   15CHTO   O54 6069   5.999   1.592   1.580  0.4855  0.4650  0.3701
   15CHTO  H133 6070   5.944   1.631   1.515 -0.8723 -0.1860  1.1131
   15CHTO   C75 6071   6.254   1.592   1.619  0.2891  0.0483  1.2265
   15CHTO  H147 6072   6.327   1.656   1.671 -0.9647  2.5128  0.0252
   15CHTO   N13 6073   6.241   1.478   1.713  0.1162  0.3845 -0.0483
   15CHTO  H139 6074   6.243   1.380   1.668 -1.2038 -0.9452  2.6439
   15CHTO  H140 6075   6.149   1.497   1.766  0.3787  2.1648 -0.2167
   15CHTO   C76 6076   6.320   1.547   1.482  0.0457 -0.1163 -0.6660
   15CHTO  H148 6077   6.268   1.460   1.444  3.1053 -1.0532 -2.9487
   15CHTO   O49 6078   6.314   1.643   1.368 -0.3745  0.0814 -0.4803
   15CHTO   C77 6079   6.180   1.698   1.360 -0.8576 -0.2108  0.8107
   15CHTO  H149 6080   6.107   1.617   1.357  0.8221 -1.7404  0.8410
   15CHTO   C88 6081   6.184   1.782   1.238  0.6183  0.0685 -0.3815
   15CHTO   O58 6082   6.063   1.848   1.199 -0.1179  0.1378 -0.0266
   15CHTO  H136 6083   6.079   1.940   1.211  0.6283 -0.0548  0.5003
   15CHTO   O51 6084   6.486   1.539   1.513  0.6579  0.0618  0.1726
   15CHTO   C78 6085   6.556   1.420   1.450 -0.1510 -0.0013  0.3110
   15CHTO  H150 6086   6.500   1.393   1.357 -1.2241  1.9699  0.3409
   15CHTO   C80 6087   6.547   1.299   1.541 -0.3543  0.2834 -0.2192
   15CHTO  H152 6088   6.575   1.340   1.640  0.8310  1.6352 -1.0835
   15CHTO   O55 6089   6.419   1.229   1.543  0.0489 -0.1527  0.3271
   15CHTO  H134 6090   6.375   1.223   1.625  0.0730  0.1663  0.3637
   15CHTO   C84 6091   6.656   1.186   1.513 -0.4865 -0.7182  0.3761
   15CHTO  H156 6092   6.625   1.113   1.437  0.0091  1.1347 -1.6669
   15CHTO   N15 6093   6.682   1.090   1.623  0.0804 -0.1473  0.4742
   15CHTO  H143 6094   6.684   0.996   1.573 -1.0498  0.3467 -0.5085
   15CHTO  H144 6095   6.599   1.088   1.690 -1.9927  1.6440 -1.9290
   15CHTO   C87 6096   6.793   1.241   1.465 -0.4437 -0.7837 -0.1311
   15CHTO  H159 6097   6.851   1.292   1.542  1.9708 -2.9840 -0.3890
   15CHTO   O53 6098   6.764   1.332   1.362  0.1853 -0.0308 -0.5326
   15CHTO   C82 6099   6.703   1.452   1.408  0.0425 -0.1173  0.3853
   15CHTO  H154 6100   6.746   1.492   1.500 -3.9338 -0.3782  2.5154
   15CHTO   C89 6101   6.711   1.575   1.304 -0.7531 -0.6058  0.4564
   15CHTO   O59 6102   6.697   1.706   1.356 -0.1997 -0.0234 -0.3984
   15CHTO  H137 6103   6.768   1.733   1.411 -0.1015 -0.5979 -0.2416
   15CHTO   O45 6104   6.888   1.116   1.415  0.2188 -0.2326  0.1318
   15CHTO   C67 6105   7.024   1.152   1.420 -0.4044 -0.7072  0.8000
   15CHTO  H124 6106   7.034   1.259   1.435  1.7250 -0.4985 -1.7790
   15CHTO   C65 6107   7.085   1.077   1.542  0.1558 -0.0606  0.1966
   15CHTO  H122 6108   7.035   0.982   1.557 -3.0872  1.4437 -0.8223
   15CHTO   O44 6109   7.077   1.166   1.658  0.3181  0.4218  0.2356
   15CHTO  H102 6110   6.994   1.209   1.668  0.7385  1.3177 -0.0831
   15CHTO   C63 6111   7.240   1.028   1.515  0.4371  0.0212  0.0654
   15CHTO  H120 6112   7.228   0.939   1.453 -2.1323 -1.5526  2.6722
   15CHTO   N11 6113   7.330   0.972   1.616 -0.1132  0.3549  0.0673
   15CHTO  H108 6114   7.294   0.881   1.659 -0.8477 -0.6811 -2.6431
   15CHTO  H109 6115   7.341   1.051   1.687 -1.3741  0.4125  0.2082
   15CHTO   C61 6116   7.301   1.142   1.433 -0.0698 -0.1370 -1.0767
   15CHTO  H118 6117   7.400   1.099   1.414  1.1398  1.8481  0.6053
   15CHTO   O40 6118   7.235   1.169   1.299 -0.1004 -0.2432 -0.0348
   15CHTO   C68 6119   7.105   1.123   1.284 -0.1820  0.0109 -0.0594
   15CHTO  H125 6120   7.120   1.021   1.243  2.1108  0.6196 -0.8032
   15CHTO   C72 6121   7.036   1.203   1.170  0.7459  0.1720 -0.7062
   15CHTO   O48 6122   7.110   1.203   1.045  0.6295  0.4209  0.2250
   15CHTO  H105 6123   7.053   1.183   0.973  0.7187  0.5516  0.1184
   15CHTO   O38 6124   7.305   1.263   1.513 -0.7331 -0.2104 -0.1618
   15CHTO   C55 6125   7.404   1.362   1.458  0.0581 -0.1838  0.2400
   15CHTO  H112 6126   7.423   1.350   1.351  2.0267 -0.8336  0.6455
   15CHTO   C56 6127   7.533   1.352   1.540 -0.1902  0.2384  0.0774
   15CHTO  H113 6128   7.511   1.372   1.646 -1.6762  1.4568 -0.4369
   15CHTO   O42 6129   7.595   1.223   1.527 -0.0643  0.0170  0.0915
   15CHTO  H100 6130   7.526   1.164   1.501 -0.8963  1.5467 -1.3042
   15CHTO   C57 6131   7.634   1.463   1.487 -0.5585 -0.2445  0.0464
   15CHTO  H114 6132   7.653   1.429   1.386 -3.1968 -0.2085 -0.4959
   15CHTO   N10 6133   7.758   1.476   1.564  0.2493 -0.8281  0.2457
   15CHTO  H106 6134   7.724   1.457   1.665  0.4161  0.3261  0.5205
   15CHTO  H107 6135   7.824   1.394   1.537 -1.3290 -2.4455  1.1759
   15CHTO   C58 6136   7.563   1.601   1.484  0.6265  0.0912 -0.8839
   15CHTO  H115 6137   7.558   1.634   1.590  0.9365  2.4098 -1.5542
   15CHTO   O37 6138   7.438   1.599   1.414  0.0242  0.4388  0.1927
   15CHTO   C59 6139   7.340   1.512   1.465  0.1527  0.6399  0.6969
   15CHTO  H116 6140   7.309   1.529   1.568 -2.1782  1.4541 -0.1164
   15CHTO   C70 6141   7.218   1.516   1.371 -0.0022  0.3372 -0.1851
   15CHTO   O46 6142   7.180   1.649   1.336  0.5720  0.2937 -0.4721
   15CHTO  H103 6143   7.089   1.653   1.310  0.9156 -4.0655 -2.8352
   15CHTO   O39 6144   7.666   1.717   1.397  0.4190  0.4352 -0.2799
   15CHTO   C60 6145   7.608   1.811   1.306  0.4601  0.1959  0.4813
   15CHTO  H117 6146   7.545   1.760   1.234  1.2900 -1.8671  1.1641
   15CHTO   C62 6147   7.510   1.908   1.382  0.2109 -0.2101 -0.4413
   15CHTO  H119 6148   7.443   1.841   1.439  1.1766 -1.5867 -0.8965
   15CHTO   O43 6149   7.591   1.986   1.479  0.0493  0.1394 -0.1670
   15CHTO  H101 6150   7.581   1.965   1.570 -0.5608 -0.1633 -0.3023
   15CHTO   C66 6151   7.427   1.988   1.268 -0.4247  0.8926  0.4589
   15CHTO  H123 6152   7.378   1.910   1.208  2.1279  0.5417 -1.2481
   15CHTO   N12 6153   7.327   2.084   1.327 -0.3083 -0.0593  0.2980
   15CHTO  H110 6154   7.234   2.044   1.363  0.2850 -2.2331 -0.5354
   15CHTO  H111 6155   7.303   2.176   1.275 -1.6500 -0.6603 -0.1484
   15CHTO   C69 6156   7.521   2.056   1.163 -0.5513  0.0655 -0.0028
   15CHTO  H126 6157   7.552   2.155   1.203 -0.1853  0.4322 -1.1826
   15CHTO   O41 6158   7.656   1.966   1.128 -0.4817 -0.7486 -0.2526
   15CHTO   C64 6159   7.707   1.889   1.231 -0.0649 -0.1073  0.3062
   15CHTO  H121 6160   7.745   1.966   1.303  0.1755  0.0451  0.0180
   15CHTO   C71 6161   7.838   1.814   1.177  0.4537 -0.0713 -0.0974
   15CHTO   O47 6162   7.930   1.894   1.107  0.2941  0.0560 -0.1351
   15CHTO  H104 6163   7.980   1.946   1.167  3.5642 -2.9597 -0.1100
   15CHTO   O34 6164   7.440   2.075   1.012 -0.1910  0.0384  0.3652
   15CHTO   C49 6165   7.415   2.132   0.872 -0.1558  0.1899 -0.3588
   15CHTO   H91 6166   7.456   2.054   0.808 -1.8035 -0.2251 -0.9270
   15CHTO   C47 6167   7.490   2.265   0.848 -0.2128  0.3513  0.6124
   15CHTO   H89 6168   7.487   2.287   0.740 -1.2361 -1.6743  0.2101
   15CHTO   O33 6169   7.629   2.234   0.885 -0.2955 -0.0319 -0.0758
   15CHTO   H70 6170   7.686   2.306   0.866  0.8096 -0.9423 -0.2608
   15CHTO   C45 6171   7.431   2.379   0.950  0.6246  0.2130  0.3094
   15CHTO   H87 6172   7.431   2.334   1.050  0.1569 -2.8470 -1.0291
   15CHTO    N8 6173   7.503   2.506   0.949 -0.2027 -0.1304 -0.4243
   15CHTO   H75 6174   7.600   2.477   0.987  0.5485 -1.0937 -2.9939
   15CHTO   H76 6175   7.506   2.564   0.858  0.4982 -2.8915 -2.2305
   15CHTO   C43 6176   7.276   2.388   0.913 -0.4138  0.3392  0.5748
   15CHTO   H85 6177   7.241   2.462   0.984 -0.8989 -0.2778  0.9876
   15CHTO   O29 6178   7.207   2.269   0.921 -0.1629 -0.2059  0.2301
   15CHTO   C50 6179   7.262   2.159   0.842  0.0970  0.3805  0.1391
   15CHTO   H92 6180   7.218   2.068   0.884 -1.3654  1.3735  0.8185
   15CHTO   C54 6181   7.220   2.144   0.691 -0.8170 -0.0398 -0.4314
   15CHTO   O36 6182   7.086   2.179   0.668  0.0516 -0.1017  0.0006
   15CHTO   H72 6183   7.066   2.156   0.579  2.3276  1.7268 -1.0597
   15CHTO   O27 6184   7.250   2.443   0.782 -0.0594  0.1432  0.1556
   15CHTO   C37 6185   7.165   2.521   0.701 -0.1720  0.3583  0.2877
   15CHTO   H79 6186   7.118   2.463   0.620 -0.7703  1.5470 -0.2332
   15CHTO   C38 6187   7.050   2.581   0.778 -0.3866 -0.3186  0.7622
   15CHTO   H80 6188   7.097   2.639   0.859  0.3169  1.6861 -1.0445
   15CHTO   O31 6189   6.980   2.477   0.844 -0.4968  0.0920 -0.2317
   15CHTO   H68 6190   6.910   2.512   0.897 -0.1378  0.8362 -0.2423
   15CHTO   C39 6191   6.957   2.669   0.683  0.8448 -0.3072  0.8063
   15CHTO   H81 6192   6.912   2.605   0.607  2.2422 -0.3870  0.0295
   15CHTO    N7 6193   6.846   2.745   0.757 -0.6094 -0.1358  0.1290
   15CHTO   H73 6194   6.863   2.840   0.806 -2.9794  0.9856 -1.1241
   15CHTO   H74 6195   6.771   2.766   0.682  0.7994  1.1555 -0.9607
   15CHTO   C40 6196   7.043   2.769   0.602 -0.1539 -0.0705  0.3987
   15CHTO   H82 6197   7.062   2.862   0.656 -2.6820  0.6077  0.1656
   15CHTO   O26 6198   7.167   2.708   0.554 -0.3449 -0.0323  0.1489
   15CHTO   C41 6199   7.257   2.629   0.640  0.3345  0.2539  0.1113
   15CHTO   H83 6200   7.300   2.693   0.718 -1.3589  0.3105  1.0197
   15CHTO   C52 6201   7.364   2.572   0.555 -0.0849  0.4282 -0.3401
   15CHTO   O35 6202   7.439   2.674   0.486 -0.3569 -0.1720  0.1809
   15CHTO   H71 6203   7.523   2.698   0.521 -1.0659  0.7674  1.2999
   15CHTO   O28 6204   6.977   2.812   0.483 -0.0260  0.0110 -0.0443
   15CHTO   C42 6205   6.996   2.944   0.413  0.3778  0.1766  0.7007
   15CHTO   H84 6206   6.949   2.928   0.316 -2.0668  2.3320  1.4716
   15CHTO   C44 6207   7.143   2.987   0.386 -0.5462 -0.1351  0.0396
   15CHTO   H86 6208   7.194   2.998   0.482 -1.1013 -0.4283  0.3660
   15CHTO   O32 6209   7.204   2.880   0.310  0.0914  0.0166 -0.0734
   15CHTO   H69 6210   7.222   2.800   0.354 -0.7995  0.9821  2.1035
   15CHTO   C48 6211   7.165   3.125   0.298  0.1260  0.0363 -0.3379
   15CHTO   H90 6212   7.133   3.093   0.200  0.9907 -2.1974  0.0889
   15CHTO    N9 6213   7.308   3.162   0.275 -0.2873 -0.2744  0.0870
   15CHTO   H77 6214   7.362   3.075   0.242  0.5326  0.7081 -1.2578
   15CHTO   H78 6215   7.313   3.244   0.204  0.7869 -2.9393 -3.0852
   15CHTO   C51 6216   7.065   3.237   0.353  0.1287 -0.0811  0.0160
   15CHTO   H93 6217   7.105   3.293   0.438  2.0430 -0.9465 -0.2841
   15CHTO   O30 6218   6.938   3.182   0.377  0.1199 -0.5743 -0.3066
   15CHTO   C46 6219   6.928   3.065   0.471  0.5227 -0.1363  0.1592
   15CHTO   H88 6220   6.981   3.087   0.564 -0.8528  4.3044 -0.0127
   15CHTO   C53 6221   6.780   3.038   0.502 -0.0006  0.1723 -0.5620
   15CHTO   O72 6222   6.726   3.149   0.571  0.1552  0.1271  0.4625
   15CHTO  H199 6223   6.667   3.116   0.636  0.1103  0.2986  0.5099
   15CHTO   O22 6224   7.047   3.333   0.250  0.2011 -0.2398 -0.2726
   15CHTO   C31 6225   7.024   3.482   0.272 -0.2060 -0.3039  0.1785
   15CHTO   H59 6226   7.019   3.535   0.174 -2.2031 -0.4284  0.2028
   15CHTO   C29 6227   6.891   3.514   0.341 -0.7249 -0.0089 -0.5701
   15CHTO   H57 6228   6.910   3.467   0.439  1.8802  0.5251 -0.7813
   15CHTO   O21 6229   6.781   3.455   0.276  0.0781 -0.8256 -0.4818
   15CHTO   H37 6230   6.788   3.362   0.289  1.9150 -0.5841  0.4805
   15CHTO   C27 6231   6.873   3.665   0.362 -0.5269 -0.4449  0.4478
   15CHTO   H55 6232   6.867   3.711   0.262  0.5505 -3.1061 -0.8999
   15CHTO    N5 6233   6.755   3.704   0.444 -0.2807 -0.0607  0.0442
   15CHTO   H43 6234   6.758   3.650   0.538 -1.5719  1.0483  0.7448
   15CHTO   H44 6235   6.754   3.811   0.464 -0.0066  0.1459 -1.0327
   15CHTO   C25 6236   7.004   3.730   0.429  0.7674 -0.0924  0.6767
   15CHTO   H53 6237   7.008   3.685   0.529 -1.8701  0.4906  1.0771
   15CHTO   O17 6238   7.111   3.687   0.335  0.5214 -0.0891 -0.2952
   15CHTO   C32 6239   7.144   3.546   0.344 -0.0789 -0.2241  0.2318
   15CHTO   H60 6240   7.148   3.514   0.448  0.4837  1.1989  0.6628
   15CHTO   C36 6241   7.284   3.533   0.293  0.8183 -0.3710 -0.8342
   15CHTO   O25 6242   7.389   3.587   0.373  0.9037  0.7798  0.3164
   15CHTO   H40 6243   7.462   3.529   0.362 -0.5606 -0.8137 -1.1825
   15CHTO   O15 6244   7.007   3.909   0.442 -0.1810  0.3582  0.4560
   15CHTO   C19 6245   7.092   4.026   0.479  0.4627  0.5094  0.5155
   15CHTO   H47 6246   7.172   4.031   0.404  0.5536  2.8755  0.7280
   15CHTO   C20 6247   7.002   4.157   0.482 -0.0782  0.4237  0.1207
   15CHTO   H48 6248   6.913   4.146   0.546  1.9034  1.6323  3.2483
   15CHTO   O19 6249   6.946   4.182   0.351 -0.0714  0.7269 -0.8241
   15CHTO   H35 6250   6.916   4.102   0.312  1.6224  0.4011 -1.5142
   15CHTO   C21 6251   7.086   4.279   0.537 -0.0285 -0.2978 -0.6429
   15CHTO   H49 6252   7.163   4.302   0.464 -0.1125  0.5481 -0.4703
   15CHTO    N4 6253   7.008   4.405   0.555  0.1401  0.7455 -1.1074
   15CHTO   H41 6254   6.982   4.447   0.459  0.1951 -0.4589 -1.6592
   15CHTO   H42 6255   7.058   4.481   0.613  0.9979  1.5507 -2.8738
   15CHTO   C22 6256   7.160   4.238   0.667 -0.0366 -0.0188  0.6474
   15CHTO   H50 6257   7.089   4.221   0.748 -0.8488  1.3016  0.2465
   15CHTO   O14 6258   7.237   4.121   0.650 -0.0611  0.0350 -0.2589
   15CHTO   C23 6259   7.166   4.006   0.616  0.7738  0.0546  0.1821
   15CHTO   H51 6260   7.093   3.980   0.693 -0.2877  1.1008 -0.4505
   15CHTO   C34 6261   7.269   3.895   0.601  0.1961  0.4814 -0.0100
   15CHTO   O23 6262   7.364   3.930   0.494 -0.0475 -0.3206 -0.7395
   15CHTO   H38 6263   7.436   3.872   0.482 -0.6815 -1.7062  1.8806
   15CHTO   O16 6264   7.258   4.336   0.706  0.2354 -0.2269  0.5259
   15CHTO   C24 6265   7.262   4.357   0.856 -0.0258 -0.1416 -0.4528
   15CHTO   H52 6266   7.195   4.288   0.908 -0.4756  0.5429 -0.1195
   15CHTO   C26 6267   7.216   4.504   0.882  0.1750 -0.3656 -0.5314
   15CHTO   H54 6268   7.244   4.573   0.799 -2.6429  0.6490 -0.7013
   15CHTO   O20 6269   7.069   4.501   0.887  0.5061 -0.3171 -0.0500
   15CHTO   H36 6270   7.041   4.480   0.974 -1.3666 -1.2230 -0.8510
   15CHTO   C30 6271   7.284   4.557   1.007  0.5033  0.5799  0.3749
   15CHTO   H58 6272   7.243   4.501   1.092 -0.0359  0.3713 -0.0188
   15CHTO    N6 6273   7.239   4.699   1.023 -0.2730  0.4031  0.0360
   15CHTO   H45 6274   7.278   4.740   1.115 -0.8164  1.0067  0.0053
   15CHTO   H46 6275   7.266   4.766   0.942  1.5508 -0.0752  0.2182
   15CHTO   C33 6276   7.434   4.541   0.996  0.3055 -0.7654  0.6960
   15CHTO   H61 6277   7.463   4.568   0.893 -1.1964 -0.5671  0.3098
   15CHTO   O18 6278   7.450   4.398   1.018 -0.1990 -0.4116  0.3043
   15CHTO   C28 6279   7.412   4.322   0.900  0.2821  0.6376  0.1294
   15CHTO   H56 6280   7.484   4.338   0.820  0.8204  1.1949  0.7220
   15CHTO   C35 6281   7.433   4.170   0.931  0.1779 -0.4271  0.6346
   15CHTO   O24 6282   7.568   4.129   0.944  0.0829  0.0702  0.0497
   15CHTO   H39 6283   7.599   4.098   0.861 -0.0909  1.5590 -0.5850
   15CHTO    O9 6284   7.524   4.622   1.084  0.3333  0.2618 -0.6357
   15CHTO   C13 6285   7.684   4.662   1.000  0.1888 -0.7492 -0.9116
   15CHTO   H26 6286   7.676   4.763   0.954 -2.4021 -1.0188 -1.1235
   15CHTO   C11 6287   7.732   4.551   0.894  0.2137  0.6589 -0.3969
   15CHTO   H24 6288   7.658   4.568   0.815 -3.0194 -0.4964  2.2946
   15CHTO    O8 6289   7.723   4.415   0.953 -0.0526 -0.0206 -0.2766
   15CHTO    H3 6290   7.639   4.377   0.938 -0.1561  0.8433 -2.0204
   15CHTO    C9 6291   7.871   4.592   0.846  0.2316  0.6350 -0.0577
   15CHTO   H22 6292   7.864   4.696   0.813 -0.5245  1.2007  1.8156
   15CHTO    N2 6293   7.918   4.513   0.729  0.4040  0.0161 -0.3657
   15CHTO   H10 6294   7.838   4.484   0.662  1.2811  2.0091 -2.3211
   15CHTO   H11 6295   7.983   4.584   0.680  0.3368  1.2923  1.3533
   15CHTO    C7 6296   7.972   4.589   0.972  0.1415  0.2889  0.3080
   15CHTO   H20 6297   8.062   4.637   0.928 -0.6039  0.1366 -1.4319
   15CHTO    O4 6298   7.928   4.671   1.080  0.2957 -0.2856  0.2414
   15CHTO   C14 6299   7.789   4.679   1.117  0.1818  0.1532  0.0915
   15CHTO   H27 6300   7.770   4.779   1.162 -1.4009 -0.0391 -0.1316
   15CHTO   C18 6301   7.757   4.577   1.229 -0.2774 -0.5059  0.2810
   15CHTO   O13 6302   7.818   4.609   1.354  0.2636 -0.1028  0.0252
   15CHTO    H7 6303   7.791   4.544   1.415 -2.2823  0.2184 -0.7091
   15CHTO    O2 6304   7.991   4.441   1.034  0.0107  0.2077  0.0634
   15CHTO    C1 6305   8.077   4.420   1.153 -0.0479  0.0311 -0.1023
   15CHTO   H14 6306   8.037   4.473   1.242  0.6142 -1.3390  1.0264
   15CHTO    C2 6307   8.228   4.460   1.131  0.2549  0.1576 -0.2448
   15CHTO   H15 6308   8.266   4.412   1.040  1.9260  1.4639 -0.2640
   15CHTO    O6 6309   8.254   4.603   1.124 -0.6536 -0.8360  0.2237
   15CHTO    H1 6310   8.183   4.657   1.096 -0.4592 -0.8870 -0.3855
   15CHTO    C3 6311   8.316   4.391   1.250  0.5092  0.1216 -0.5052
   15CHTO   H16 6312   8.289   4.452   1.337  0.4499  0.9692 -1.1092
   15CHTO    N1 6313   8.466   4.405   1.227  0.3912  0.1689  0.3194
   15CHTO    H8 6314   8.479   4.366   1.127  0.3800 -1.2530  0.8650
   15CHTO    H9 6315   8.510   4.502   1.244 -0.4326  0.8504 -1.3305
   15CHTO    C4 6316   8.269   4.241   1.281  0.0747 -0.7443 -0.1722
   15CHTO   H17 6317   8.300   4.175   1.200  0.6887 -1.8595  0.9375
   15CHTO    O1 6318   8.126   4.234   1.304  0.2762 -0.4117  0.9587
   15CHTO    C5 6319   8.047   4.267   1.188 -0.0939  0.0353  0.8284
   15CHTO   H18 6320   8.083   4.203   1.108 -4.6454  1.4058 -2.5010
   15CHTO   C16 6321   7.895   4.230   1.221  0.2090 -0.5627  0.3727
   15CHTO   O11 6322   7.876   4.095   1.273  0.2939  0.2212  0.0495
   15CHTO    H5 6323   7.916   4.085   1.358  1.0065  3.1991  0.1194
   15CHTO    O3 6324   8.328   4.182   1.404 -0.3122  0.0633  0.2160
   15CHTO    C6 6325   8.278   4.062   1.463 -0.0615 -0.2102  0.1314
   15CHTO   H19 6326   8.173   4.051   1.437  0.2036  0.0998 -1.1115
   15CHTO    C8 6327   8.351   3.945   1.395  0.0052  0.7284  0.5802
   15CHTO   H21 6328   8.456   3.971   1.401 -0.4058  2.3961  0.7697
   15CHTO    O7 6329   8.312   3.942   1.258  0.0143 -0.4575  0.7493
   15CHTO    H2 6330   8.366   3.998   1.206  1.1952 -0.0003  2.4214
   15CHTO   C12 6331   8.328   3.807   1.470  0.8296  0.4742  0.7158
   15CHTO   H25 6332   8.223   3.777   1.451  0.4441  2.2329  0.0344
   15CHTO    N3 6333   8.410   3.695   1.427  0.5222  0.3027 -0.2091
   15CHTO   H12 6334   8.409   3.611   1.495  1.7770  0.3273 -0.1529
   15CHTO   H13 6335   8.506   3.730   1.392  0.3460  1.8744  0.8012
   15CHTO   C15 6336   8.334   3.830   1.625 -0.3730  0.0251  0.2762
   15CHTO   H28 6337   8.437   3.844   1.659  0.4495  0.8824 -2.4865
   15CHTO   O10 6338   8.275   3.709   1.716  0.4100  0.6380 -0.2856
   15CHTO    H4 6339   8.314   3.627   1.691 -0.8068 -0.1534  0.3692
   15CHTO    O5 6340   8.247   3.939   1.666  0.0317 -0.2348  0.1536
   15CHTO   C10 6341   8.290   4.062   1.614 -0.8091 -0.0955  0.2813
   15CHTO   H23 6342   8.392   4.078   1.649 -0.4788 -0.0610 -0.6701
   15CHTO   C17 6343   8.196   4.161   1.678  0.1314  0.8710 -0.1361
   15CHTO   O12 6344   8.219   4.299   1.643 -0.2969  0.7028 -0.3470
   15CHTO    H6 6345   8.176   4.303   1.560  0.2743 -2.9180 -0.8665
   16CHTO  H203 6346   5.944   4.458   0.963  0.3818  1.0662  0.2634
   16CHTO   O82 6347   5.998   4.412   1.025 -0.7145 -0.3252  0.2289
   16CHTO  C123 6348   6.130   4.418   0.971  0.1856  0.0419  0.5083
   16CHTO  H227 6349   6.148   4.523   0.946 -1.8175  0.0771 -0.8888
   16CHTO   O77 6350   6.204   4.383   1.089 -0.4148 -0.0491  0.3024
   16CHTO  C118 6351   6.345   4.389   1.067  0.4874  0.1122  0.2349
   16CHTO  H222 6352   6.379   4.487   1.032  0.2225 -0.0504 -0.4722
   16CHTO  C125 6353   6.420   4.364   1.204  0.6308 -0.1754  0.0509
   16CHTO   O84 6354   6.409   4.231   1.255  0.2402  0.2217  0.2636
   16CHTO  H205 6355   6.327   4.208   1.293 -0.3615 -0.9229 -1.6172
   16CHTO  C114 6356   6.389   4.279   0.962  0.1510 -0.0168 -0.1735
   16CHTO  H218 6357   6.355   4.182   0.999  0.0537 -0.4592 -1.4251
   16CHTO  C116 6358   6.313   4.305   0.829 -0.2379  0.6889  0.1392
   16CHTO  H220 6359   6.346   4.404   0.793 -2.1909  0.5399 -2.1742
   16CHTO   O79 6360   6.346   4.205   0.729  0.0434 -0.1837  0.1001
   16CHTO  H201 6361   6.297   4.211   0.649  1.2993 -0.2172 -0.6850
   16CHTO  C120 6362   6.154   4.312   0.857 -0.2219  1.0140 -0.4281
   16CHTO  H224 6363   6.131   4.211   0.897 -0.3762  0.3552 -2.1192
   16CHTO   N21 6364   6.074   4.335   0.734  0.1249  0.0449  0.1143
   16CHTO  H211 6365   5.981   4.281   0.736 -0.8976  1.7709  0.9359
   16CHTO  H212 6366   6.075   4.440   0.709  0.6963 -0.2646 -1.2057
   16CHTO   O75 6367   6.531   4.294   0.959  0.3449  0.1849 -0.0958
   16CHTO  C112 6368   6.630   4.168   0.900  0.1894 -0.3089  0.0620
   16CHTO  H216 6369   6.641   4.169   0.791 -0.8833 -1.3307 -0.0725
   16CHTO   O73 6370   6.565   4.052   0.937 -0.1983 -0.5511  0.0974
   16CHTO  C113 6371   6.617   3.936   0.864 -0.2393  0.3119 -0.2472
   16CHTO  H217 6372   6.622   3.969   0.758  0.9060  1.0354  0.0210
   16CHTO  C124 6373   6.528   3.809   0.886  0.1600 -0.0511 -0.4054
   16CHTO   O83 6374   6.427   3.799   0.780 -0.3701 -0.1172 -0.0967
   16CHTO  H204 6375   6.374   3.725   0.804 -0.0913 -1.4214 -3.2527
   16CHTO  C109 6376   6.762   3.916   0.911 -0.6744  0.3781 -0.3249
   16CHTO  H213 6377   6.756   3.883   1.016 -1.4791 -1.0350 -0.7888
   16CHTO  C110 6378   6.851   4.043   0.902  0.6575  0.0875  0.3729
   16CHTO  H214 6379   6.870   4.068   0.797  1.4251  0.5649  0.6248
   16CHTO   O78 6380   6.984   4.025   0.957  0.2510 -0.7481  0.9237
   16CHTO  H200 6381   7.034   4.099   0.928 -1.0688 -0.2514 -0.1579
   16CHTO  C111 6382   6.774   4.162   0.968 -0.4819 -0.2320 -0.1505
   16CHTO  H215 6383   6.756   4.141   1.074  1.5480  0.9537  0.4548
   16CHTO   N19 6384   6.838   4.295   0.967 -0.3299  0.5426 -0.0505
   16CHTO  H207 6385   6.823   4.346   1.062 -2.2789 -0.6980  0.3332
   16CHTO  H208 6386   6.945   4.287   0.973 -0.4295 -0.5736  0.4916
   16CHTO   O74 6387   6.828   3.810   0.835 -0.1890  0.1114  0.0214
   16CHTO  C115 6388   6.869   3.689   0.913 -0.3733 -0.0281 -0.2704
   16CHTO  H219 6389   6.887   3.713   1.018 -3.1171  0.4030  0.1244
   16CHTO   O76 6390   6.753   3.576   0.913  0.2351 -0.0135 -0.7866
   16CHTO  C122 6391   6.767   3.487   0.809 -0.5328  0.4481 -0.5288
   16CHTO  H226 6392   6.748   3.544   0.718  2.0065  2.1943  0.0080
   16CHTO  C126 6393   6.655   3.366   0.813  0.2204 -0.0155  0.4520
   16CHTO   O85 6394   6.520   3.412   0.823 -0.0291 -0.0307  0.5912
   16CHTO  H206 6395   6.489   3.460   0.749  0.9837 -1.6846 -0.9564
   16CHTO  C121 6396   6.902   3.406   0.814 -0.0331 -0.0837 -0.3251
   16CHTO  H225 6397   6.891   3.303   0.853 -0.7434 -0.5724 -1.7822
   16CHTO   O81 6398   6.947   3.398   0.678  0.5730 -0.1666  0.1136
   16CHTO  H202 6399   6.893   3.342   0.626 -0.8845  0.5057  0.8689
   16CHTO  C119 6400   7.016   3.477   0.893 -0.1043 -0.9290  0.3095
   16CHTO  H223 6401   6.994   3.463   0.999 -0.0796 -0.8563  0.3241
   16CHTO  C117 6402   7.008   3.629   0.861  0.0126 -0.2910  0.2076
   16CHTO  H221 6403   7.020   3.660   0.757  1.9487  0.9422  0.7717
   16CHTO   N20 6404   7.119   3.701   0.926  0.3124  0.8895  0.4922
   16CHTO  H209 6405   7.125   3.688   1.033  1.6416 -2.1956  0.0959
   16CHTO  H210 6406   7.214   3.694   0.874 -0.7278 -1.9795 -1.0962
   16CHTO   O80 6407   7.161   3.405   0.875  0.4263 -0.0786  0.0086
   16CHTO  C103 6408   7.186   3.258   0.945  0.2159 -0.2125 -0.2246
   16CHTO  H190 6409   7.091   3.213   0.975 -0.3283  0.5074 -0.8544
   16CHTO  C101 6410   7.249   3.151   0.846  1.2681 -0.3278 -0.3624
   16CHTO  H188 6411   7.345   3.186   0.808  1.2075  0.3401  0.0820
   16CHTO   O68 6412   7.162   3.122   0.722  0.6559  0.0637  0.7076
   16CHTO  H168 6413   7.116   3.202   0.702 -0.2189 -0.4799  0.5313
   16CHTO   C99 6414   7.285   3.014   0.927  0.0398 -0.1961  0.8299
   16CHTO  H186 6415   7.192   2.959   0.951  0.3672 -0.4367  1.5777
   16CHTO   N17 6416   7.368   2.918   0.851 -0.3132 -0.7853  0.2730
   16CHTO  H174 6417   7.376   2.821   0.898 -2.1076 -0.8143  0.5515
   16CHTO  H175 6418   7.465   2.966   0.855 -0.6396 -0.1435  0.5416
   16CHTO   C97 6419   7.357   3.042   1.062  0.3596  0.6720 -0.0614
   16CHTO  H184 6420   7.458   3.077   1.036  1.2142  0.1008  2.3218
   16CHTO   O64 6421   7.286   3.140   1.139  0.1545 -0.6635  0.3448
   16CHTO  C104 6422   7.276   3.263   1.072  0.1776 -0.3395 -1.0980
   16CHTO  H191 6423   7.380   3.285   1.045  1.0052 -1.3764  1.1040
   16CHTO  C108 6424   7.237   3.374   1.165  0.3438 -0.4022 -0.6623
   16CHTO   O71 6425   7.343   3.409   1.258  0.0161 -0.1227  0.2227
   16CHTO  H171 6426   7.313   3.467   1.326  1.9550 -0.7084  1.6272
   16CHTO   O62 6427   7.365   2.922   1.149  0.6194 -0.5186 -0.4375
   16CHTO   C91 6428   7.463   2.932   1.251  0.0902  0.1657 -0.1391
   16CHTO  H178 6429   7.543   2.993   1.209  1.5150 -0.5123  1.5270
   16CHTO   C92 6430   7.532   2.802   1.288 -0.8568  0.1917  0.0858
   16CHTO  H179 6431   7.561   2.758   1.191 -1.7226 -1.4625  0.5580
   16CHTO   O66 6432   7.647   2.820   1.365  0.2155  0.1208  0.0686
   16CHTO  H166 6433   7.687   2.737   1.382  0.1111  0.0358 -0.0953
   16CHTO   C93 6434   7.440   2.709   1.380 -0.2502 -0.1227 -0.5833
   16CHTO  H180 6435   7.501   2.658   1.456  0.3535 -0.0895 -1.0410
   16CHTO   N16 6436   7.379   2.596   1.299  0.1173 -0.5745 -0.4574
   16CHTO  H172 6437   7.372   2.509   1.362 -0.5848  0.8134  1.4273
   16CHTO  H173 6438   7.285   2.629   1.257  0.7489  2.5453  0.4475
   16CHTO   C94 6439   7.323   2.791   1.452  0.1590  0.5817  0.7691
   16CHTO  H181 6440   7.231   2.782   1.394  0.5038  0.5499  0.2206
   16CHTO   O61 6441   7.370   2.922   1.491 -0.2465 -0.0859  0.5715
   16CHTO   C95 6442   7.415   3.006   1.383  0.3080  0.1578 -0.1921
   16CHTO  H182 6443   7.334   3.076   1.363  1.5230  1.4999 -0.4837
   16CHTO  C106 6444   7.515   3.109   1.443  0.0584 -0.2880 -0.0865
   16CHTO   O69 6445   7.551   3.216   1.353 -0.6216 -0.8099  0.3834
   16CHTO  H169 6446   7.476   3.256   1.313 -0.3292  0.3466  0.9801
   16CHTO   O63 6447   7.301   2.716   1.586  0.4806  0.0296  0.2197
   16CHTO   C96 6448   7.137   2.675   1.605 -0.3230  0.0951  0.5807
   16CHTO  H183 6449   7.133   2.637   1.707  1.5103  0.6074  0.8631
   16CHTO   C98 6450   7.080   2.565   1.500  0.3817 -0.2570  0.4174
   16CHTO  H185 6451   7.090   2.602   1.397  3.1285  1.4609  1.2675
   16CHTO   O67 6452   7.148   2.442   1.502  0.0261 -0.9390  0.2116
   16CHTO  H167 6453   7.239   2.448   1.480 -1.0356  2.7802 -3.8309
   16CHTO  C102 6454   6.923   2.549   1.537  0.4210  0.5000 -0.4196
   16CHTO  H189 6455   6.921   2.544   1.647  4.1293 -1.3206 -0.3578
   16CHTO   N18 6456   6.859   2.417   1.488 -0.0413 -0.1640  0.1298
   16CHTO  H176 6457   6.892   2.326   1.536  0.2285  0.3236  0.8729
   16CHTO  H177 6458   6.751   2.418   1.479  0.0250  0.2797 -0.6167
   16CHTO  C105 6459   6.852   2.676   1.492 -0.1111  0.4709 -0.3185
   16CHTO  H192 6460   6.823   2.665   1.388 -0.0554 -0.4459 -0.2398
   16CHTO   O65 6461   6.931   2.794   1.510  0.3593 -0.0354 -0.1965
   16CHTO  C100 6462   7.038   2.805   1.605  0.1501  0.1990  0.1884
   16CHTO  H187 6463   7.096   2.894   1.577  1.1884  0.4361  2.8752
   16CHTO  C107 6464   6.971   2.839   1.742 -0.3358  0.3388  0.3768
   16CHTO   O70 6465   6.904   2.959   1.730  0.4310  0.2268 -0.1843
   16CHTO  H170 6466   6.960   3.023   1.770 -0.3361  0.4643  0.4998
   16CHTO   O57 6467   6.730   2.689   1.578  0.3153 -0.2834  0.2166
   16CHTO   C85 6468   6.619   2.754   1.516  0.0938 -0.2588 -0.6216
   16CHTO  H157 6469   6.625   2.724   1.410  2.3277 -3.7412  0.4112
   16CHTO   C83 6470   6.614   2.907   1.526  0.0844 -0.0777  0.1424
   16CHTO  H155 6471   6.697   2.949   1.470 -0.4080 -0.2310 -0.7104
   16CHTO   O56 6472   6.639   2.935   1.669  0.1283  0.0532 -0.2220
   16CHTO  H135 6473   6.636   3.025   1.696  0.2197 -0.7752  2.7063
   16CHTO   C81 6474   6.482   2.961   1.458 -0.2501 -0.7295 -0.3769
   16CHTO  H153 6475   6.492   2.934   1.352 -2.5780  1.8266 -1.3281
   16CHTO   N14 6476   6.470   3.110   1.446 -0.3244 -0.1388 -0.7971
   16CHTO  H141 6477   6.555   3.162   1.485 -1.5670  3.0289 -2.1230
   16CHTO  H142 6478   6.381   3.140   1.498  1.0862  0.5737  1.2919
   16CHTO   C79 6479   6.351   2.898   1.511 -0.3074  0.1200 -0.2928
   16CHTO  H151 6480   6.273   2.929   1.441 -0.8710  0.5375  0.5225
   16CHTO   O52 6481   6.374   2.753   1.512  0.5345 -0.2994  0.6789
   16CHTO   C86 6482   6.485   2.698   1.581  0.7105 -0.5192 -0.3205
   16CHTO  H158 6483   6.461   2.738   1.682 -3.5362  1.6059 -2.0667
   16CHTO   C90 6484   6.481   2.543   1.595 -0.4085 -0.0478  0.5269
   16CHTO   O60 6485   6.463   2.482   1.469  0.2386 -0.3871 -0.0559
   16CHTO  H138 6486   6.479   2.390   1.481  2.2889 -0.0662 -0.1730
   16CHTO   O50 6487   6.318   2.943   1.646 -0.2578  0.4465  0.1263
   16CHTO   C73 6488   6.199   2.971   1.719  0.0030 -0.2176  0.4558
   16CHTO  H145 6489   6.158   2.871   1.742  1.1585 -0.7965  0.0237
   16CHTO   C74 6490   6.091   3.053   1.637  0.0268  0.6684  0.2939
   16CHTO  H146 6491   6.089   3.003   1.539  0.6334  0.8808  0.1715
   16CHTO   O54 6492   5.972   3.029   1.711  0.3037 -0.2225 -0.4456
   16CHTO  H133 6493   5.896   3.065   1.668  0.6076 -1.0140 -1.6803
   16CHTO   C75 6494   6.145   3.206   1.622  0.8460  0.3062 -0.0912
   16CHTO  H147 6495   6.229   3.213   1.551  0.7850  1.3787 -0.0626
   16CHTO   N13 6496   6.038   3.291   1.565  0.0908  0.2113 -0.4356
   16CHTO  H139 6497   6.003   3.261   1.468  1.5541 -0.5312 -0.7421
   16CHTO  H140 6498   6.083   3.389   1.561  2.8503 -0.9022  1.4995
   16CHTO   C76 6499   6.199   3.260   1.768  0.4428  0.0933  0.1262
   16CHTO  H148 6500   6.105   3.253   1.824 -0.3022  1.1275 -0.9631
   16CHTO   O49 6501   6.294   3.165   1.829  0.6389 -0.3761 -0.0226
   16CHTO   C77 6502   6.242   3.039   1.852  0.3974  0.8841  0.2835
   16CHTO  H149 6503   6.151   3.048   1.910 -0.0913 -2.8441  0.2223
   16CHTO   C88 6504   6.338   2.952   1.942 -0.3320  0.6471  0.4561
   16CHTO   O58 6505   6.487   2.989   1.913 -0.0467 -0.0718 -0.3546
   16CHTO  H136 6506   6.536   2.965   1.990  0.0026  1.4616  0.1065
   16CHTO   O51 6507   6.274   3.385   1.763  0.4084 -0.4483 -0.3659
   16CHTO   C78 6508   6.339   3.436   1.882  0.6391 -0.1005 -0.1627
   16CHTO  H150 6509   6.335   3.373   1.973  0.0404  0.3708  0.1406
   16CHTO   C80 6510   6.283   3.571   1.915  0.4524 -0.4656  0.4304
   16CHTO  H152 6511   6.271   3.627   1.820  0.1933 -2.3521 -0.6775
   16CHTO   O55 6512   6.154   3.540   1.977  0.2037 -0.1173  0.3495
   16CHTO  H134 6513   6.101   3.616   1.992 -0.1521  0.1882 -2.2922
   16CHTO   C84 6514   6.370   3.654   2.023  0.1738  0.8109 -0.9216
   16CHTO  H156 6515   6.375   3.601   2.118 -0.7065  1.0201 -0.7574
   16CHTO   N15 6516   6.320   3.785   2.054  0.4695  0.6477 -0.3176
   16CHTO  H143 6517   6.220   3.765   2.087  0.8683 -1.4854 -0.3825
   16CHTO  H144 6518   6.315   3.846   1.966 -0.4346  0.7075 -0.2316
   16CHTO   C87 6519   6.517   3.644   1.972 -0.6328 -0.3083 -1.0842
   16CHTO  H159 6520   6.530   3.693   1.876 -0.7136 -2.2183 -2.1116
   16CHTO   O53 6521   6.551   3.505   1.965  0.9036  0.1385  0.0543
   16CHTO   C82 6522   6.486   3.447   1.854 -0.1011 -0.0926  1.2722
   16CHTO  H154 6523   6.493   3.513   1.767  0.6294 -0.8638  0.7477
   16CHTO   C89 6524   6.551   3.308   1.817 -0.7022  0.6429  0.2442
   16CHTO   O59 6525   6.679   3.321   1.760 -0.1014  0.9034 -0.3266
   16CHTO  H137 6526   6.672   3.275   1.679 -1.1642  0.8938 -0.2437
   16CHTO   O45 6527   6.616   3.709   2.097  0.3364  0.4955  0.2778
   16CHTO   C67 6528   6.745   3.739   2.047 -0.0952  0.4498 -0.2348
   16CHTO  H124 6529   6.756   3.694   1.948 -0.7881 -1.8850  0.7137
   16CHTO   C65 6530   6.773   3.894   2.039  0.8086 -0.5248 -0.2683
   16CHTO  H122 6531   6.680   3.950   2.041  0.6927 -0.6299 -1.9201
   16CHTO   O44 6532   6.833   3.919   1.910  0.5219 -0.0702  0.2630
   16CHTO  H102 6533   6.779   3.894   1.838  0.6554 -1.0195  0.4877
   16CHTO   C63 6534   6.850   3.956   2.160  0.5586  0.5133 -0.2225
   16CHTO  H120 6535   6.787   3.941   2.248 -0.5348  0.5713 -0.9873
   16CHTO   N11 6536   6.878   4.096   2.161  0.7001  0.3531 -0.3731
   16CHTO  H108 6537   6.955   4.120   2.232  1.4854 -1.7398 -0.4826
   16CHTO  H109 6538   6.799   4.166   2.143 -0.2910 -0.7629 -0.3772
   16CHTO   C61 6539   6.991   3.875   2.167  0.0979 -0.5880 -0.8587
   16CHTO  H118 6540   7.019   3.886   2.272 -1.8502 -2.1597 -0.1439
   16CHTO   O40 6541   6.984   3.735   2.144 -0.1443  0.0177 -0.8062
   16CHTO   C68 6542   6.856   3.664   2.140 -0.4106 -0.5177  0.6668
   16CHTO  H125 6543   6.822   3.651   2.245 -0.7785  0.6198  0.7003
   16CHTO   C72 6544   6.897   3.525   2.090  0.8353 -0.0343 -0.7776
   16CHTO   O48 6545   6.795   3.429   2.082 -0.6664 -0.0658 -0.0922
   16CHTO  H105 6546   6.810   3.348   2.127 -0.5361 -0.4310 -0.7890
   16CHTO   O38 6547   7.089   3.906   2.067 -0.6498  0.1433  0.0085
   16CHTO   C55 6548   7.231   3.901   2.107  0.4543 -0.0901  0.4812
   16CHTO  H112 6549   7.236   3.869   2.212 -1.6240  0.0692  0.6516
   16CHTO   C56 6550   7.293   4.044   2.082 -0.5053 -0.7965  0.8051
   16CHTO  H113 6551   7.261   4.071   1.980 -3.4375 -0.9642  1.6380
   16CHTO   O42 6552   7.238   4.139   2.172 -0.0166 -0.2794  0.1581
   16CHTO  H100 6553   7.281   4.222   2.165 -1.5130  0.4473 -0.7935
   16CHTO   C57 6554   7.458   4.056   2.079 -0.0456 -0.1914 -0.2854
   16CHTO  H114 6555   7.492   4.035   2.181  0.3893  0.5676 -0.2697
   16CHTO   N10 6556   7.517   4.188   2.038  0.0915  0.1490  0.4873
   16CHTO  H106 6557   7.525   4.258   2.120 -1.4488  2.2474 -1.0722
   16CHTO  H107 6558   7.458   4.240   1.964 -1.9951  1.0853  2.7335
   16CHTO   C58 6559   7.508   3.944   1.990 -0.2551 -0.2463  0.1394
   16CHTO  H115 6560   7.470   3.958   1.887 -0.3096 -0.9225  0.0659
   16CHTO   O37 6561   7.453   3.828   2.046 -0.0356 -0.1762 -0.5279
   16CHTO   C59 6562   7.313   3.805   2.026  0.3918 -0.2408 -0.3952
   16CHTO  H116 6563   7.291   3.812   1.920 -1.8924  0.0844  0.0656
   16CHTO   C70 6564   7.281   3.662   2.071 -0.3681  0.3847 -0.4326
   16CHTO   O46 6565   7.376   3.561   2.034 -0.2488 -0.0595 -0.2878
   16CHTO  H103 6566   7.360   3.547   1.943 -0.5408  4.8885 -1.1521
   16CHTO   O39 6567   7.663   3.911   1.999  0.4118  0.3850  0.1131
   16CHTO   C60 6568   7.721   3.827   1.902  0.6910 -0.1587  0.0762
   16CHTO  H117 6569   7.647   3.760   1.857  1.3284 -0.3615 -0.6722
   16CHTO   C62 6570   7.780   3.916   1.791 -0.2956 -0.1924 -0.9332
   16CHTO  H119 6571   7.700   3.987   1.761  0.3286  0.3382 -1.3340
   16CHTO   O43 6572   7.887   3.990   1.853 -0.1340  0.1091 -0.0347
   16CHTO  H101 6573   7.861   4.011   1.940  0.5041 -1.1059  0.4655
   16CHTO   C66 6574   7.826   3.827   1.676 -0.0791  0.2781  0.2920
   16CHTO  H123 6575   7.742   3.765   1.643  1.2092 -2.5129  2.0498
   16CHTO   N12 6576   7.868   3.898   1.552 -0.2817  0.2662  0.3759
   16CHTO  H110 6577   7.921   3.821   1.498 -1.2961 -0.2952  0.1478
   16CHTO  H111 6578   7.922   3.986   1.584  0.6143 -0.5895  1.2403
   16CHTO   C69 6579   7.931   3.725   1.731  0.5370  0.3766  0.3934
   16CHTO  H126 6580   8.035   3.762   1.746  1.7076 -2.3518 -0.7436
   16CHTO   O41 6581   7.877   3.649   1.867 -0.4697  0.1060 -0.2261
   16CHTO   C64 6582   7.824   3.735   1.971 -0.0094 -0.3078  0.0419
   16CHTO  H121 6583   7.903   3.794   2.022 -1.6881  1.3354  0.7855
   16CHTO   C71 6584   7.749   3.653   2.081 -0.0584  0.4944 -0.4017
   16CHTO   O47 6585   7.651   3.567   2.025 -0.2823 -0.1885 -0.1211
   16CHTO  H104 6586   7.670   3.476   2.032 -1.5366 -0.4362  0.3046
   16CHTO   O34 6587   7.949   3.616   1.603 -0.3499 -0.0476 -0.7063
   16CHTO   C49 6588   7.930   3.479   1.535 -0.6670 -0.3064  0.2061
   16CHTO   H91 6589   7.981   3.486   1.439  0.5701 -2.5962  0.6627
   16CHTO   C47 6590   7.776   3.455   1.522  0.5712  0.4146  0.2640
   16CHTO   H89 6591   7.766   3.359   1.466  0.4693 -0.6196  2.0110
   16CHTO   O33 6592   7.719   3.564   1.447  0.2006  0.1259  0.1889
   16CHTO   H70 6593   7.758   3.578   1.362 -1.7992 -0.4835 -0.8684
   16CHTO   C45 6594   7.709   3.442   1.669  0.1532 -0.9826  0.2570
   16CHTO   H87 6595   7.735   3.535   1.722 -0.7490 -0.2003 -0.6436
   16CHTO    N8 6596   7.568   3.440   1.668  0.1213  0.2625 -0.2665
   16CHTO   H75 6597   7.533   3.387   1.756  1.1203  2.0810  1.2683
   16CHTO   H76 6598   7.525   3.538   1.653  1.0269  0.4554 -1.6327
   16CHTO   C43 6599   7.783   3.323   1.759  0.0445 -0.1373 -0.4005
   16CHTO   H85 6600   7.755   3.342   1.862  0.6769  0.8122 -0.3954
   16CHTO   O29 6601   7.927   3.344   1.739  0.0075  0.2935 -0.1249
   16CHTO   C50 6602   7.996   3.369   1.619  0.1956  0.2883 -0.9256
   16CHTO   H92 6603   8.098   3.404   1.639  0.4984 -1.3689  0.6000
   16CHTO   C54 6604   8.013   3.240   1.544  0.2229 -0.1157 -0.0455
   16CHTO   O36 6605   8.138   3.168   1.569  0.8122 -0.4501  0.1867
   16CHTO   H72 6606   8.136   3.148   1.661  0.0615 -0.7987  0.0984
   16CHTO   O27 6607   7.752   3.189   1.709  0.4487  0.0441  0.0503
   16CHTO   C37 6608   7.707   3.077   1.787 -0.1836  0.2926  0.0548
   16CHTO   H79 6609   7.759   3.065   1.884 -0.6517  0.0680  0.2767
   16CHTO   C38 6610   7.555   3.092   1.825 -0.3989  0.3900 -0.4996
   16CHTO   H80 6611   7.502   3.129   1.736  0.4318  1.6535 -0.4867
   16CHTO   O31 6612   7.543   3.188   1.934  0.1634 -1.0931 -0.1245
   16CHTO   H68 6613   7.453   3.192   1.961  0.2724 -0.5261  0.1611
   16CHTO   C39 6614   7.489   2.955   1.863 -0.0687  0.6999  0.4331
   16CHTO   H81 6615   7.499   2.939   1.971 -2.1921 -1.5128  0.3632
   16CHTO    N7 6616   7.338   2.956   1.852 -0.0213 -0.2542  0.2220
   16CHTO   H73 6617   7.310   2.879   1.783 -0.0497  1.0623 -1.2695
   16CHTO   H74 6618   7.305   3.057   1.831 -0.0703 -0.0987  1.0273
   16CHTO   C40 6619   7.544   2.824   1.796  0.2404  0.2925 -0.4996
   16CHTO   H82 6620   7.490   2.808   1.702 -2.6117 -0.4067  1.2025
   16CHTO   O26 6621   7.683   2.833   1.775 -0.3176  0.6256 -0.4009
   16CHTO   C41 6622   7.736   2.943   1.699  0.5479 -0.2503  1.0350
   16CHTO   H83 6623   7.674   2.943   1.608  2.7729 -0.9569 -0.5281
   16CHTO   C52 6624   7.888   2.930   1.663  0.5279  0.1179 -0.2157
   16CHTO   O35 6625   7.901   2.838   1.547 -0.4634 -0.6146 -0.4057
   16CHTO   H71 6626   7.816   2.815   1.515 -0.9431 -1.9326  1.6458
   16CHTO   O28 6627   7.539   2.709   1.888  0.0414 -0.5004  0.0603
   16CHTO   C42 6628   7.530   2.570   1.857 -0.3024  0.2016  0.1838
   16CHTO   H84 6629   7.584   2.520   1.937 -0.4195 -2.2497 -1.2308
   16CHTO   C44 6630   7.600   2.526   1.726  0.4938  0.1692  0.2439
   16CHTO   H86 6631   7.558   2.588   1.647  2.5122  1.3101  0.0227
   16CHTO   O32 6632   7.740   2.551   1.738 -0.0945 -0.0817  0.1695
   16CHTO   H69 6633   7.785   2.483   1.784 -0.9709 -0.8455 -0.0889
   16CHTO   C48 6634   7.574   2.373   1.678 -0.1118  0.4828 -0.0021
   16CHTO   H90 6635   7.622   2.313   1.755 -0.6281  0.0596 -0.0105
   16CHTO    N9 6636   7.629   2.333   1.544 -0.3783 -0.1847  0.1589
   16CHTO   H77 6637   7.709   2.264   1.567 -0.0737 -0.0974 -0.6493
   16CHTO   H78 6638   7.674   2.414   1.490 -2.1107 -0.0032 -1.0291
   16CHTO   C51 6639   7.423   2.330   1.692 -0.1222  0.4919  0.5826
   16CHTO   H93 6640   7.360   2.378   1.617 -0.7596 -3.6652 -1.7194
   16CHTO   O30 6641   7.382   2.362   1.828  0.2709  0.4827  0.3092
   16CHTO   C46 6642   7.385   2.518   1.867 -0.6091  0.0040  0.0875
   16CHTO   H88 6643   7.330   2.573   1.791  0.5042 -2.9363 -3.0015
   16CHTO   C53 6644   7.326   2.512   2.010  0.3923  0.5121  0.2853
   16CHTO   O72 6645   7.289   2.646   2.052 -0.5584  0.0856 -0.0032
   16CHTO  H199 6646   7.266   2.644   2.143 -0.8855 -0.8150 -0.1045
   16CHTO   O22 6647   7.403   2.185   1.675  0.1028 -0.1295  0.1230
   16CHTO   C31 6648   7.303   2.095   1.737 -0.1794  0.2030 -0.3553
   16CHTO   H59 6649   7.277   2.138   1.836  4.0653 -0.1661  1.0318
   16CHTO   C29 6650   7.173   2.082   1.655 -0.2496  1.0742 -0.7668
   16CHTO   H57 6651   7.206   2.056   1.554  1.3844  2.0864 -0.5251
   16CHTO   O21 6652   7.107   2.205   1.655 -0.6435 -0.0814  0.5522
   16CHTO   H37 6653   7.152   2.271   1.607  0.6735 -0.5349  1.1275
   16CHTO   C27 6654   7.074   1.973   1.708  0.2573  0.2331 -0.3532
   16CHTO   H55 6655   7.027   2.001   1.803  0.2438 -1.4162  0.1365
   16CHTO    N5 6656   6.963   1.944   1.606 -0.2321  0.4502 -0.3655
   16CHTO   H43 6657   7.002   1.872   1.534 -0.2424  0.4031 -0.3237
   16CHTO   H44 6658   6.882   1.899   1.660 -0.0217 -0.7832 -1.0494
   16CHTO   C25 6659   7.143   1.846   1.761  0.2485 -0.9207  0.0860
   16CHTO   H53 6660   7.180   1.790   1.674  1.4823 -0.0369  0.0187
   16CHTO   O17 6661   7.260   1.884   1.851 -0.2622  0.1345  0.4054
   16CHTO   C32 6662   7.357   1.951   1.776 -0.1916  0.7765 -0.5733
   16CHTO   H60 6663   7.371   1.886   1.689 -2.4912  1.0503 -1.1760
   16CHTO   C36 6664   7.487   1.951   1.854  0.3565  0.2298  0.1638
   16CHTO   O25 6665   7.585   2.013   1.772  0.0563  0.0657 -0.4155
   16CHTO   H40 6666   7.641   2.069   1.823  2.0247  0.1864 -2.6140
   16CHTO   O15 6667   7.045   1.762   1.842 -0.0803  0.5155 -0.1096
   16CHTO   C19 6668   6.947   1.747   1.948 -0.2110 -1.3946 -0.6438
   16CHTO   H47 6669   6.961   1.647   1.990 -1.6266 -0.8973  1.0519
   16CHTO   C20 6670   6.957   1.848   2.070 -0.4056 -0.5545 -0.8637
   16CHTO   H48 6671   6.931   1.951   2.044 -0.0258  0.3818  2.3111
   16CHTO   O19 6672   7.091   1.834   2.123  0.2726 -0.0289  0.4607
   16CHTO   H35 6673   7.127   1.903   2.176 -1.5923  0.7165  0.7905
   16CHTO   C21 6674   6.847   1.811   2.182  0.3224 -0.9180  0.2305
   16CHTO   H49 6675   6.879   1.720   2.233 -0.3627 -2.0618 -1.3366
   16CHTO    N4 6676   6.849   1.913   2.294 -0.1405  0.3808 -0.6243
   16CHTO   H41 6677   6.791   2.000   2.268  0.4277  0.8681 -0.2509
   16CHTO   H42 6678   6.949   1.940   2.323 -0.6727  1.5390  0.1671
   16CHTO   C22 6679   6.711   1.802   2.107 -0.1180 -0.0883 -0.2179
   16CHTO   H50 6680   6.684   1.899   2.066  0.5236  0.4551  0.6156
   16CHTO   O14 6681   6.717   1.708   1.997  0.5211 -0.5143  0.1151
   16CHTO   C23 6682   6.805   1.742   1.886 -0.0643  0.1126 -0.4826
   16CHTO   H51 6683   6.773   1.838   1.843  1.1534  1.1066  0.8105
   16CHTO   C34 6684   6.802   1.632   1.777 -0.6556  0.3344 -0.2088
   16CHTO   O23 6685   6.661   1.594   1.743  0.3017  0.0618  0.0556
   16CHTO   H38 6686   6.664   1.556   1.657 -2.7176  0.7500 -0.4216
   16CHTO   O16 6687   6.610   1.756   2.194  0.1488 -0.3059  0.4515
   16CHTO   C24 6688   6.468   1.799   2.147  0.0899  0.1843  0.2635
   16CHTO   H52 6689   6.468   1.843   2.047  1.3283  0.3491  0.3174
   16CHTO   C26 6690   6.408   1.911   2.232 -0.0523 -0.8086 -0.2304
   16CHTO   H54 6691   6.405   1.882   2.339  0.0657 -0.4942 -0.1413
   16CHTO   O20 6692   6.501   2.021   2.222  0.0752 -0.0746 -0.3590
   16CHTO   H36 6693   6.473   2.088   2.282  0.4759  1.3278 -1.7240
   16CHTO   C30 6694   6.272   1.963   2.183  0.4785 -0.3011 -0.3336
   16CHTO   H58 6695   6.291   2.016   2.089 -1.0672 -0.7623 -0.9332
   16CHTO    N6 6696   6.214   2.061   2.280  0.5060 -0.5317  0.0421
   16CHTO   H45 6697   6.231   2.026   2.381 -0.6588 -0.7314  0.1774
   16CHTO   H46 6698   6.108   2.069   2.264  0.5903 -0.0723 -0.2997
   16CHTO   C33 6699   6.172   1.849   2.148  0.2567 -0.2221 -0.0484
   16CHTO   H61 6700   6.121   1.818   2.241  0.1806 -2.4557 -0.8016
   16CHTO   O18 6701   6.235   1.733   2.084 -0.5061  0.5707 -0.3309
   16CHTO   C28 6702   6.355   1.681   2.145  0.2531  0.1670  0.4125
   16CHTO   H56 6703   6.336   1.652   2.248 -0.7279  1.0202  0.4846
   16CHTO   C35 6704   6.400   1.553   2.069 -0.0019 -0.3727  0.6385
   16CHTO   O24 6705   6.493   1.475   2.151 -0.1610  0.1322  0.1701
   16CHTO   H39 6706   6.485   1.389   2.114 -2.1907  0.4181 -0.0705
   16CHTO    O9 6707   6.068   1.903   2.068  0.4057  0.3067 -0.5488
   16CHTO   C13 6708   5.946   1.817   2.016 -0.0704 -0.6033 -0.1886
   16CHTO   H26 6709   5.980   1.714   1.995 -1.8414 -1.2800  0.1354
   16CHTO   C11 6710   5.901   1.887   1.883  0.3742  0.1104  0.7123
   16CHTO   H24 6711   5.982   1.887   1.808  1.4239 -0.6565  1.8228
   16CHTO    O8 6712   5.875   2.029   1.897  0.1914 -0.2010  0.0449
   16CHTO    H3 6713   5.806   2.051   1.956  0.2737  1.9420 -0.6370
   16CHTO    C9 6714   5.781   1.798   1.834  0.1555 -0.2849 -0.0951
   16CHTO   H22 6715   5.823   1.698   1.817  2.0674  0.6802 -1.1515
   16CHTO    N2 6716   5.735   1.826   1.694  0.3571  0.4569 -0.0168
   16CHTO   H10 6717   5.787   1.909   1.648  1.1206 -0.3136 -0.5718
   16CHTO   H11 6718   5.629   1.845   1.692  0.5907  1.7114 -0.8819
   16CHTO    C7 6719   5.668   1.802   1.944 -0.8428  0.6289 -0.3120
   16CHTO   H20 6720   5.599   1.726   1.903 -0.6852  0.9476 -1.1793
   16CHTO    O4 6721   5.705   1.764   2.078  0.0913  0.5227 -0.1883
   16CHTO   C14 6722   5.835   1.806   2.128 -0.6269 -0.2248 -0.2744
   16CHTO   H27 6723   5.862   1.718   2.190 -3.3873 -0.4828  0.6234
   16CHTO   C18 6724   5.823   1.930   2.223 -0.1971  0.6316 -0.6524
   16CHTO   O13 6725   5.745   1.905   2.340  0.1604 -0.3815  0.1387
   16CHTO    H7 6726   5.745   1.815   2.367  2.8123 -0.4496  0.0494
   16CHTO    O2 6727   5.594   1.937   1.955 -0.4667 -0.1829 -0.5970
   16CHTO    C1 6728   5.452   1.915   1.981  0.1165  0.3723  0.9240
   16CHTO   H14 6729   5.419   2.017   2.007 -2.2759 -0.2919  0.6127
   16CHTO    C2 6730   5.403   1.817   2.100 -0.3626 -0.3990  0.4995
   16CHTO   H15 6731   5.454   1.723   2.078 -1.1706 -0.2642 -2.1224
   16CHTO    O6 6732   5.439   1.882   2.227  0.3216 -0.5610 -0.0946
   16CHTO    H1 6733   5.398   1.966   2.235  0.0035 -0.7809  0.5876
   16CHTO    C3 6734   5.250   1.773   2.101 -0.3596  0.4129  0.8505
   16CHTO   H16 6735   5.189   1.861   2.129  1.2462  1.9977 -0.5123
   16CHTO    N1 6736   5.221   1.665   2.199  0.0662 -0.0649 -0.7685
   16CHTO    H8 6737   5.315   1.617   2.221 -0.6347 -1.0053  0.2394
   16CHTO    H9 6738   5.143   1.594   2.175 -0.3715 -0.0282  0.5007
   16CHTO    C4 6739   5.207   1.745   1.958 -0.0514 -0.3096  0.1130
   16CHTO   H17 6740   5.227   1.642   1.927 -2.3197 -0.1386 -2.1212
   16CHTO    O1 6741   5.241   1.850   1.869  0.2726 -0.5367 -0.1291
   16CHTO    C5 6742   5.379   1.878   1.850  0.6734 -1.0555  0.1057
   16CHTO   H18 6743   5.429   1.791   1.807  0.5607  0.1414 -2.4713
   16CHTO   C16 6744   5.373   1.987   1.744 -0.0644 -0.4915  0.3703
   16CHTO   O11 6745   5.305   2.100   1.779 -0.1112 -0.0079  0.1550
   16CHTO    H5 6746   5.353   2.177   1.755  0.8453 -1.2061 -1.9237
   16CHTO    O3 6747   5.064   1.755   1.954  0.3570 -0.5436 -0.0220
   16CHTO    C6 6748   5.000   1.665   1.851  0.0547  0.1252  0.0474
   16CHTO   H19 6749   5.074   1.638   1.776 -0.2991 -0.2400 -0.1724
   16CHTO    C8 6750   4.929   1.536   1.926 -0.8372 -0.1638  0.0378
   16CHTO   H21 6751   4.864   1.573   2.005  0.0602 -1.4951  1.4330
   16CHTO    O7 6752   5.037   1.458   1.985 -0.5276 -0.1057 -0.0001
   16CHTO    H2 6753   5.111   1.436   1.932 -0.5932 -0.8897  0.2285
   16CHTO   C12 6754   4.859   1.451   1.817 -0.5086 -0.0920  0.3874
   16CHTO   H25 6755   4.943   1.434   1.745 -1.5689 -0.6383 -0.7424
   16CHTO    N3 6756   4.799   1.320   1.874  0.1802 -0.6524  0.7381
   16CHTO   H12 6757   4.810   1.234   1.810  2.1635 -0.3049  0.5744
   16CHTO   H13 6758   4.831   1.300   1.975 -1.4387  0.6751  1.5596
   16CHTO   C15 6759   4.754   1.548   1.741  0.2533  0.1400  0.2122
   16CHTO   H28 6760   4.674   1.575   1.810  0.6213 -2.2856  1.6282
   16CHTO   O10 6761   4.690   1.478   1.618  0.0271  0.4695 -0.3508
   16CHTO    H4 6762   4.623   1.533   1.581 -0.0603  0.7766  0.2538
   16CHTO    O5 6763   4.822   1.662   1.684  0.6940 -0.3691  0.6118
   16CHTO   C10 6764   4.894   1.743   1.776  0.0115  0.7037  0.3170
   16CHTO   H23 6765   4.834   1.774   1.862  0.0194 -1.7363  1.2397
   16CHTO   C17 6766   4.952   1.860   1.696 -0.0225 -0.6558  0.1561
   16CHTO   O12 6767   4.860   1.950   1.642  0.7866 -0.1841 -0.1479
   16CHTO    H6 6768   4.839   2.013   1.708 -2.2642 -1.3654  0.0664
   17CHTO  H203 6769   5.666   4.237   0.953 -0.4081  0.7386 -0.8285
   17CHTO   O82 6770   5.728   4.303   0.931  0.5501  0.0923 -0.1275
   17CHTO  C123 6771   5.658   4.428   0.927 -0.5648  0.0340  0.3757
   17CHTO  H227 6772   5.575   4.423   0.999 -1.7741 -1.1366 -1.0566
   17CHTO   O77 6773   5.753   4.530   0.963  0.8044  0.1052  0.3837
   17CHTO  C118 6774   5.693   4.650   0.979  0.1645 -0.0557 -0.0316
   17CHTO  H222 6775   5.613   4.627   1.051  0.7082  0.7892  0.8610
   17CHTO  C125 6776   5.799   4.740   1.049 -0.3071 -0.7902  0.0645
   17CHTO   O84 6777   5.726   4.850   1.119  0.9333  0.0697  0.5116
   17CHTO  H205 6778   5.776   4.928   1.132 -0.0567  1.1146 -1.5592
   17CHTO  C114 6779   5.630   4.704   0.849 -0.0781  0.3224  0.1370
   17CHTO  H218 6780   5.712   4.717   0.778  0.8907  1.0548  1.3824
   17CHTO  C116 6781   5.538   4.597   0.778  0.0337  0.0057 -0.4777
   17CHTO  H220 6782   5.446   4.592   0.840  0.4369 -0.4727  0.0908
   17CHTO   O79 6783   5.512   4.636   0.644 -0.3816 -0.5272  0.1625
   17CHTO  H201 6784   5.587   4.675   0.603  0.5404 -2.2613  0.1322
   17CHTO  C120 6785   5.596   4.449   0.786  0.3072 -0.0556  0.2493
   17CHTO  H224 6786   5.671   4.435   0.706  0.2039  1.5013 -0.1479
   17CHTO   N21 6787   5.487   4.353   0.757 -0.4092  0.3042  0.9851
   17CHTO  H211 6788   5.503   4.258   0.806 -2.1304  0.0602  1.0854
   17CHTO  H212 6789   5.472   4.339   0.651  0.2538  0.1676  0.9052
   17CHTO   O75 6790   5.569   4.832   0.877  0.8848  0.4846  0.0120
   17CHTO  C112 6791   5.601   4.945   0.767 -0.0392  0.0221  0.1526
   17CHTO  H216 6792   5.592   4.895   0.669  0.2912 -0.0193  0.1414
   17CHTO   O73 6793   5.737   4.985   0.793 -0.3258 -0.1444  0.5029
   17CHTO  C113 6794   5.786   5.081   0.696  0.1282 -0.4833  0.0478
   17CHTO  H217 6795   5.776   5.047   0.591 -1.5723 -3.6514  1.1862
   17CHTO  C124 6796   5.935   5.095   0.724  1.0107  0.5343  1.3332
   17CHTO   O83 6797   5.959   5.123   0.865 -0.1082  0.0289 -0.2637
   17CHTO  H204 6798   6.050   5.105   0.883  0.2620  3.3567  1.4395
   17CHTO  C109 6799   5.708   5.215   0.702  0.2237 -0.2624  0.0145
   17CHTO  H213 6800   5.729   5.250   0.804  0.4184 -1.1450  0.2850
   17CHTO  C110 6801   5.554   5.184   0.680  0.1469 -0.3297 -0.1894
   17CHTO  H214 6802   5.558   5.156   0.575 -1.3369 -1.1543 -0.0323
   17CHTO   O78 6803   5.492   5.318   0.694  0.4845  0.0457 -0.4235
   17CHTO  H200 6804   5.516   5.362   0.773 -1.6591 -0.0557  0.3229
   17CHTO  C111 6805   5.499   5.067   0.771 -0.3420 -0.1210  0.5984
   17CHTO  H215 6806   5.503   5.107   0.873  2.1194  0.6893  0.2286
   17CHTO   N19 6807   5.361   5.024   0.731  0.3915 -0.1334 -0.5413
   17CHTO  H207 6808   5.311   4.959   0.801  0.7317 -0.1152 -0.2800
   17CHTO  H208 6809   5.303   5.090   0.668  1.8050  0.2525 -1.4571
   17CHTO   O74 6810   5.758   5.313   0.594 -0.1809  0.2035 -0.2980
   17CHTO  C115 6811   5.831   5.450   0.652  0.2955 -0.2334 -0.2336
   17CHTO  H219 6812   5.814   5.461   0.759 -0.5427 -0.4959 -0.3374
   17CHTO   O76 6813   5.985   5.443   0.632  0.3251  0.3929 -0.2623
   17CHTO  C122 6814   6.069   5.552   0.668 -0.2674 -0.3621  0.2329
   17CHTO  H226 6815   6.165   5.523   0.625  0.3063 -0.1569  1.3696
   17CHTO  C126 6816   6.091   5.559   0.822  0.0996  0.9188 -0.0420
   17CHTO   O85 6817   6.112   5.431   0.884  0.3024  0.0626 -0.5050
   17CHTO  H206 6818   6.140   5.366   0.823 -1.2802 -0.4379 -0.7314
   17CHTO  C121 6819   6.014   5.690   0.612 -0.5348  0.6093  0.1564
   17CHTO  H225 6820   6.063   5.766   0.676 -1.5224  0.8717  0.6170
   17CHTO   O81 6821   6.059   5.716   0.484  0.7690  0.1273 -0.1491
   17CHTO  H202 6822   6.006   5.676   0.418  2.4426 -1.4131 -0.5718
   17CHTO  C119 6823   5.860   5.712   0.625  0.3104  0.1211 -0.0855
   17CHTO  H223 6824   5.827   5.718   0.728  0.2192 -1.5777 -0.0083
   17CHTO  C117 6825   5.784   5.581   0.572 -0.1884 -0.6910 -0.6399
   17CHTO  H221 6826   5.795   5.570   0.464  1.0390  0.3545 -0.6304
   17CHTO   N20 6827   5.637   5.599   0.597  0.8008 -0.7469  0.5844
   17CHTO  H209 6828   5.574   5.524   0.551 -1.6097  1.6515 -0.1212
   17CHTO  H210 6829   5.599   5.696   0.571 -0.8957 -1.5012  0.1856
   17CHTO   O80 6830   5.816   5.863   0.569 -0.0371  0.2174  0.7352
   17CHTO  C103 6831   5.849   5.997   0.651 -0.3668 -0.0442  0.2673
   17CHTO  H190 6832   5.869   5.981   0.757 -3.3558 -1.3907  0.6857
   17CHTO  C101 6833   5.971   6.089   0.598 -0.3303 -0.5144 -0.1518
   17CHTO  H188 6834   5.956   6.096   0.490  0.6157 -0.6314 -0.2947
   17CHTO   O68 6835   6.107   6.005   0.617  0.0275 -0.4055 -0.0798
   17CHTO  H168 6836   6.182   6.061   0.602 -2.1537  2.0716 -2.1199
   17CHTO   C99 6837   5.970   6.224   0.686  0.6963 -1.0129 -0.3730
   17CHTO  H186 6838   5.993   6.207   0.794 -1.9617  1.2474  0.6430
   17CHTO   N17 6839   6.059   6.333   0.633  0.0960  0.7126  0.1733
   17CHTO  H174 6840   6.067   6.414   0.704  1.9103  0.3515  0.3909
   17CHTO  H175 6841   6.155   6.290   0.611 -1.2176 -1.4629 -1.4970
   17CHTO   C97 6842   5.824   6.274   0.693 -0.5455  0.5798 -0.0063
   17CHTO  H184 6843   5.798   6.314   0.594 -1.8082 -1.1425 -0.3872
   17CHTO   O64 6844   5.731   6.176   0.738  0.2555  0.2297 -0.1713
   17CHTO  C104 6845   5.715   6.075   0.641  0.4311 -0.2724 -0.1646
   17CHTO  H191 6846   5.707   6.104   0.536  1.7011  0.4746 -0.0630
   17CHTO  C108 6847   5.584   5.998   0.677  0.7139  0.1369  0.1273
   17CHTO   O71 6848   5.466   6.081   0.668 -0.2326 -0.1897  0.2448
   17CHTO  H171 6849   5.414   6.060   0.593 -2.8890 -1.0910  2.2493
   17CHTO   O62 6850   5.807   6.374   0.796 -0.4358  0.4974 -0.1201
   17CHTO   C91 6851   5.720   6.485   0.775 -0.1482  0.2152 -0.3166
   17CHTO  H178 6852   5.637   6.445   0.717  0.0341 -1.6001  0.6319
   17CHTO   C92 6853   5.782   6.599   0.689  0.3789  0.9510 -0.1262
   17CHTO  H179 6854   5.856   6.549   0.624 -1.3446 -0.6861 -0.8777
   17CHTO   O66 6855   5.679   6.662   0.609 -0.1340 -0.1042  0.1556
   17CHTO  H166 6856   5.623   6.722   0.655 -0.0020  0.5058 -0.4540
   17CHTO   C93 6857   5.859   6.709   0.778 -0.0633  0.7633  0.3073
   17CHTO  H180 6858   5.894   6.792   0.715 -1.0361 -0.3350 -1.7243
   17CHTO   N16 6859   5.987   6.688   0.847  0.0706 -0.6669  0.3496
   17CHTO  H172 6860   5.974   6.605   0.916 -0.4615 -0.1320  0.8920
   17CHTO  H173 6861   6.071   6.663   0.783  0.7112 -1.0920  1.3383
   17CHTO   C94 6862   5.750   6.768   0.876 -0.0660  0.2643 -0.1432
   17CHTO  H181 6863   5.792   6.798   0.972  1.5191 -0.4632 -0.6002
   17CHTO   O61 6864   5.626   6.693   0.895 -0.1727 -0.3996  0.2437
   17CHTO   C95 6865   5.652   6.550   0.901  0.1704  0.5317  0.3366
   17CHTO  H182 6866   5.712   6.531   0.991  0.2088  2.0908  0.6550
   17CHTO  C106 6867   5.516   6.483   0.942  0.4150 -0.2126  0.0879
   17CHTO   O69 6868   5.522   6.343   0.959  0.2933  0.5020  0.3427
   17CHTO  H169 6869   5.465   6.296   0.902 -0.1023 -0.6099  1.6388
   17CHTO   O63 6870   5.716   6.901   0.803  0.0418 -0.3687  0.4973
   17CHTO   C96 6871   5.721   7.014   0.885 -0.3825 -0.3568  0.9318
   17CHTO  H183 6872   5.689   6.986   0.985 -0.8936  0.2585  0.9446
   17CHTO   C98 6873   5.611   7.126   0.844 -0.2689 -0.3749 -0.2688
   17CHTO  H185 6874   5.627   7.160   0.741 -0.7437 -1.5975 -0.7519
   17CHTO   O67 6875   5.479   7.067   0.837 -0.5998  0.0851 -0.7581
   17CHTO  H167 6876   5.472   6.982   0.798 -0.3900 -0.7708  1.0122
   17CHTO  C102 6877   5.612   7.249   0.943 -0.0422  0.0793 -0.4892
   17CHTO  H189 6878   5.568   7.216   1.038  1.7545  2.5466  1.2590
   17CHTO   N18 6879   5.532   7.370   0.902  0.6286  0.2132 -0.3393
   17CHTO  H176 6880   5.558   7.448   0.972 -0.1722  0.0896  0.1015
   17CHTO  H177 6881   5.561   7.413   0.807 -1.3113 -0.3578 -1.2081
   17CHTO  C105 6882   5.756   7.291   0.969  0.0016  0.0165 -0.1918
   17CHTO  H192 6883   5.766   7.398   0.955 -3.8477  0.3697 -0.5885
   17CHTO   O65 6884   5.865   7.231   0.896 -0.4186 -0.0739 -0.4903
   17CHTO  C100 6885   5.868   7.084   0.884 -0.0540 -1.2425  0.3500
   17CHTO  H187 6886   5.921   7.056   0.791 -2.1114 -0.8859 -0.9565
   17CHTO  C107 6887   5.951   7.019   0.993  0.0099 -0.0259  0.3323
   17CHTO   O70 6888   6.081   7.062   1.009  0.5966 -0.4855 -0.3503
   17CHTO  H170 6889   6.077   7.151   0.981 -0.5942 -0.0326  1.1866
   17CHTO   O57 6890   5.773   7.259   1.112 -0.1173 -0.1275 -0.0102
   17CHTO   C85 6891   5.795   7.343   1.228 -0.3824  0.6062  0.3793
   17CHTO  H157 6892   5.713   7.419   1.225 -1.9592 -1.1275 -2.0268
   17CHTO   C83 6893   5.935   7.405   1.202  0.8174 -0.3066 -0.1240
   17CHTO  H155 6894   5.937   7.452   1.103 -2.1406 -1.3417 -0.7269
   17CHTO   O56 6895   6.027   7.297   1.195  0.2291  0.5637 -0.6881
   17CHTO  H135 6896   6.016   7.231   1.261  0.9557  1.7813  0.6617
   17CHTO   C81 6897   5.959   7.514   1.311 -0.4059 -1.0995  0.0201
   17CHTO  H153 6898   5.878   7.586   1.303 -0.6382 -1.2457  1.0025
   17CHTO   N14 6899   6.082   7.597   1.285  0.3249 -0.4488  0.4816
   17CHTO  H141 6900   6.078   7.686   1.344  0.2541 -0.7586  0.9505
   17CHTO  H142 6901   6.171   7.540   1.300  1.3591  0.6898 -1.2664
   17CHTO   C79 6902   5.959   7.439   1.454 -0.1349  0.5375 -0.3293
   17CHTO  H151 6903   5.966   7.518   1.529  0.8597 -2.5788  2.9968
   17CHTO   O52 6904   5.833   7.366   1.477 -0.2015  0.2611  0.1652
   17CHTO   C86 6905   5.804   7.269   1.370 -0.1156  0.4266  0.6037
   17CHTO  H158 6906   5.888   7.196   1.375  0.2075  0.7711  0.1660
   17CHTO   C90 6907   5.674   7.194   1.398 -0.0841 -0.6167  0.2503
   17CHTO   O60 6908   5.560   7.279   1.382  0.2370  0.1931 -0.2857
   17CHTO  H138 6909   5.577   7.365   1.416  0.9288  0.4811 -1.3405
   17CHTO   O50 6910   6.071   7.352   1.475  0.0696 -0.0307 -0.3914
   17CHTO   C73 6911   6.163   7.289   1.572 -0.6231 -0.3010  0.2093
   17CHTO  H145 6912   6.218   7.367   1.626 -2.4174  1.0064  0.2055
   17CHTO   C74 6913   6.264   7.196   1.491  0.7267 -0.0759 -0.2541
   17CHTO  H146 6914   6.316   7.263   1.420  0.2172 -0.2947 -0.8389
   17CHTO   O54 6915   6.368   7.151   1.576  0.2803  0.1122  0.5498
   17CHTO  H133 6916   6.392   7.215   1.641 -1.4666 -0.9831  2.3391
   17CHTO   C75 6917   6.186   7.075   1.418  1.1485  0.6038 -0.1924
   17CHTO  H147 6918   6.118   7.111   1.339  1.9757  1.0667 -0.7001
   17CHTO   N13 6919   6.270   6.982   1.342 -0.3027 -0.0101  0.2564
   17CHTO  H139 6920   6.272   6.879   1.372  2.4940 -0.6471 -1.9540
   17CHTO  H140 6921   6.367   7.027   1.324  0.5262 -1.7655  0.2902
   17CHTO   C76 6922   6.094   7.001   1.525 -0.7973  0.4577  0.2010
   17CHTO  H148 6923   6.167   6.952   1.589  1.7140 -1.0115 -3.5458
   17CHTO   O49 6924   6.014   7.088   1.599 -0.3254 -0.7287  0.2794
   17CHTO   C77 6925   6.084   7.194   1.672  0.2026  0.2331  0.0672
   17CHTO  H149 6926   6.152   7.141   1.739 -0.8817 -2.0186 -0.5575
   17CHTO   C88 6927   5.987   7.284   1.755  0.3185 -0.0493 -0.1363
   17CHTO   O58 6928   6.065   7.343   1.869  0.3810 -0.3414 -0.7207
   17CHTO  H136 6929   6.051   7.436   1.863 -2.9978 -0.9022 -2.8294
   17CHTO   O51 6930   6.006   6.882   1.452  0.2017 -0.8585 -0.1897
   17CHTO   C78 6931   5.898   6.809   1.561  0.3361 -0.0552 -0.3161
   17CHTO  H150 6932   5.827   6.881   1.607 -0.6083 -0.0939 -1.6780
   17CHTO   C80 6933   5.970   6.727   1.675 -0.0469 -0.1156  0.1589
   17CHTO  H152 6934   6.062   6.683   1.631  0.1072  0.3847 -0.0247
   17CHTO   O55 6935   6.013   6.820   1.773  0.0835  0.4237  0.3041
   17CHTO  H134 6936   5.954   6.840   1.843  0.3157  2.6504 -0.1313
   17CHTO   C84 6937   5.862   6.626   1.740  0.1155 -0.2830 -0.1418
   17CHTO  H156 6938   5.778   6.678   1.785 -1.9786 -2.1401 -1.8280
   17CHTO   N15 6939   5.928   6.547   1.848 -0.3224 -0.4490 -0.5393
   17CHTO  H143 6940   5.847   6.503   1.903  0.1477 -2.2914 -1.2844
   17CHTO  H144 6941   5.991   6.602   1.915 -0.5953  0.6644 -1.1857
   17CHTO   C87 6942   5.802   6.539   1.630  0.5324 -0.4776  0.1657
   17CHTO  H159 6943   5.876   6.474   1.583  0.7835  0.1173 -0.2711
   17CHTO   O53 6944   5.732   6.650   1.518  0.5851 -0.0595  0.7384
   17CHTO   C82 6945   5.828   6.731   1.451 -0.5768 -0.2054  0.4125
   17CHTO  H154 6946   5.895   6.665   1.396 -0.5689 -1.2626  1.6769
   17CHTO   C89 6947   5.757   6.813   1.348  0.2917 -0.6578  0.4896
   17CHTO   O59 6948   5.702   6.736   1.239  0.0365  0.5229 -0.8450
   17CHTO  H137 6949   5.621   6.697   1.266  0.0588  0.6191 -0.6350
   17CHTO   O45 6950   5.669   6.442   1.690 -0.3623 -0.1488 -0.0763
   17CHTO   C67 6951   5.582   6.359   1.610 -0.8715 -0.3621 -0.0308
   17CHTO  H124 6952   5.544   6.279   1.674  0.3541  0.0881  1.2876
   17CHTO   C65 6953   5.461   6.440   1.555  0.1748 -0.2414  0.1971
   17CHTO  H122 6954   5.501   6.538   1.529 -1.8701  0.3089 -1.0101
   17CHTO   O44 6955   5.382   6.462   1.667 -0.4613 -0.1246  0.2941
   17CHTO  H102 6956   5.348   6.384   1.706 -1.5226  0.4431  0.5223
   17CHTO   C63 6957   5.392   6.384   1.423  0.2749 -0.5665 -0.0064
   17CHTO  H120 6958   5.446   6.417   1.335  0.6015 -1.4921 -0.1554
   17CHTO   N11 6959   5.255   6.433   1.385  1.3360 -0.9332  0.3241
   17CHTO  H108 6960   5.189   6.364   1.434 -0.5984  1.0806  0.6110
   17CHTO  H109 6961   5.230   6.407   1.284 -2.0455 -0.5137  0.9853
   17CHTO   C61 6962   5.409   6.228   1.408 -0.5117 -0.0497 -0.4050
   17CHTO  H118 6963   5.385   6.210   1.302  0.1318 -0.1498 -0.5380
   17CHTO   O40 6964   5.547   6.180   1.424  1.0350 -0.1528  0.0724
   17CHTO   C68 6965   5.649   6.276   1.489  0.4406 -0.5154  0.0897
   17CHTO  H125 6966   5.692   6.346   1.415  1.4659 -0.9195  0.3043
   17CHTO   C72 6967   5.759   6.192   1.538 -0.6448  0.4223  0.1705
   17CHTO   O48 6968   5.722   6.105   1.642  0.4121  0.0471 -0.3204
   17CHTO  H105 6969   5.789   6.051   1.680 -1.4764 -0.7931  2.0070
   17CHTO   O38 6970   5.327   6.157   1.503 -0.1506  0.2740 -0.1445
   17CHTO   C55 6971   5.199   6.088   1.497 -1.5154 -0.0798  0.0496
   17CHTO  H112 6972   5.187   6.010   1.573  3.6825  1.8739  3.1692
   17CHTO   C56 6973   5.171   6.037   1.351  0.5838 -0.8393 -0.0106
   17CHTO  H113 6974   5.162   6.122   1.281 -0.7043 -0.0047  1.1488
   17CHTO   O42 6975   5.285   5.960   1.311 -0.0324 -0.1473  0.5958
   17CHTO  H100 6976   5.306   5.902   1.381 -3.3463 -0.5925  1.2639
   17CHTO   C57 6977   5.042   5.946   1.350 -0.9582  0.6540 -0.0351
   17CHTO  H114 6978   5.069   5.863   1.415 -0.6800  3.1565  3.2392
   17CHTO   N10 6979   5.000   5.879   1.221  0.4251  0.2646  0.1652
   17CHTO  H106 6980   5.042   5.780   1.209  1.8910  0.5595  2.5811
   17CHTO  H107 6981   5.026   5.945   1.139  1.2791  1.0598  1.0528
   17CHTO   C58 6982   4.920   6.019   1.416 -0.6791  0.5853 -0.6311
   17CHTO  H115 6983   4.891   6.100   1.345 -1.6978  0.0015 -0.8914
   17CHTO   O37 6984   4.958   6.082   1.544 -0.2661 -1.1321 -0.7049
   17CHTO   C59 6985   5.080   6.168   1.541  0.7774 -0.4266 -0.1703
   17CHTO  H116 6986   5.068   6.256   1.479  2.8154 -0.2641 -0.3646
   17CHTO   C70 6987   5.100   6.226   1.683  0.5280 -0.2530 -0.5822
   17CHTO   O46 6988   5.099   6.127   1.792 -0.4524 -0.4381  0.2939
   17CHTO  H103 6989   5.179   6.129   1.841  0.6922 -1.3775 -1.4686
   17CHTO   O39 6990   4.801   5.931   1.452  0.4750  0.4210 -0.0432
   17CHTO   C60 6991   4.681   6.008   1.496 -0.0477 -0.7983  0.5265
   17CHTO  H117 6992   4.712   6.099   1.548 -0.2109  0.0898 -0.9039
   17CHTO   C62 6993   4.607   6.065   1.379  0.4023 -0.0288  0.2236
   17CHTO  H119 6994   4.684   6.104   1.310 -0.8930  0.6248 -0.8653
   17CHTO   O43 6995   4.547   5.962   1.307 -0.3503 -0.1452  0.0457
   17CHTO  H101 6996   4.493   5.906   1.359 -0.3406 -1.8093 -1.6961
   17CHTO   C66 6997   4.511   6.178   1.428 -0.3878 -0.6321  0.0873
   17CHTO  H123 6998   4.552   6.247   1.502 -3.0933  0.0798  0.9794
   17CHTO   N12 6999   4.473   6.266   1.317 -0.4501  0.0588  0.6588
   17CHTO  H110 7000   4.570   6.295   1.279 -1.4412  0.1090 -1.9528
   17CHTO  H111 7001   4.414   6.352   1.344  1.5622  1.7812 -0.3123
   17CHTO   C69 7002   4.389   6.119   1.502 -0.6102 -0.1914  0.3335
   17CHTO  H126 7003   4.331   6.066   1.423  1.4889  2.5160 -3.1715
   17CHTO   O41 7004   4.438   6.013   1.626 -0.5900 -0.1002 -0.4012
   17CHTO   C64 7005   4.585   5.924   1.592  0.1134 -1.0180  0.3458
   17CHTO  H121 7006   4.552   5.826   1.550  1.6377 -1.0800 -0.7292
   17CHTO   C71 7007   4.657   5.889   1.724 -0.0680 -0.3325 -0.2273
   17CHTO   O47 7008   4.756   5.791   1.700  0.3637  0.0879 -0.0781
   17CHTO  H104 7009   4.751   5.737   1.777  2.1359  1.0549  0.7356
   17CHTO   O34 7010   4.303   6.252   1.564  0.2955  0.1339  0.0300
   17CHTO   C49 7011   4.184   6.349   1.510  0.3629 -0.2791 -0.5891
   17CHTO   H91 7012   4.235   6.442   1.488  2.2900 -1.2586 -0.3624
   17CHTO   C47 7013   4.090   6.366   1.636  0.5122 -0.1420  0.9066
   17CHTO   H89 7014   4.030   6.453   1.604  0.9511 -0.9713 -2.3231
   17CHTO   O33 7015   4.165   6.402   1.753  0.7473 -0.0492 -0.0862
   17CHTO   H70 7016   4.213   6.479   1.729  0.6222  0.0474 -0.0289
   17CHTO   C45 7017   3.997   6.234   1.667 -0.2935  0.1014  0.0777
   17CHTO   H87 7018   4.038   6.188   1.758 -1.7013  1.4456  1.4247
   17CHTO    N8 7019   3.862   6.289   1.709  0.1107 -0.4489 -0.2740
   17CHTO   H75 7020   3.828   6.238   1.799  0.9206  1.7874  1.3309
   17CHTO   H76 7021   3.795   6.264   1.627 -1.0770 -0.7237  0.7608
   17CHTO   C43 7022   3.999   6.143   1.540 -0.9435  0.0246  0.7628
   17CHTO   H85 7023   4.093   6.088   1.531 -1.0241  0.0811 -0.5134
   17CHTO   O29 7024   3.976   6.225   1.418  0.5533 -0.0884  0.3267
   17CHTO   C50 7025   4.094   6.306   1.386 -0.0401 -0.0247  0.0160
   17CHTO   H92 7026   4.158   6.240   1.326  1.5128 -0.0590  1.6442
   17CHTO   C54 7027   4.058   6.426   1.299 -0.6468  0.3518 -0.6154
   17CHTO   O36 7028   3.966   6.514   1.357 -0.3844 -0.1050 -0.1789
   17CHTO   H72 7029   3.879   6.493   1.332 -0.9515  0.8571  0.9426
   17CHTO   O27 7030   3.906   6.035   1.561  0.0437  0.6768 -0.0356
   17CHTO   C37 7031   3.948   5.906   1.613 -0.0586  0.7832  0.4444
   17CHTO   H79 7032   4.043   5.913   1.667  0.9129  0.0072 -1.1143
   17CHTO   C38 7033   3.849   5.853   1.719  0.1633 -0.4148 -0.3752
   17CHTO   H80 7034   3.747   5.867   1.679  0.8002  1.1013 -1.5267
   17CHTO   O31 7035   3.871   5.949   1.822  0.1541  0.1908  0.3716
   17CHTO   H68 7036   3.845   6.033   1.791  0.9184  0.0953 -0.5443
   17CHTO   C39 7037   3.886   5.706   1.760 -0.6233  0.0246 -0.3467
   17CHTO   H81 7038   3.988   5.713   1.798 -0.6925  2.6492 -0.5600
   17CHTO    N7 7039   3.798   5.649   1.870 -0.2359 -0.3451  0.3511
   17CHTO   H73 7040   3.861   5.632   1.956 -2.4155  0.3776  2.1527
   17CHTO   H74 7041   3.711   5.712   1.885 -0.4298 -0.3801 -0.5556
   17CHTO   C40 7042   3.900   5.618   1.630  0.4334 -0.1962 -0.3846
   17CHTO   H82 7043   3.796   5.612   1.598  0.7961  0.8169 -1.8068
   17CHTO   O26 7044   3.980   5.673   1.527 -0.5118 -0.0453 -0.6509
   17CHTO   C41 7045   3.975   5.814   1.491  0.0618 -0.3189  0.3870
   17CHTO   H83 7046   3.897   5.826   1.414  1.1792 -1.7602 -1.0012
   17CHTO   C52 7047   4.106   5.847   1.422  0.0690  0.3113  0.3200
   17CHTO   O35 7048   4.230   5.815   1.513  0.4828 -0.8373 -0.3091
   17CHTO   H71 7049   4.296   5.792   1.450  1.1324  2.8909 -1.1108
   17CHTO   O28 7050   3.960   5.485   1.656  0.2784 -0.0543 -0.0302
   17CHTO   C42 7051   4.101   5.441   1.634  0.4394 -0.4391 -0.0787
   17CHTO   H84 7052   4.096   5.345   1.684 -2.1005 -1.8986 -2.9484
   17CHTO   C44 7053   4.214   5.521   1.704  0.1611  0.8677 -0.2645
   17CHTO   H86 7054   4.217   5.621   1.661  1.6325  0.3695 -1.3476
   17CHTO   O32 7055   4.180   5.518   1.844  0.6657 -0.2522 -0.1820
   17CHTO   H69 7056   4.096   5.560   1.854 -1.7537 -4.7415 -0.5911
   17CHTO   C48 7057   4.360   5.459   1.674 -0.0717 -0.0421 -0.0276
   17CHTO   H90 7058   4.375   5.358   1.711  0.1891 -0.1256 -0.3631
   17CHTO    N9 7059   4.466   5.547   1.734 -0.0282  0.4408 -0.4980
   17CHTO   H77 7060   4.412   5.628   1.779  0.0020 -0.5152  1.3173
   17CHTO   H78 7061   4.530   5.491   1.801  1.8133  0.9159 -1.8203
   17CHTO   C51 7062   4.378   5.460   1.515  0.4752  0.2255 -0.1658
   17CHTO   H93 7063   4.357   5.563   1.485  0.2650  0.5100  0.9366
   17CHTO   O30 7064   4.276   5.368   1.468 -0.3820 -0.6643  0.1979
   17CHTO   C46 7065   4.127   5.409   1.482 -0.3186 -0.2459  0.2396
   17CHTO   H88 7066   4.123   5.498   1.420 -0.1973 -0.1517  0.3685
   17CHTO   C53 7067   4.041   5.292   1.438 -0.2339 -0.0242  0.3165
   17CHTO   O72 7068   4.075   5.242   1.312 -0.1364 -0.2211  0.6283
   17CHTO  H199 7069   4.054   5.151   1.311 -1.7040  0.1165  1.1607
   17CHTO   O22 7070   4.506   5.409   1.461  0.6239  0.6289 -0.0189
   17CHTO   C31 7071   4.546   5.418   1.317 -0.0133 -0.3723  0.4836
   17CHTO   H59 7072   4.635   5.352   1.308 -0.6037 -0.9480 -1.4044
   17CHTO   C29 7073   4.443   5.378   1.211 -0.4905  0.1651 -0.6196
   17CHTO   H57 7074   4.367   5.456   1.205  1.7442  2.3438 -1.3916
   17CHTO   O21 7075   4.390   5.251   1.250  0.1952  0.1619  0.1187
   17CHTO   H37 7076   4.411   5.186   1.186 -2.4563 -0.7923  0.1649
   17CHTO   C27 7077   4.511   5.374   1.065  0.2093 -0.3967  0.2755
   17CHTO   H55 7078   4.597   5.305   1.073  2.5114  2.4716  1.5480
   17CHTO    N5 7079   4.421   5.326   0.958 -0.4759 -0.1704  0.1310
   17CHTO   H43 7080   4.323   5.370   0.959 -1.0053 -1.2358 -1.9824
   17CHTO   H44 7081   4.460   5.324   0.857 -1.9324 -0.2903 -0.4326
   17CHTO   C25 7082   4.553   5.523   1.041 -0.0882  0.3546  0.2605
   17CHTO   H53 7083   4.460   5.581   1.035 -0.8060 -0.7539  0.5430
   17CHTO   O17 7084   4.645   5.577   1.141  0.2814 -0.0271  0.0689
   17CHTO   C32 7085   4.600   5.561   1.277 -0.1808  0.0132 -0.2132
   17CHTO   H60 7086   4.528   5.638   1.304  0.1296  1.5257 -3.5212
   17CHTO   C36 7087   4.726   5.600   1.349  0.7494  0.3129 -0.0663
   17CHTO   O25 7088   4.835   5.518   1.319 -0.4410 -0.0630 -0.7720
   17CHTO   H40 7089   4.919   5.560   1.327  0.2972 -1.4613 -0.9217
   17CHTO   O15 7090   4.621   5.544   0.927 -0.2369  0.0123  0.5087
   17CHTO   C19 7091   4.690   5.661   0.876 -0.4742  0.2841 -0.0221
   17CHTO   H47 7092   4.722   5.621   0.778 -2.5526  0.7263 -0.9109
   17CHTO   C20 7093   4.588   5.777   0.843  0.0155  0.5080 -0.3205
   17CHTO   H48 7094   4.520   5.802   0.926 -2.0356  0.1818 -1.8708
   17CHTO   O19 7095   4.507   5.717   0.743  0.7256 -0.2464  0.1110
   17CHTO   H35 7096   4.554   5.698   0.665  0.8186  2.5954 -0.5784
   17CHTO   C21 7097   4.667   5.900   0.787  0.5626  0.3853  0.3056
   17CHTO   H49 7098   4.714   5.868   0.694  0.8741  0.7728  0.3291
   17CHTO    N4 7099   4.577   6.022   0.757  0.4945  0.1373 -0.0577
   17CHTO   H41 7100   4.643   6.102   0.724  0.2277  1.1946  1.8901
   17CHTO   H42 7101   4.500   6.011   0.682 -0.5707  1.5888  0.7876
   17CHTO   C22 7102   4.787   5.936   0.881  0.8294 -0.5066 -0.1658
   17CHTO   H50 7103   4.749   5.950   0.982 -0.8431 -1.6710 -0.6120
   17CHTO   O14 7104   4.872   5.815   0.884 -0.3206  0.1154 -0.3439
   17CHTO   C23 7105   4.817   5.705   0.944 -0.6460 -0.5647  0.4497
   17CHTO   H51 7106   4.810   5.716   1.054  1.4919  0.8040  0.4759
   17CHTO   C34 7107   4.937   5.609   0.942 -0.0752  0.0429 -0.3976
   17CHTO   O23 7108   4.916   5.467   0.970  0.1405 -0.4423  0.1150
   17CHTO   H38 7109   4.893   5.447   1.058  0.6473  0.3982  0.4429
   17CHTO   O16 7110   4.875   6.039   0.833 -0.2057 -0.8586 -0.0427
   17CHTO   C24 7111   4.911   6.148   0.957  0.0266  0.6068 -0.4062
   17CHTO   H52 7112   4.930   6.099   1.052 -0.8632 -0.6669 -0.8744
   17CHTO   C26 7113   4.800   6.247   0.979  0.8678  0.0471  0.4964
   17CHTO   H54 7114   4.779   6.305   0.887 -1.5490  1.0400  1.6107
   17CHTO   O20 7115   4.688   6.171   1.027  0.6816 -0.5712  0.2680
   17CHTO   H36 7116   4.624   6.227   1.066  1.6051 -0.4294  1.6208
   17CHTO   C30 7117   4.845   6.349   1.088  0.5195 -0.0578 -0.1871
   17CHTO   H58 7118   4.860   6.297   1.184  0.3137 -1.2802 -0.8068
   17CHTO    N6 7119   4.743   6.449   1.126 -0.5758 -0.0922  0.2010
   17CHTO   H45 7120   4.659   6.452   1.059  2.9109  1.7986 -4.3261
   17CHTO   H46 7121   4.712   6.430   1.228  0.0294  2.6357  0.9453
   17CHTO   C33 7122   4.980   6.415   1.041 -0.6322 -0.3638  0.4688
   17CHTO   H61 7123   4.975   6.474   0.949 -3.5625  1.5074  1.7669
   17CHTO   O18 7124   5.070   6.308   1.012  0.5292  0.2487  0.5516
   17CHTO   C28 7125   5.043   6.214   0.912 -0.4020  0.1594 -0.1805
   17CHTO   H56 7126   5.028   6.261   0.815 -1.5596 -0.5650 -0.3709
   17CHTO   C35 7127   5.168   6.122   0.897 -0.4215  0.0859  0.2077
   17CHTO   O24 7128   5.290   6.195   0.877  0.0089 -0.4832 -0.0872
   17CHTO   H39 7129   5.358   6.145   0.919  1.6251  0.4560 -1.5362
   17CHTO    O9 7130   5.036   6.505   1.139  0.0906 -0.4637 -0.0279
   17CHTO   C13 7131   5.132   6.642   1.048 -0.1074  0.3073 -0.0376
   17CHTO   H26 7132   5.194   6.598   0.967  0.9621  0.2307  0.8071
   17CHTO   C11 7133   5.221   6.731   1.151  0.1678 -0.1340 -0.0953
   17CHTO   H24 7134   5.310   6.673   1.180  0.3398 -1.4756 -3.1142
   17CHTO    O8 7135   5.141   6.769   1.260 -0.4288  0.1904 -0.0183
   17CHTO    H3 7136   5.183   6.839   1.307  0.8346 -1.2190  1.0289
   17CHTO    C9 7137   5.280   6.852   1.069 -0.1639  0.0573 -0.0487
   17CHTO   H22 7138   5.330   6.803   0.984 -0.3723 -2.5996  1.2797
   17CHTO    N2 7139   5.386   6.930   1.135  0.8883  0.0123  0.1693
   17CHTO   H10 7140   5.463   6.861   1.167 -0.3490 -1.7953 -0.6724
   17CHTO   H11 7141   5.349   6.988   1.218  2.1050  0.3235  0.4998
   17CHTO    C7 7142   5.168   6.943   1.012 -0.5115  0.8304  0.0335
   17CHTO   H20 7143   5.223   7.010   0.943  0.7604 -0.7446 -0.4950
   17CHTO    O4 7144   5.091   6.861   0.920  0.3488 -0.2969 -0.5492
   17CHTO   C14 7145   5.036   6.740   0.963  0.4674  0.3929 -0.2939
   17CHTO   H27 7146   5.003   6.681   0.875 -0.0827  0.7336 -0.3146
   17CHTO   C18 7147   4.910   6.772   1.049  0.3248 -0.3138 -0.0133
   17CHTO   O13 7148   4.819   6.869   0.988  0.1191 -0.2930  0.3862
   17CHTO    H7 7149   4.735   6.828   0.986  0.9402 -1.9464 -1.8944
   17CHTO    O2 7150   5.071   7.017   1.120 -0.3101 -0.4464  0.1460
   17CHTO    C1 7151   5.050   7.161   1.108 -0.0905  0.3400 -0.3708
   17CHTO   H14 7152   4.984   7.178   1.020 -2.0344 -0.4222  0.9126
   17CHTO    C2 7153   5.177   7.257   1.099 -0.0762 -0.1248  0.0220
   17CHTO   H15 7154   5.245   7.225   1.179  0.6625  1.7028  0.1522
   17CHTO    O6 7155   5.239   7.246   0.972  0.6057  0.4977  0.1336
   17CHTO    H1 7156   5.326   7.278   0.989  0.8293 -0.9374  1.8561
   17CHTO    C3 7157   5.148   7.414   1.127 -0.0238 -0.0494 -0.2029
   17CHTO   H16 7158   5.099   7.450   1.035  1.4566  1.2825 -0.5004
   17CHTO    N1 7159   5.276   7.497   1.150  0.0416 -0.3848  0.8484
   17CHTO    H8 7160   5.259   7.601   1.130  0.9979 -0.3252  0.3457
   17CHTO    H9 7161   5.304   7.485   1.254 -0.0359  1.5462  1.0952
   17CHTO    C4 7162   5.043   7.432   1.250  0.1416  0.6407  0.1712
   17CHTO   H17 7163   5.083   7.407   1.348  0.1372 -0.7410 -0.1780
   17CHTO    O1 7164   4.931   7.347   1.231  0.1945  0.1857  0.3812
   17CHTO    C5 7165   4.967   7.207   1.226  0.4711  0.3926 -0.3296
   17CHTO   H18 7166   5.028   7.192   1.315  0.3225  2.4824  0.1542
   17CHTO   C16 7167   4.836   7.124   1.259 -0.4409 -0.0302  0.3063
   17CHTO   O11 7168   4.785   7.151   1.387 -0.4669  0.3025 -0.3807
   17CHTO    H5 7169   4.701   7.115   1.404  0.9152 -1.8945  2.2362
   17CHTO    O3 7170   4.993   7.562   1.267  0.1414  0.0753  0.2743
   17CHTO    C6 7171   4.933   7.609   1.394  0.2090  0.2348 -0.8009
   17CHTO   H19 7172   4.909   7.716   1.393 -1.1153  0.0596  3.5235
   17CHTO    C8 7173   4.795   7.543   1.419  0.7025 -0.1929 -0.2423
   17CHTO   H21 7174   4.814   7.436   1.421 -0.5685 -0.4298 -0.5133
   17CHTO    O7 7175   4.708   7.572   1.309 -0.2704 -0.0445  0.3749
   17CHTO    H2 7176   4.749   7.535   1.234  0.7453  1.2626  0.2571
   17CHTO   C12 7177   4.745   7.594   1.562  0.2144  0.1055 -0.4146
   17CHTO   H25 7178   4.729   7.703   1.545  1.8539  0.0986 -2.1022
   17CHTO    N3 7179   4.606   7.544   1.595 -0.3364  0.5307 -0.0537
   17CHTO   H12 7180   4.587   7.448   1.548 -0.9941  1.9362 -2.7817
   17CHTO   H13 7181   4.588   7.536   1.701 -0.9097 -2.1470 -0.3267
   17CHTO   C15 7182   4.852   7.570   1.671  0.1580  0.4766 -0.3985
   17CHTO   H28 7183   4.878   7.465   1.681  0.8468  0.6393 -0.4788
   17CHTO   O10 7184   4.820   7.627   1.802  0.0255  0.8888 -0.1018
   17CHTO    H4 7185   4.767   7.566   1.850 -0.9743  0.3420 -1.8318
   17CHTO    O5 7186   4.973   7.634   1.638 -0.1493  0.1321 -0.1588
   17CHTO   C10 7187   5.027   7.590   1.515  0.8366 -0.2088 -0.0788
   17CHTO   H23 7188   5.061   7.487   1.530  3.4981  0.8587  1.7451
   17CHTO   C17 7189   5.167   7.668   1.501 -0.6164  0.2806 -0.1116
   17CHTO   O12 7190   5.245   7.645   1.614  0.1353 -0.3244  0.0887
   17CHTO    H6 7191   5.289   7.727   1.625  0.8828 -0.8481  1.1306
   18CHTO  H203 7192   6.167   8.001   2.255  2.4142  1.9424  1.3717
   18CHTO   O82 7193   6.213   7.919   2.255 -0.1877  0.3904 -0.3422
   18CHTO  C123 7194   6.302   7.916   2.149  0.4877  0.0572 -0.2594
   18CHTO  H227 7195   6.400   7.880   2.184  1.4043  0.0884 -2.7285
   18CHTO   O77 7196   6.239   7.806   2.072 -0.0240  0.0710  0.3843
   18CHTO  C118 7197   6.314   7.764   1.960 -0.6523 -0.0016 -0.1211
   18CHTO  H222 7198   6.408   7.723   2.002 -2.4907 -2.2211  1.9489
   18CHTO  C125 7199   6.230   7.647   1.898  0.0646 -0.1837  0.4812
   18CHTO   O84 7200   6.102   7.691   1.853  0.1129  0.4099 -0.4127
   18CHTO  H205 7201   6.071   7.642   1.779  2.2828 -0.3904 -0.8182
   18CHTO  C114 7202   6.355   7.877   1.865  1.6548  0.0933 -0.3137
   18CHTO  H218 7203   6.266   7.912   1.812  1.8582 -1.1393 -1.4845
   18CHTO  C116 7204   6.413   8.003   1.936  0.2115  0.2911  0.1680
   18CHTO  H220 7205   6.513   7.982   1.979  0.2395  0.7569  0.3325
   18CHTO   O79 7206   6.423   8.118   1.846 -0.1055 -0.0793 -0.6705
   18CHTO  H201 7207   6.334   8.144   1.835 -0.2109 -0.6808 -1.2098
   18CHTO  C120 7208   6.321   8.045   2.060  0.4967 -1.0495 -0.2956
   18CHTO  H224 7209   6.224   8.086   2.025  1.0611 -0.1749 -0.8532
   18CHTO   N21 7210   6.372   8.166   2.142 -0.5888  0.5662  0.4093
   18CHTO  H211 7211   6.310   8.181   2.229 -0.3424  0.5693  0.5847
   18CHTO  H212 7212   6.374   8.259   2.086  2.0223  0.7011  0.6686
   18CHTO   O75 7213   6.438   7.809   1.772  0.2020  0.3575  0.4346
   18CHTO  C112 7214   6.595   7.858   1.734 -0.0631  0.0549  0.0220
   18CHTO  H216 7215   6.637   7.895   1.829 -1.8479 -1.2969  1.3637
   18CHTO   O73 7216   6.587   7.960   1.633  0.1188 -0.7256 -0.0798
   18CHTO  C113 7217   6.713   8.010   1.597  0.3154 -0.6023  0.7415
   18CHTO  H217 7218   6.776   8.035   1.685 -0.6165  1.0056  0.9789
   18CHTO  C124 7219   6.681   8.148   1.532  0.1809  0.0704 -0.0504
   18CHTO   O83 7220   6.794   8.218   1.486 -0.1726 -0.7061  0.4460
   18CHTO  H204 7221   6.754   8.276   1.424 -0.3055  1.9998  2.9145
   18CHTO  C109 7222   6.779   7.906   1.509  0.8203 -0.5107  1.2899
   18CHTO  H213 7223   6.711   7.888   1.425 -0.9233  2.5294  1.9823
   18CHTO  C110 7224   6.799   7.780   1.599  0.4608  0.5803 -0.2529
   18CHTO  H214 7225   6.882   7.807   1.666 -0.3854  1.4823  0.4511
   18CHTO   O78 7226   6.845   7.664   1.523  0.8365 -0.2195 -0.0356
   18CHTO  H200 7227   6.849   7.590   1.580 -1.2970  0.5576  1.1539
   18CHTO  C111 7228   6.675   7.736   1.679 -0.2441  1.1073 -0.9105
   18CHTO  H215 7229   6.608   7.679   1.614  0.7678 -2.3321  0.9399
   18CHTO   N19 7230   6.713   7.642   1.790 -0.3792  0.2514  0.1771
   18CHTO  H207 7231   6.687   7.676   1.890  0.5675  1.2591  0.0962
   18CHTO  H208 7232   6.667   7.545   1.778  1.5463 -0.5062 -1.3958
   18CHTO   O74 7233   6.900   7.964   1.452 -0.5186 -0.0311  0.1066
   18CHTO  C115 7234   6.904   7.926   1.290 -0.5079 -0.1329 -0.3929
   18CHTO  H219 7235   6.880   7.821   1.272  1.0997 -0.3588 -1.3269
   18CHTO   O76 7236   6.789   8.015   1.204 -0.5652  0.1746  0.6927
   18CHTO  C122 7237   6.847   8.141   1.165 -0.4050 -0.5230 -0.9272
   18CHTO  H226 7238   6.888   8.186   1.255 -1.2999 -2.4851  0.4886
   18CHTO  C126 7239   6.730   8.236   1.116  0.3834  0.4787 -0.2281
   18CHTO   O85 7240   6.662   8.197   0.995  0.1727  0.3936 -0.2234
   18CHTO  H206 7241   6.583   8.248   0.993  0.7254  1.2584 -0.4758
   18CHTO  C121 7242   6.957   8.130   1.056  0.2102 -0.0797 -0.2960
   18CHTO  H225 7243   6.901   8.139   0.961 -0.4591 -3.2361 -0.2449
   18CHTO   O81 7244   7.058   8.235   1.076 -0.5196  0.3084 -0.7967
   18CHTO  H202 7245   7.142   8.207   1.046 -0.4639 -0.9030  0.4368
   18CHTO  C119 7246   7.018   7.984   1.063 -0.5776  0.2691 -0.1779
   18CHTO  H223 7247   6.942   7.911   1.035  1.8683 -1.5224 -2.4191
   18CHTO  C117 7248   7.046   7.953   1.217  0.1567  0.1559 -1.0723
   18CHTO  H221 7249   7.091   8.032   1.276 -0.0848  0.0353 -0.7237
   18CHTO   N20 7250   7.128   7.832   1.233 -0.3695  1.2536 -0.2916
   18CHTO  H209 7251   7.082   7.759   1.169  0.5640  0.5906 -0.1981
   18CHTO  H210 7252   7.123   7.801   1.336  0.6984 -2.0114 -1.1861
   18CHTO   O80 7253   7.141   7.945   0.944 -0.0963 -0.0312  0.2515
   18CHTO  C103 7254   7.118   7.814   0.833  1.1762  0.0426 -0.2623
   18CHTO  H190 7255   7.193   7.807   0.754  0.4480 -2.7357 -0.7837
   18CHTO  C101 7256   7.113   7.675   0.906 -0.1133  0.1675  0.1073
   18CHTO  H188 7257   7.055   7.687   0.997  0.3483  1.9581  0.1861
   18CHTO   O68 7258   7.250   7.635   0.955 -0.6733  0.2019  0.1564
   18CHTO  H168 7259   7.307   7.709   0.950  0.4119 -0.6848 -1.0008
   18CHTO   C99 7260   7.054   7.560   0.811 -0.0832  0.3702  0.1456
   18CHTO  H186 7261   7.133   7.543   0.735  1.5911  0.7282  1.7767
   18CHTO   N17 7262   7.033   7.426   0.876 -0.6181  0.0436 -0.3488
   18CHTO  H174 7263   7.067   7.348   0.810 -1.8723 -1.0814  0.3029
   18CHTO  H175 7264   6.929   7.400   0.892 -0.1689 -1.1486  0.7196
   18CHTO   C97 7265   6.921   7.604   0.742 -0.1303  0.4253 -0.3035
   18CHTO  H184 7266   6.845   7.615   0.821 -0.0551 -0.1324 -0.1495
   18CHTO   O64 7267   6.946   7.725   0.678 -0.5787 -0.2124  0.5308
   18CHTO  C104 7268   6.976   7.839   0.762 -0.2067 -0.8547 -0.1952
   18CHTO  H191 7269   6.901   7.849   0.841  1.0889 -1.8307  1.1974
   18CHTO  C108 7270   6.977   7.965   0.677 -0.1210 -0.0220 -0.7721
   18CHTO   O71 7271   6.843   8.016   0.658 -0.5636  0.0589 -0.3640
   18CHTO  H171 7272   6.796   7.969   0.592 -1.1574 -0.2048  0.2405
   18CHTO   O62 7273   6.873   7.525   0.629  0.2346  0.2256 -0.6895
   18CHTO   C91 7274   6.729   7.524   0.620 -0.1364  0.0852 -0.4190
   18CHTO  H178 7275   6.685   7.598   0.686  0.8693 -1.1913  1.7252
   18CHTO   C92 7276   6.664   7.386   0.658 -0.3803 -0.4329  0.2999
   18CHTO  H179 7277   6.693   7.314   0.580 -1.9530 -0.0051 -0.7142
   18CHTO   O66 7278   6.717   7.350   0.786 -0.8047  0.3399 -0.2419
   18CHTO  H166 7279   6.661   7.386   0.853 -0.9396  0.5771 -0.4839
   18CHTO   C93 7280   6.505   7.392   0.669  0.8255  0.2620 -0.6961
   18CHTO  H180 7281   6.485   7.442   0.765  4.2180  0.4979 -0.0621
   18CHTO   N16 7282   6.428   7.269   0.690  0.4022 -0.5715  0.4168
   18CHTO  H172 7283   6.322   7.270   0.669  0.8885 -1.7377 -2.3377
   18CHTO  H173 7284   6.456   7.229   0.786 -0.6674  0.1041  1.0095
   18CHTO   C94 7285   6.442   7.476   0.551 -0.1001 -0.4187 -0.2510
   18CHTO  H181 7286   6.365   7.422   0.496 -0.7251 -1.3850  1.5236
   18CHTO   O61 7287   6.536   7.527   0.461 -0.4309  0.5489  0.0842
   18CHTO   C95 7288   6.670   7.563   0.484  0.3833  0.6018  0.3903
   18CHTO  H182 7289   6.728   7.516   0.404 -0.7680  0.6364 -0.4766
   18CHTO  C106 7290   6.689   7.718   0.462  0.9276 -0.0661  0.0514
   18CHTO   O69 7291   6.673   7.778   0.335  0.1857 -0.1434  0.7818
   18CHTO  H169 7292   6.647   7.716   0.269  1.2832 -1.0548  1.1921
   18CHTO   O63 7293   6.371   7.622   0.614 -0.2341 -0.1798 -0.3297
   18CHTO   C96 7294   6.238   7.674   0.551 -0.4383  0.9709 -0.8478
   18CHTO  H183 7295   6.174   7.706   0.634  2.6696  3.4777  0.7038
   18CHTO   C98 7296   6.163   7.582   0.453  0.2167  0.4041 -0.0054
   18CHTO  H185 7297   6.234   7.541   0.380  2.4467  1.9930  1.2065
   18CHTO   O67 7298   6.117   7.469   0.531 -0.1918  0.5502 -0.3124
   18CHTO  H167 7299   6.068   7.500   0.605  2.1955 -0.0880  1.6189
   18CHTO  C102 7300   6.044   7.658   0.375  0.4763  0.9733 -0.1910
   18CHTO  H189 7301   5.960   7.663   0.447  0.3507  0.9223 -0.3340
   18CHTO   N18 7302   5.995   7.578   0.260  0.3122 -0.1662 -0.0229
   18CHTO  H176 7303   6.072   7.530   0.201 -1.4930 -0.7060 -1.9795
   18CHTO  H177 7304   5.919   7.504   0.283 -0.7572  0.1693 -2.3368
   18CHTO  C105 7305   6.080   7.801   0.318 -0.1452 -0.1312 -0.3006
   18CHTO  H192 7306   6.143   7.790   0.230  1.3295  1.0289  0.5808
   18CHTO   O65 7307   6.157   7.865   0.426  0.2006  0.1561  0.4289
   18CHTO  C100 7308   6.279   7.804   0.473 -0.2013 -0.6897 -0.3816
   18CHTO  H187 7309   6.348   7.775   0.393  3.0129  2.0002  1.3042
   18CHTO  C107 7310   6.352   7.892   0.575 -0.8081 -0.2168 -0.0704
   18CHTO   O70 7311   6.373   8.020   0.510  0.4235 -0.1590 -0.2046
   18CHTO  H170 7312   6.466   8.034   0.504  0.6699 -2.3091 -1.7778
   18CHTO   O57 7313   5.946   7.884   0.283  0.2393  0.9517 -0.1243
   18CHTO   C85 7314   5.962   8.008   0.218  0.8696 -0.4432  0.3407
   18CHTO  H157 7315   6.070   8.034   0.215  0.7134  0.1130 -0.6612
   18CHTO   C83 7316   5.906   8.112   0.315 -0.3562 -0.2613 -0.4891
   18CHTO  H155 7317   5.973   8.107   0.401 -1.4879 -3.0433  0.2923
   18CHTO   O56 7318   5.771   8.089   0.351 -0.8723  0.1726  0.4139
   18CHTO  H135 7319   5.750   8.099   0.442  0.9134  1.5236  0.7079
   18CHTO   C81 7320   5.925   8.253   0.252 -0.7992  0.4474  0.0049
   18CHTO  H153 7321   6.030   8.266   0.226  0.1432 -1.8654  2.4766
   18CHTO   N14 7322   5.908   8.366   0.353  0.7391  0.0166  0.1366
   18CHTO  H141 7323   5.993   8.430   0.346  0.0815  0.6662 -2.3863
   18CHTO  H142 7324   5.818   8.420   0.333  1.2546  0.6592 -0.4855
   18CHTO   C79 7325   5.839   8.270   0.124 -0.2493 -0.0753 -0.7507
   18CHTO  H151 7326   5.859   8.369   0.083 -1.5694  1.5547  2.3414
   18CHTO   O52 7327   5.889   8.169   0.029  0.3893 -0.1932  0.0196
   18CHTO   C86 7328   5.894   8.032   0.072  0.2204 -0.4411 -0.5543
   18CHTO  H158 7329   5.787   8.002   0.070 -0.2442  0.3049  5.4239
   18CHTO   C90 7330   5.957   7.943  -0.034 -0.1402 -0.3249  0.7783
   18CHTO   O60 7331   5.954   7.811   0.008  0.2539  0.0230 -0.8068
   18CHTO  H138 7332   6.029   7.780  -0.038  1.5607  1.9159 -0.0544
   18CHTO   O50 7333   5.694   8.246   0.133 -0.3503 -0.3686 -0.1634
   18CHTO   C73 7334   5.564   8.250   0.074 -1.1480  0.6813 -0.7166
   18CHTO  H145 7335   5.561   8.184  -0.014 -1.5116 -0.5190  0.1804
   18CHTO   C74 7336   5.517   8.393   0.042 -0.2688 -0.0339  0.0969
   18CHTO  H146 7337   5.595   8.424  -0.028  0.6784 -3.0623 -0.2848
   18CHTO   O54 7338   5.388   8.389  -0.025 -0.2086 -0.2234 -0.9721
   18CHTO  H133 7339   5.364   8.479  -0.035  2.5615  0.6894  0.0900
   18CHTO   C75 7340   5.514   8.480   0.175 -0.1817  0.9107 -0.5461
   18CHTO  H147 7341   5.614   8.483   0.220  0.2664 -1.9917 -1.2632
   18CHTO   N13 7342   5.480   8.627   0.147  0.1026 -0.8491 -0.0930
   18CHTO  H139 7343   5.402   8.650   0.218  0.1757 -0.0494 -0.2701
   18CHTO  H140 7344   5.456   8.645   0.043  1.5926  2.4542  0.0687
   18CHTO   C76 7345   5.416   8.404   0.275 -0.3138 -0.3989  0.2824
   18CHTO  H148 7346   5.321   8.399   0.222 -0.6279 -0.4946  0.8496
   18CHTO   O49 7347   5.456   8.269   0.295 -0.1964  0.3668  0.3379
   18CHTO   C77 7348   5.456   8.193   0.176 -0.6582 -0.1629 -0.0535
   18CHTO  H149 7349   5.356   8.190   0.131 -1.1302  3.0816  0.6718
   18CHTO   C88 7350   5.474   8.051   0.220  0.4241 -0.4444 -0.1216
   18CHTO   O58 7351   5.442   7.969   0.101  0.1053  0.6552  0.2072
   18CHTO  H136 7352   5.512   7.906   0.098 -0.5958 -0.1011 -0.4929
   18CHTO   O51 7353   5.411   8.460   0.417 -0.0971  0.3936  0.5256
   18CHTO   C78 7354   5.330   8.369   0.536  0.2529 -0.1223  0.2618
   18CHTO  H150 7355   5.296   8.270   0.499 -0.5297  0.5360 -0.8243
   18CHTO   C80 7356   5.207   8.445   0.582  0.3825  0.2033  0.3714
   18CHTO  H152 7357   5.233   8.550   0.605 -0.2162 -0.0995  2.5236
   18CHTO   O55 7358   5.101   8.445   0.483  0.1505  0.1033  0.0898
   18CHTO  H134 7359   5.053   8.522   0.503  0.9308  0.0471  2.2371
   18CHTO   C84 7360   5.153   8.395   0.722  0.4616 -0.1390  0.6270
   18CHTO  H156 7361   5.107   8.296   0.710  2.5856 -1.0524 -0.2124
   18CHTO   N15 7362   5.039   8.483   0.777 -0.1205  0.0482  0.0229
   18CHTO  H143 7363   4.950   8.470   0.718  0.7843  2.1942 -1.8634
   18CHTO  H144 7364   5.013   8.473   0.881  0.2814  2.1126  0.3466
   18CHTO   C87 7365   5.271   8.384   0.821 -0.0182  0.1550  0.2251
   18CHTO  H159 7366   5.317   8.482   0.818  0.9228 -0.3210 -1.0663
   18CHTO   O53 7367   5.357   8.286   0.765 -0.4720  0.6613 -0.4186
   18CHTO   C82 7368   5.434   8.342   0.653 -0.3969 -0.2900  0.1919
   18CHTO  H154 7369   5.480   8.437   0.677 -2.2971  0.2951  1.6233
   18CHTO   C89 7370   5.547   8.243   0.612 -0.4417  0.5778  0.1765
   18CHTO   O59 7371   5.653   8.239   0.707 -0.1176 -0.6107 -0.2370
   18CHTO  H137 7372   5.716   8.178   0.673  0.8046 -0.6126  1.4116
   18CHTO   O45 7373   5.230   8.341   0.965 -0.4565 -0.4703  0.2890
   18CHTO   C67 7374   5.327   8.378   1.066 -0.0918  0.9867 -0.3836
   18CHTO  H124 7375   5.427   8.378   1.021  0.8764 -0.8939  1.6710
   18CHTO   C65 7376   5.299   8.521   1.125  0.4005 -0.0606 -0.0146
   18CHTO  H122 7377   5.193   8.516   1.146  0.8058  0.1777  2.2012
   18CHTO   O44 7378   5.322   8.617   1.016 -0.1021  0.2952  0.1302
   18CHTO  H102 7379   5.302   8.706   1.039  0.8398  0.1550  1.6038
   18CHTO   C63 7380   5.362   8.537   1.270 -0.3031  0.0715 -0.4899
   18CHTO  H120 7381   5.289   8.517   1.348  1.1549 -1.0572  0.6078
   18CHTO   N11 7382   5.398   8.679   1.300  0.4408  0.8922  0.4025
   18CHTO  H108 7383   5.444   8.691   1.396  1.3506  2.9713 -0.2887
   18CHTO  H109 7384   5.317   8.742   1.270  0.0958 -0.2324 -1.0656
   18CHTO   C61 7385   5.478   8.442   1.299  0.4822 -0.6666  0.2125
   18CHTO  H118 7386   5.482   8.442   1.409  3.4275  1.0231  0.1635
   18CHTO   O40 7387   5.450   8.302   1.259 -0.1792 -0.8322 -0.1723
   18CHTO   C68 7388   5.336   8.271   1.184 -0.2265 -0.2972  0.3056
   18CHTO  H125 7389   5.244   8.274   1.246  1.6693 -0.7303  3.1710
   18CHTO   C72 7390   5.350   8.122   1.139 -0.1868 -0.6544 -0.3550
   18CHTO   O48 7391   5.226   8.070   1.094  0.1194  0.9257 -0.2088
   18CHTO  H105 7392   5.225   7.976   1.094  0.6820  0.9134  1.4433
   18CHTO   O38 7393   5.601   8.475   1.234  0.4819 -0.0474  0.5166
   18CHTO   C55 7394   5.722   8.416   1.284  0.3150  0.3758 -0.3280
   18CHTO  H112 7395   5.698   8.322   1.337  0.4787  0.7258  0.3644
   18CHTO   C56 7396   5.798   8.530   1.376  0.5265  0.1669 -0.2945
   18CHTO  H113 7397   5.807   8.623   1.317 -1.1200  0.5661  0.0756
   18CHTO   O42 7398   5.706   8.562   1.486 -0.1278 -0.0786  0.1585
   18CHTO  H100 7399   5.718   8.512   1.565 -1.7132  0.3324  0.6720
   18CHTO   C57 7400   5.940   8.476   1.420 -0.6886  0.4378 -0.3064
   18CHTO  H114 7401   5.930   8.395   1.492  3.3561  0.5345  0.4895
   18CHTO   N10 7402   6.012   8.579   1.489 -0.1028 -0.2398  0.0707
   18CHTO  H106 7403   5.996   8.577   1.596 -1.9503 -0.0592 -0.1820
   18CHTO  H107 7404   6.117   8.571   1.465 -0.2106  0.2384 -0.5767
   18CHTO   C58 7405   6.022   8.420   1.298 -0.4858  0.1997  0.3422
   18CHTO  H115 7406   6.043   8.500   1.224 -0.8696 -0.5287 -0.5672
   18CHTO   O37 7407   5.945   8.318   1.225  0.4799 -0.0641 -0.6314
   18CHTO   C59 7408   5.824   8.368   1.166 -0.0802  0.2731 -0.1435
   18CHTO  H116 7409   5.843   8.450   1.097 -1.9899 -0.2017 -1.2710
   18CHTO   C70 7410   5.768   8.247   1.097 -0.0094  0.5754 -0.7935
   18CHTO   O46 7411   5.666   8.272   0.997 -0.0787 -0.0180 -0.0865
   18CHTO  H103 7412   5.613   8.196   0.978  0.7120 -1.7512  4.0071
   18CHTO   O39 7413   6.191   8.345   1.342  0.0922 -0.0191  0.3217
   18CHTO   C60 7414   6.171   8.220   1.398  0.5001 -0.0634 -0.3214
   18CHTO  H117 7415   6.071   8.201   1.439  1.6121 -0.7150  2.2094
   18CHTO   C62 7416   6.188   8.107   1.298 -0.2150 -0.4049  0.7892
   18CHTO  H119 7417   6.081   8.092   1.274 -0.4967  2.4365  0.1310
   18CHTO   O43 7418   6.233   8.147   1.170 -0.3074  0.1194  0.4867
   18CHTO  H101 7419   6.179   8.212   1.130 -1.7019 -2.0781 -1.2817
   18CHTO   C66 7420   6.256   7.969   1.346  0.8113  0.3147  0.1479
   18CHTO  H123 7421   6.212   7.888   1.287 -4.2359  2.2777  0.9774
   18CHTO   N12 7422   6.405   7.957   1.325 -0.0737 -0.0026 -0.6011
   18CHTO  H110 7423   6.444   8.035   1.388 -0.2486 -0.2253 -0.2104
   18CHTO  H111 7424   6.426   7.983   1.223  0.8877 -0.3833 -0.4999
   18CHTO   C69 7425   6.228   7.941   1.493 -0.3931 -0.5007 -0.0389
   18CHTO  H126 7426   6.277   7.848   1.527  0.3960  0.8769  2.8066
   18CHTO   O41 7427   6.266   8.067   1.591  0.5337 -0.1304  0.3194
   18CHTO   C64 7428   6.271   8.205   1.518 -0.3043  0.0263 -0.1436
   18CHTO  H121 7429   6.371   8.236   1.481  0.1180 -0.7381  0.3511
   18CHTO   C71 7430   6.246   8.322   1.623 -0.1038  0.4795 -0.6478
   18CHTO   O47 7431   6.116   8.313   1.684 -0.0158  0.0573  0.4609
   18CHTO  H104 7432   6.092   8.398   1.715 -1.3949 -0.1361 -0.0548
   18CHTO   O34 7433   6.077   7.914   1.493 -0.1568 -0.1235 -0.3182
   18CHTO   C49 7434   5.960   7.888   1.608 -0.5110 -0.6234 -0.6620
   18CHTO   H91 7435   5.984   7.793   1.657  3.0080 -0.4469 -1.9085
   18CHTO   C47 7436   5.826   7.881   1.531  0.2999  0.4982  0.8618
   18CHTO   H89 7437   5.747   7.854   1.605  0.2797 -4.5144 -0.7769
   18CHTO   O33 7438   5.835   7.779   1.431  0.1807 -0.0280  0.5865
   18CHTO   H70 7439   5.893   7.711   1.461 -0.9572 -1.8050 -1.0436
   18CHTO   C45 7440   5.785   8.027   1.473  0.3915  0.7029  0.3264
   18CHTO   H87 7441   5.863   8.055   1.401  0.6888 -1.7256 -0.3309
   18CHTO    N8 7442   5.656   8.047   1.397  0.7022 -0.1856  0.0515
   18CHTO   H75 7443   5.581   7.986   1.446  0.6365  0.4453  0.7531
   18CHTO   H76 7444   5.627   8.150   1.410  0.9568 -0.0813 -0.1914
   18CHTO   C43 7445   5.793   8.132   1.591 -0.3197 -0.3384  0.3643
   18CHTO   H85 7446   5.768   8.230   1.551 -1.1922 -1.1513 -1.1066
   18CHTO   O29 7447   5.916   8.133   1.663 -0.0122  0.2849 -0.9815
   18CHTO   C50 7448   5.960   8.001   1.714 -0.1726  0.2947  0.1859
   18CHTO   H92 7449   6.065   8.016   1.743  0.2324  2.4153 -2.1826
   18CHTO   C54 7450   5.890   7.943   1.845  0.6471  0.3743  0.4882
   18CHTO   O36 7451   5.934   7.995   1.974 -0.5927 -0.4511  0.4868
   18CHTO   H72 7452   6.015   7.952   1.992  1.9701  2.3762 -3.3147
   18CHTO   O27 7453   5.681   8.108   1.681 -0.3677 -0.0909 -0.3498
   18CHTO   C37 7454   5.578   8.177   1.760  0.0531  0.1536  0.4271
   18CHTO   H79 7455   5.602   8.196   1.865  0.7989 -1.8004  0.6241
   18CHTO   C38 7456   5.557   8.320   1.702 -0.2320 -1.0610 -0.4103
   18CHTO   H80 7457   5.545   8.304   1.594 -2.0110  0.8468 -0.5350
   18CHTO   O31 7458   5.676   8.393   1.739  0.2408  0.3861  0.2511
   18CHTO   H68 7459   5.663   8.483   1.714 -0.3358 -0.7671 -4.0333
   18CHTO   C39 7460   5.426   8.387   1.767  0.3282 -0.1070  0.1797
   18CHTO   H81 7461   5.452   8.407   1.871  0.2015  1.2073 -0.0276
   18CHTO    N7 7462   5.379   8.513   1.703 -0.1717 -0.4581 -0.4722
   18CHTO   H73 7463   5.391   8.527   1.596  0.3739 -1.1713 -0.5123
   18CHTO   H74 7464   5.282   8.544   1.737 -0.0496 -0.4090 -0.1729
   18CHTO   C40 7465   5.303   8.284   1.775  0.5391 -1.1321 -0.1459
   18CHTO   H82 7466   5.251   8.269   1.681 -0.2584  7.6018 -1.5533
   18CHTO   O26 7467   5.348   8.159   1.832 -0.0124 -0.0359 -0.6078
   18CHTO   C41 7468   5.448   8.097   1.750 -0.1269  0.0169  0.1211
   18CHTO   H83 7469   5.422   8.093   1.644  1.1711 -0.5701 -0.1793
   18CHTO   C52 7470   5.464   7.954   1.787  0.2939 -0.1622 -0.4018
   18CHTO   O35 7471   5.362   7.880   1.764  0.2336 -0.7832  0.3325
   18CHTO   H71 7472   5.346   7.816   1.831 -0.1204 -0.3570  0.6571
   18CHTO   O28 7473   5.218   8.335   1.882  0.0111  0.0822  0.5274
   18CHTO   C42 7474   5.067   8.306   1.886  0.6448  0.2892 -0.5608
   18CHTO   H84 7475   5.036   8.345   1.983  0.0331  1.1689 -1.1052
   18CHTO   C44 7476   5.017   8.154   1.886 -0.0155 -0.0307  0.0357
   18CHTO   H86 7477   5.072   8.095   1.812  0.2740  0.2690  0.0086
   18CHTO   O32 7478   5.052   8.091   2.014 -0.2600 -0.1463  1.0122
   18CHTO   H69 7479   5.145   8.100   2.026 -0.1992 -0.2141  0.5986
   18CHTO   C48 7480   4.862   8.130   1.876  0.2690 -0.5497  0.1313
   18CHTO   H90 7481   4.815   8.146   1.973 -0.9119  1.0240 -0.6830
   18CHTO    N9 7482   4.828   7.987   1.846 -0.8756 -0.4611  0.0957
   18CHTO   H77 7483   4.920   7.934   1.868 -0.1141  1.0751  0.7618
   18CHTO   H78 7484   4.754   7.966   1.922 -1.3344  1.2493  0.1443
   18CHTO   C51 7485   4.797   8.226   1.773 -0.3783  0.3087  0.3540
   18CHTO   H93 7486   4.809   8.192   1.670  1.0942 -1.2743  1.0358
   18CHTO   O30 7487   4.841   8.363   1.794  0.6448 -0.2524 -0.2102
   18CHTO   C46 7488   4.983   8.383   1.775  0.0761 -0.1133 -0.0831
   18CHTO   H88 7489   5.019   8.345   1.679  2.1358  2.9063 -0.5884
   18CHTO   C53 7490   5.005   8.525   1.781 -0.1551 -0.2199 -0.1855
   18CHTO   O72 7491   4.989   8.580   1.912  0.2310  0.3718  0.0817
   18CHTO  H199 7492   4.903   8.618   1.919 -0.3824 -0.7121 -1.2501
   18CHTO   O22 7493   4.655   8.233   1.801  0.0752  0.3114  0.1446
   18CHTO   C31 7494   4.559   8.231   1.686  0.5383  0.2395  1.0171
   18CHTO   H59 7495   4.464   8.264   1.733  0.7617  0.6591  1.1820
   18CHTO   C29 7496   4.587   8.339   1.580 -0.5487  0.2428 -0.5952
   18CHTO   H57 7497   4.693   8.327   1.553 -0.3459  1.4024 -0.3248
   18CHTO   O21 7498   4.573   8.460   1.651  0.3113  0.1772  0.0565
   18CHTO   H37 7499   4.509   8.510   1.603 -1.2233 -1.3152  0.5207
   18CHTO   C27 7500   4.507   8.329   1.447 -0.2945  0.2136 -0.2241
   18CHTO   H55 7501   4.400   8.349   1.464  0.1006  1.3241  1.1262
   18CHTO    N5 7502   4.556   8.436   1.349 -0.5796 -0.6672 -0.7862
   18CHTO   H43 7503   4.505   8.527   1.376  0.3994 -0.8650  1.9388
   18CHTO   H44 7504   4.534   8.400   1.250 -0.3477 -1.4648 -0.5545
   18CHTO   C25 7505   4.530   8.189   1.390  0.4216 -0.0228 -0.8014
   18CHTO   H53 7506   4.636   8.161   1.384  0.2158 -0.8755 -0.5818
   18CHTO   O17 7507   4.476   8.094   1.496  0.6141  0.6362  0.1867
   18CHTO   C32 7508   4.535   8.088   1.623 -0.1659  0.4880 -0.2660
   18CHTO   H60 7509   4.633   8.041   1.621 -0.1385  0.4496  1.0806
   18CHTO   C36 7510   4.453   8.005   1.732 -0.4120 -0.4758 -0.0612
   18CHTO   O25 7511   4.466   7.865   1.699  0.0775 -0.0625  0.2868
   18CHTO   H40 7512   4.431   7.807   1.764 -2.1506  1.2287  0.2989
   18CHTO   O15 7513   4.456   8.155   1.258 -0.3915  0.1286 -0.1937
   18CHTO   C19 7514   4.512   8.112   1.130 -1.2575 -0.6368  0.1882
   18CHTO   H47 7515   4.428   8.064   1.079 -0.2270 -3.4446  1.0453
   18CHTO   C20 7516   4.564   8.236   1.043 -0.9451  0.4832 -0.2557
   18CHTO   H48 7517   4.639   8.294   1.099 -2.8993  2.0450  0.7861
   18CHTO   O19 7518   4.443   8.318   1.032 -0.0599  0.1801 -0.1172
   18CHTO   H35 7519   4.441   8.411   1.019  1.4541  0.1244 -0.9143
   18CHTO   C21 7520   4.619   8.182   0.910  0.2003 -0.0228  0.3199
   18CHTO   H49 7521   4.539   8.132   0.855  1.2959 -1.7317  0.2408
   18CHTO    N4 7522   4.667   8.288   0.814 -0.3181  0.2610 -0.6487
   18CHTO   H41 7523   4.756   8.256   0.761 -0.1659 -0.1765 -0.1423
   18CHTO   H42 7524   4.687   8.378   0.871  0.9440 -0.2388 -0.2782
   18CHTO   C22 7525   4.735   8.076   0.939 -0.3906  0.8447  0.8363
   18CHTO   H50 7526   4.807   8.123   1.006  2.3820  1.1070 -2.1358
   18CHTO   O14 7527   4.670   7.969   1.011  0.3332  0.3507 -0.0759
   18CHTO   C23 7528   4.622   8.002   1.144 -0.0119 -0.3289  0.2582
   18CHTO   H51 7529   4.705   8.030   1.210  1.8969 -2.2450 -1.2372
   18CHTO   C34 7530   4.569   7.870   1.211  0.6763 -0.6491  0.1823
   18CHTO   O23 7531   4.534   7.878   1.351 -0.1280  0.6637  0.2187
   18CHTO   H38 7532   4.464   7.937   1.370 -0.6199 -0.0360  0.6038
   18CHTO   O16 7533   4.793   8.013   0.822  0.3751 -0.1834  1.1006
   18CHTO   C24 7534   4.950   8.009   0.810  0.9985 -0.4658  1.0731
   18CHTO   H52 7535   4.997   8.082   0.876 -0.1159  1.6748 -0.4764
   18CHTO   C26 7536   4.972   8.044   0.661  0.2279  0.3614 -0.2544
   18CHTO   H54 7537   4.907   7.984   0.593 -0.1831  0.2678  0.2206
   18CHTO   O20 7538   4.937   8.178   0.622 -0.0002  0.3984  0.3867
   18CHTO   H36 7539   4.991   8.237   0.671 -0.3116 -0.5531  1.9278
   18CHTO   C30 7540   5.124   8.017   0.615  0.1308  0.1603  0.7825
   18CHTO   H58 7541   5.176   8.113   0.626  2.3863 -1.0384  0.8587
   18CHTO    N6 7542   5.118   7.988   0.468  0.2366 -0.1917 -0.1711
   18CHTO   H45 7543   5.184   8.040   0.400 -3.1611  3.2210 -1.0427
   18CHTO   H46 7544   5.018   7.995   0.429  0.2955  0.2318 -0.2584
   18CHTO   C33 7545   5.191   7.901   0.691 -0.4936  0.0524 -0.3224
   18CHTO   H61 7546   5.171   7.802   0.646 -0.1409  0.4021 -1.2619
   18CHTO   O18 7547   5.151   7.889   0.828  0.3884 -0.1132  0.0284
   18CHTO   C28 7548   5.012   7.873   0.840  0.0710  0.0747  0.2063
   18CHTO   H56 7549   4.980   7.799   0.766  0.7333 -2.3867  2.3293
   18CHTO   C35 7550   4.977   7.831   0.978  0.5567 -0.5454  0.2789
   18CHTO   O24 7551   5.042   7.706   1.003 -0.2056 -0.3835  0.9370
   18CHTO   H39 7552   5.124   7.716   1.047  0.0024 -1.1570  0.7231
   18CHTO    O9 7553   5.330   7.924   0.681  0.9108 -0.0974  0.0553
   18CHTO   C13 7554   5.436   7.803   0.741 -0.1486  0.1136 -0.2942
   18CHTO   H26 7555   5.370   7.714   0.733 -0.7818  0.4690  0.8126
   18CHTO   C11 7556   5.470   7.831   0.891 -0.1732  1.0508  0.4620
   18CHTO   H24 7557   5.387   7.813   0.961  1.9962  0.4126  2.9646
   18CHTO    O8 7558   5.489   7.977   0.897 -0.5457  0.1277  0.0474
   18CHTO    H3 7559   5.475   7.991   0.989 -0.6650 -1.5334  0.2844
   18CHTO    C9 7560   5.590   7.749   0.946  0.0386  0.4928 -0.3493
   18CHTO   H22 7561   5.548   7.647   0.945 -1.2746  1.0126 -1.6128
   18CHTO    N2 7562   5.619   7.770   1.085 -0.2753  0.0398  0.0425
   18CHTO   H10 7563   5.566   7.715   1.162 -1.3999 -1.0835 -1.5165
   18CHTO   H11 7564   5.626   7.875   1.110  1.5230  0.2688 -1.3636
   18CHTO    C7 7565   5.713   7.754   0.843 -0.1418  0.1752 -0.1869
   18CHTO   H20 7566   5.734   7.646   0.826 -4.2317 -0.5509 -1.3942
   18CHTO    O4 7567   5.684   7.812   0.717  0.1612  0.1530 -0.0214
   18CHTO   C14 7568   5.561   7.763   0.656 -0.4827  0.0779  0.0538
   18CHTO   H27 7569   5.565   7.652   0.655  0.2730  0.1133 -0.5439
   18CHTO   C18 7570   5.564   7.817   0.511 -0.3413  0.2890 -0.3021
   18CHTO   O13 7571   5.684   7.778   0.443  0.8598  0.0971 -0.1518
   18CHTO    H7 7572   5.719   7.834   0.377  1.9831 -1.3317 -0.8013
   18CHTO    O2 7573   5.854   7.818   0.899  0.4797  0.1470 -0.9972
   18CHTO    C1 7574   5.980   7.777   0.855 -0.5991  0.2337  0.3697
   18CHTO   H14 7575   6.001   7.818   0.754  3.5440 -1.3154  0.4863
   18CHTO    C2 7576   5.990   7.614   0.845 -0.0708 -0.2846 -0.0377
   18CHTO   H15 7577   5.925   7.586   0.930 -0.6406 -0.8959 -0.6710
   18CHTO    O6 7578   5.936   7.567   0.724  0.3795  0.2778 -0.0766
   18CHTO    H1 7579   5.844   7.588   0.718 -0.4198 -3.0608 -0.3752
   18CHTO    C3 7580   6.137   7.550   0.875 -0.3605 -0.3373  0.2160
   18CHTO   H16 7581   6.174   7.555   0.771  0.2094  0.2505  0.4453
   18CHTO    N1 7582   6.130   7.404   0.925  0.1850 -0.1522  0.1689
   18CHTO    H8 7583   6.224   7.357   0.903  0.6911  1.2709 -0.8308
   18CHTO    H9 7584   6.105   7.400   1.030  1.8388 -1.4215  0.5226
   18CHTO    C4 7585   6.234   7.632   0.954  0.0856 -0.2406 -0.2447
   18CHTO   H17 7586   6.221   7.609   1.060 -0.3030  1.2386  0.0457
   18CHTO    O1 7587   6.223   7.771   0.915 -0.7738  0.3894 -0.3501
   18CHTO    C5 7588   6.098   7.836   0.946  0.1888  0.6846  0.2412
   18CHTO   H18 7589   6.074   7.830   1.052  0.3928  2.0102  0.3661
   18CHTO   C16 7590   6.130   7.991   0.909 -0.5531 -0.0076 -0.8479
   18CHTO   O11 7591   6.011   8.070   0.930  0.2647 -0.0964 -0.4094
   18CHTO    H5 7592   6.014   8.151   0.884  1.5796  1.1679  1.7675
   18CHTO    O3 7593   6.368   7.592   0.920 -0.3755  0.0961  0.7015
   18CHTO    C6 7594   6.466   7.594   1.026  0.2939 -0.7399  0.1309
   18CHTO   H19 7595   6.417   7.649   1.106 -0.4623 -1.3751  0.1163
   18CHTO    C8 7596   6.517   7.445   1.080  0.6007 -0.0838 -0.1885
   18CHTO   H21 7597   6.534   7.385   0.991  0.3286  0.8691 -0.8928
   18CHTO    O7 7598   6.404   7.383   1.148  0.2154  0.1251 -0.6641
   18CHTO    H2 7599   6.419   7.291   1.144 -0.4256 -0.0290  0.3531
   18CHTO   C12 7600   6.634   7.456   1.185  0.2438 -0.2020  0.2194
   18CHTO   H25 7601   6.587   7.501   1.275  0.4961 -0.6817  0.5874
   18CHTO    N3 7602   6.683   7.318   1.223  0.3960  0.0882 -0.0147
   18CHTO   H12 7603   6.624   7.264   1.295 -0.9067  2.8682  1.1023
   18CHTO   H13 7604   6.789   7.305   1.239  0.7262  1.5507 -0.8901
   18CHTO   C15 7605   6.741   7.550   1.133  0.2757 -0.3297  0.0854
   18CHTO   H28 7606   6.782   7.506   1.041  1.5198  0.5339  0.2168
   18CHTO   O10 7607   6.843   7.590   1.235 -0.0301 -0.0762  0.8121
   18CHTO    H4 7608   6.906   7.652   1.202  0.5999 -0.6825  0.8712
   18CHTO    O5 7609   6.677   7.674   1.103  0.0358  0.3839 -0.8739
   18CHTO   C10 7610   6.592   7.665   0.992 -0.2685 -0.1186  0.6131
   18CHTO   H23 7611   6.645   7.607   0.917  2.3617  2.2870  0.5027
   18CHTO   C17 7612   6.573   7.805   0.926 -0.2234  0.3040  0.0436
   18CHTO   O12 7613   6.520   7.918   1.002  0.9952  0.2348  0.2311
   18CHTO    H6 7614   6.585   7.972   1.043  4.6298 -1.1095 -3.3672
   19CHTO  H203 7615   5.424   9.518   2.531  0.4829  0.7327  2.2740
   19CHTO   O82 7616   5.425   9.424   2.537  0.5739  0.5362 -0.2092
   19CHTO  C123 7617   5.336   9.361   2.442 -0.1289 -0.2291  0.1207
   19CHTO  H227 7618   5.268   9.437   2.400 -0.5706 -1.8626 -2.2287
   19CHTO   O77 7619   5.424   9.317   2.338  0.3407  0.6317  0.0444
   19CHTO  C118 7620   5.375   9.226   2.246 -0.3410 -0.1941 -0.3814
   19CHTO  H222 7621   5.303   9.268   2.174  1.5764 -0.3670 -2.4625
   19CHTO  C125 7622   5.499   9.177   2.161 -0.0738 -0.1949  0.3565
   19CHTO   O84 7623   5.586   9.286   2.107  0.6157  0.5356 -0.6379
   19CHTO  H205 7624   5.572   9.318   2.020  2.8870 -0.4778 -1.4047
   19CHTO  C114 7625   5.327   9.093   2.324  0.0875 -0.3950 -0.1979
   19CHTO  H218 7626   5.412   9.052   2.379 -0.5652 -0.4309  0.7881
   19CHTO  C116 7627   5.205   9.133   2.413 -0.3828  0.6117  0.0734
   19CHTO  H220 7628   5.120   9.163   2.349 -1.1497 -2.3431 -0.3571
   19CHTO   O79 7629   5.155   9.016   2.489 -0.1031  0.0384  0.0951
   19CHTO  H201 7630   5.225   8.961   2.518  0.3903  1.1085  1.0081
   19CHTO  C120 7631   5.252   9.249   2.514  0.1833  0.9965 -0.3806
   19CHTO  H224 7632   5.309   9.200   2.595  1.0177  2.3666 -0.1356
   19CHTO   N21 7633   5.138   9.309   2.582 -0.6459 -0.4681 -0.2109
   19CHTO  H211 7634   5.051   9.302   2.518 -0.0196 -1.1803 -1.0010
   19CHTO  H212 7635   5.110   9.260   2.674 -1.2093  0.5829  0.1988
   19CHTO   O75 7636   5.295   9.002   2.215  0.4880 -0.0385  0.1941
   19CHTO  C112 7637   5.310   8.829   2.274  0.0394  0.4269 -0.1877
   19CHTO  H216 7638   5.275   8.824   2.378 -3.1845  0.9117 -1.1968
   19CHTO   O73 7639   5.447   8.788   2.257 -0.1057 -0.1628 -0.1852
   19CHTO  C113 7640   5.473   8.652   2.322  0.1719 -0.2409 -0.0212
   19CHTO  H217 7641   5.438   8.647   2.427 -0.0772  0.0195 -0.0910
   19CHTO  C124 7642   5.618   8.620   2.334 -0.0116  0.0137  0.0015
   19CHTO   O83 7643   5.686   8.723   2.408  0.3623 -0.0700 -0.6889
   19CHTO  H204 7644   5.777   8.703   2.415  0.6775  1.5367 -0.1189
   19CHTO  C109 7645   5.399   8.546   2.227 -0.3356 -0.2900 -0.4562
   19CHTO  H213 7646   5.448   8.551   2.129 -2.1536  3.7854 -1.2169
   19CHTO  C110 7647   5.249   8.582   2.209  0.4049  0.1964 -0.9250
   19CHTO  H214 7648   5.201   8.561   2.305  1.1694 -1.6012 -0.9313
   19CHTO   O78 7649   5.201   8.498   2.104 -0.3781  0.3721 -0.1524
   19CHTO  H200 7650   5.222   8.407   2.119  1.0267  0.7604  0.2880
   19CHTO  C111 7651   5.228   8.737   2.185 -0.0781 -0.7630 -0.3925
   19CHTO  H215 7652   5.263   8.760   2.084  1.6611  0.7385  0.5115
   19CHTO   N19 7653   5.085   8.780   2.190  0.1774 -0.0039 -0.2977
   19CHTO  H207 7654   5.025   8.694   2.216  0.7454 -0.1323  0.6255
   19CHTO  H208 7655   5.055   8.817   2.093 -0.5258 -1.8462 -0.8102
   19CHTO   O74 7656   5.418   8.412   2.286 -0.3605  0.0001 -0.0375
   19CHTO  C115 7657   5.452   8.288   2.176  0.6306 -0.2808 -0.6466
   19CHTO  H219 7658   5.375   8.282   2.099 -2.3432  0.4575  2.1424
   19CHTO   O76 7659   5.574   8.315   2.104  0.4894  0.4603  0.1453
   19CHTO  C122 7660   5.695   8.265   2.169  0.5377 -0.4412 -0.3123
   19CHTO  H226 7661   5.716   8.333   2.252 -1.4943 -0.9111  0.6257
   19CHTO  C126 7662   5.806   8.294   2.058 -0.2137  0.1784 -0.1399
   19CHTO   O85 7663   5.824   8.426   2.010  0.2767 -0.0131 -0.1350
   19CHTO  H206 7664   5.744   8.475   2.010 -0.0768 -0.5885  0.5377
   19CHTO  C121 7665   5.699   8.115   2.212  0.2272 -0.1285 -0.0940
   19CHTO  H225 7666   5.763   8.062   2.138 -1.0081 -5.0259  2.1162
   19CHTO   O81 7667   5.763   8.098   2.337 -0.3277 -0.2541 -0.4674
   19CHTO  H202 7668   5.704   8.106   2.410  0.4216  0.1268  0.1030
   19CHTO  C119 7669   5.563   8.052   2.198  0.3480 -0.3318  0.7337
   19CHTO  H223 7670   5.551   8.042   2.090  1.3769  0.5479  0.5246
   19CHTO  C117 7671   5.453   8.142   2.255  0.6020 -0.4993 -0.1733
   19CHTO  H221 7672   5.469   8.157   2.362  1.6622 -3.5809  0.1395
   19CHTO   N20 7673   5.318   8.075   2.243 -0.0095 -0.3357 -0.0122
   19CHTO  H209 7674   5.322   7.967   2.236  0.0001 -0.2917 -0.8419
   19CHTO  H210 7675   5.238   8.114   2.304 -0.1554 -2.3888  1.1582
   19CHTO   O80 7676   5.564   7.906   2.242  0.0511  1.0053 -0.2193
   19CHTO  C103 7677   5.637   7.806   2.148 -0.0357  0.5519  0.3428
   19CHTO  H190 7678   5.650   7.848   2.048 -0.8077  0.8030  0.3451
   19CHTO  C101 7679   5.770   7.747   2.202 -0.2986  0.6837  0.4904
   19CHTO  H188 7680   5.748   7.703   2.299  0.4274  2.9532  1.7140
   19CHTO   O68 7681   5.884   7.860   2.223  0.7987  0.3856 -0.5149
   19CHTO  H168 7682   5.948   7.827   2.283  0.3961 -3.8277 -2.2022
   19CHTO   C99 7683   5.824   7.625   2.117 -0.3362 -0.8176 -0.0871
   19CHTO  H186 7684   5.849   7.671   2.019 -0.9223 -2.1931 -0.9061
   19CHTO   N17 7685   5.944   7.554   2.172 -0.3215  0.1039  0.5260
   19CHTO  H174 7686   5.978   7.480   2.102  1.8191  0.7841  0.8256
   19CHTO  H175 7687   6.026   7.625   2.173 -0.8566  0.7232  0.9585
   19CHTO   C97 7688   5.713   7.523   2.082 -0.0365 -0.1153  0.4995
   19CHTO  H184 7689   5.694   7.455   2.166  2.6689 -0.7655  0.6034
   19CHTO   O64 7690   5.593   7.593   2.039 -0.5173  0.2108 -0.5712
   19CHTO  C104 7691   5.538   7.687   2.134 -0.2631  0.5884  0.6105
   19CHTO  H191 7692   5.523   7.641   2.232 -1.4521 -2.2424 -0.8580
   19CHTO  C108 7693   5.397   7.727   2.083 -0.6995 -0.3234 -0.1602
   19CHTO   O71 7694   5.318   7.610   2.070 -0.2432 -0.3433  0.1633
   19CHTO  H171 7695   5.231   7.643   2.071 -0.4892 -0.9953  1.1473
   19CHTO   O62 7696   5.758   7.447   1.969  0.0943 -0.4709  1.0585
   19CHTO   C91 7697   5.666   7.346   1.918  0.6130 -0.7818  0.3117
   19CHTO  H178 7698   5.572   7.368   1.968  0.7016  0.1175  0.0912
   19CHTO   C92 7699   5.705   7.199   1.955  0.0296  0.3624 -0.6441
   19CHTO  H179 7700   5.804   7.178   1.913 -0.0703 -0.6208 -0.3832
   19CHTO   O66 7701   5.709   7.195   2.097 -0.1027 -0.6088  0.0190
   19CHTO  H166 7702   5.766   7.127   2.127 -1.2563 -0.7966  1.8206
   19CHTO   C93 7703   5.599   7.092   1.900  0.0105  0.6210  0.5883
   19CHTO  H180 7704   5.514   7.091   1.971 -0.9327  3.3291 -0.4282
   19CHTO   N16 7705   5.673   6.965   1.902  0.0339 -0.4124 -0.0091
   19CHTO  H172 7706   5.688   6.927   1.802  0.6388 -0.8641  0.2490
   19CHTO  H173 7707   5.618   6.896   1.962 -3.4107  1.1402 -1.2728
   19CHTO   C94 7708   5.548   7.126   1.757  0.2448  0.0669 -0.6504
   19CHTO  H181 7709   5.614   7.089   1.679 -1.2191 -0.7768 -1.5044
   19CHTO   O61 7710   5.524   7.262   1.729  0.0624  0.2346 -0.4795
   19CHTO   C95 7711   5.631   7.353   1.761  0.2482 -0.3686  0.2257
   19CHTO  H182 7712   5.717   7.327   1.700  0.2075  0.6026 -0.2603
   19CHTO  C106 7713   5.587   7.502   1.722  0.2567 -0.1075 -0.4723
   19CHTO   O69 7714   5.540   7.509   1.588 -0.1650  0.3107 -0.7245
   19CHTO  H169 7715   5.579   7.582   1.545 -1.0288  1.3193  0.1681
   19CHTO   O63 7716   5.424   7.074   1.732 -0.1036 -0.1411 -0.1102
   19CHTO   C96 7717   5.376   7.051   1.584 -0.7006 -0.5842  1.0160
   19CHTO  H183 7718   5.462   7.045   1.518 -0.3644  1.1681  1.2832
   19CHTO   C98 7719   5.272   7.157   1.534 -0.2979  0.1126 -0.6968
   19CHTO  H185 7720   5.314   7.258   1.545  0.6811 -0.0546 -2.7075
   19CHTO   O67 7721   5.259   7.142   1.394  0.5451  0.5697  0.4597
   19CHTO  H167 7722   5.285   7.224   1.356  1.3249  1.0841  2.0372
   19CHTO  C102 7723   5.117   7.148   1.594  0.8561 -0.4221 -0.1118
   19CHTO  H189 7724   5.056   7.197   1.517  2.5820  0.0902 -1.1927
   19CHTO   N18 7725   5.091   7.225   1.717  0.7461 -0.0420 -0.8684
   19CHTO  H176 7726   5.101   7.167   1.808  1.6251  0.6690 -0.5051
   19CHTO  H177 7727   5.146   7.317   1.714  2.2907 -0.9191 -0.2585
   19CHTO  C105 7728   5.086   6.997   1.618 -0.1262  0.1918  0.0970
   19CHTO  H192 7729   5.098   6.968   1.723 -0.9444 -1.9683 -0.3731
   19CHTO   O65 7730   5.174   6.913   1.541  0.0923  0.0955  0.5467
   19CHTO  C100 7731   5.308   6.910   1.585 -0.1051  0.4387  0.0274
   19CHTO  H187 7732   5.297   6.883   1.691  2.0279  0.6283  0.3240
   19CHTO  C107 7733   5.385   6.797   1.509  0.4828  0.7647 -0.3820
   19CHTO   O70 7734   5.511   6.780   1.569  0.2612  0.4454  0.3890
   19CHTO  H170 7735   5.553   6.707   1.528  0.8113  0.7420  0.4204
   19CHTO   O57 7736   4.936   6.982   1.568  0.2891  0.0834 -0.3059
   19CHTO   C85 7737   4.854   6.875   1.630  0.5790  0.4222 -0.3282
   19CHTO  H157 7738   4.909   6.872   1.727  0.8939 -0.2152 -0.5289
   19CHTO   C83 7739   4.864   6.732   1.568  0.2721 -0.1147  0.0591
   19CHTO  H155 7740   4.970   6.707   1.573  0.3001  0.0705  0.4415
   19CHTO   O56 7741   4.834   6.739   1.427 -0.1356  0.2973  0.5586
   19CHTO  H135 7742   4.858   6.825   1.398 -1.7151  0.8707  0.9461
   19CHTO   C81 7743   4.777   6.628   1.641 -0.2582  0.7356  0.0108
   19CHTO  H153 7744   4.819   6.623   1.741 -0.3394  0.9060  0.0540
   19CHTO   N14 7745   4.791   6.495   1.581  0.5636  0.6663 -0.2622
   19CHTO  H141 7746   4.836   6.477   1.486  0.1124  2.2602 -0.7803
   19CHTO  H142 7747   4.719   6.419   1.604  1.4250 -0.1538 -0.2548
   19CHTO   C79 7748   4.631   6.676   1.655  0.1051  0.1270 -0.3301
   19CHTO  H151 7749   4.581   6.608   1.724 -0.6205  0.4445 -0.5319
   19CHTO   O52 7750   4.623   6.808   1.716 -0.3908 -0.1567  0.0166
   19CHTO   C86 7751   4.700   6.912   1.652  0.3094 -0.1294  0.6111
   19CHTO  H158 7752   4.643   6.925   1.557 -0.0084  0.8353  0.9228
   19CHTO   C90 7753   4.691   7.044   1.728 -0.0502 -0.2009  0.2185
   19CHTO   O60 7754   4.565   7.092   1.697  0.0191 -0.3401 -0.1101
   19CHTO  H138 7755   4.539   7.162   1.754 -2.7075 -1.2798 -0.1269
   19CHTO   O50 7756   4.561   6.684   1.528  0.4026  0.0221  0.2246
   19CHTO   C73 7757   4.431   6.659   1.477  0.6473 -0.4701 -0.0622
   19CHTO  H145 7758   4.404   6.552   1.483  3.1786 -1.3890 -3.5517
   19CHTO   C74 7759   4.436   6.704   1.327 -0.2628 -0.4326 -0.1024
   19CHTO  H146 7760   4.522   6.653   1.282 -0.2795  0.4363 -1.1322
   19CHTO   O54 7761   4.321   6.649   1.255 -0.0205 -0.4961 -0.0790
   19CHTO  H133 7762   4.299   6.699   1.178 -1.7211  1.0931  1.3664
   19CHTO   C75 7763   4.453   6.860   1.320  0.1998  0.0065 -0.5717
   19CHTO  H147 7764   4.542   6.889   1.378 -0.5940  1.4709 -0.0393
   19CHTO   N13 7765   4.459   6.921   1.187  0.2101  0.6892 -0.0708
   19CHTO  H139 7766   4.446   6.844   1.112  2.3088 -0.5619  0.8031
   19CHTO  H140 7767   4.392   7.003   1.165  1.4663  1.8623  0.3929
   19CHTO   C76 7768   4.353   6.948   1.417  0.1695  0.5868 -0.4767
   19CHTO  H148 7769   4.254   6.945   1.372  0.4413  2.2493 -1.2080
   19CHTO   O49 7770   4.359   6.885   1.546  0.3305  0.1138 -0.2521
   19CHTO   C77 7771   4.322   6.750   1.555 -0.0214  0.5575  0.1265
   19CHTO  H149 7772   4.226   6.729   1.509  1.1210  0.3813 -2.2561
   19CHTO   C88 7773   4.313   6.713   1.706 -0.2914 -0.2339 -0.1697
   19CHTO   O58 7774   4.203   6.800   1.790 -0.0889  0.4115 -0.1486
   19CHTO  H136 7775   4.229   6.887   1.814 -1.4807  1.0398 -0.8473
   19CHTO   O51 7776   4.415   7.106   1.437  0.2879 -0.0359 -0.1216
   19CHTO   C78 7777   4.323   7.211   1.391 -0.8265  0.0090 -0.7888
   19CHTO  H150 7778   4.244   7.164   1.330 -0.2052  0.8976 -2.2926
   19CHTO   C80 7779   4.408   7.312   1.303  0.1789  0.4743 -0.7024
   19CHTO  H152 7780   4.495   7.347   1.361 -0.1219 -0.6472  0.4415
   19CHTO   O55 7781   4.456   7.238   1.193 -0.7110  0.7679  0.4496
   19CHTO  H134 7782   4.548   7.220   1.189 -1.0358 -0.4513 -3.4345
   19CHTO   C84 7783   4.327   7.434   1.250 -0.5623  0.5259  0.3347
   19CHTO  H156 7784   4.254   7.395   1.179 -1.3416 -0.0102  1.4226
   19CHTO   N15 7785   4.408   7.545   1.184  0.0858 -0.6245 -0.9670
   19CHTO  H143 7786   4.342   7.623   1.152  3.0162  1.5696 -1.8334
   19CHTO  H144 7787   4.466   7.580   1.266 -1.6666  2.3739 -0.9251
   19CHTO   C87 7788   4.241   7.488   1.371 -0.4043 -0.3097  0.2882
   19CHTO  H159 7789   4.316   7.524   1.442  0.0605 -0.9585  0.1274
   19CHTO   O53 7790   4.166   7.363   1.445 -0.2926 -0.1630 -0.6382
   19CHTO   C82 7791   4.256   7.278   1.510 -0.1008 -0.3372  0.2631
   19CHTO  H154 7792   4.329   7.338   1.565  0.0679 -1.1112  0.8820
   19CHTO   C89 7793   4.188   7.182   1.609  0.4109 -0.9397 -0.5367
   19CHTO   O59 7794   4.082   7.234   1.681  0.6197 -0.5685  0.2853
   19CHTO  H137 7795   4.110   7.310   1.728  1.6606 -0.8435  0.1025
   19CHTO   O45 7796   4.154   7.582   1.323  0.0474 -0.5195 -0.1390
   19CHTO   C67 7797   4.082   7.659   1.430 -0.3082 -0.3771 -0.4197
   19CHTO  H124 7798   4.090   7.618   1.530  1.0714  1.7267  0.3560
   19CHTO   C65 7799   4.148   7.799   1.433 -0.0361  0.4852  0.8900
   19CHTO  H122 7800   4.166   7.831   1.330 -0.5636 -1.0685  0.2846
   19CHTO   O44 7801   4.263   7.779   1.511  0.0896  0.1024  0.4920
   19CHTO  H102 7802   4.245   7.728   1.587 -0.7191  0.6371  0.6582
   19CHTO   C63 7803   4.053   7.913   1.494  0.0026  0.0397  0.3778
   19CHTO  H120 7804   3.997   7.958   1.413  2.5462 -0.4290 -1.7291
   19CHTO   N11 7805   4.125   8.037   1.535  0.0726 -0.1564  0.6140
   19CHTO  H108 7806   4.217   8.020   1.586 -1.1795  0.2120  3.0685
   19CHTO  H109 7807   4.059   8.100   1.593  0.0760 -0.0885  0.5444
   19CHTO   C61 7808   3.947   7.844   1.592  1.5220 -0.3955  0.4360
   19CHTO  H118 7809   3.876   7.921   1.627  1.1968  0.7102 -2.5276
   19CHTO   O40 7810   3.864   7.745   1.515 -0.0563  0.3094 -0.3162
   19CHTO   C68 7811   3.921   7.676   1.403  0.1853  0.1673 -0.5821
   19CHTO  H125 7812   3.912   7.742   1.314  0.6833 -1.0548 -1.5428
   19CHTO   C72 7813   3.857   7.544   1.375 -0.3015  0.0657  0.6618
   19CHTO   O48 7814   3.864   7.453   1.481 -0.0553 -0.5959  0.3314
   19CHTO  H105 7815   3.848   7.371   1.438 -2.3575  0.7062 -1.4158
   19CHTO   O38 7816   4.014   7.801   1.712 -0.1900 -0.4599  0.0325
   19CHTO   C55 7817   3.946   7.704   1.799  0.0558  0.3819  0.3386
   19CHTO  H112 7818   3.897   7.624   1.741  2.7930 -0.8110 -0.3802
   19CHTO   C56 7819   3.846   7.774   1.898 -0.5449  0.2875  0.0233
   19CHTO  H113 7820   3.892   7.857   1.953  1.6905 -0.9219  0.0293
   19CHTO   O42 7821   3.750   7.848   1.815 -0.1354  0.2205  0.3666
   19CHTO  H100 7822   3.660   7.833   1.833 -0.1359  0.8512  0.9115
   19CHTO   C57 7823   3.770   7.672   1.994  0.1299  0.3015  0.2185
   19CHTO  H114 7824   3.707   7.614   1.926 -0.3214 -1.7502  2.3333
   19CHTO   N10 7825   3.687   7.742   2.089 -0.2462 -0.3961  0.5668
   19CHTO  H106 7826   3.590   7.760   2.046  1.1451  0.1500 -2.5194
   19CHTO  H107 7827   3.729   7.836   2.121 -0.2068 -0.0891 -0.3765
   19CHTO   C58 7828   3.874   7.572   2.054 -0.1892 -0.1745  0.3865
   19CHTO  H115 7829   3.929   7.612   2.141  2.2426 -0.5518 -0.9349
   19CHTO   O37 7830   3.968   7.526   1.955  0.1438 -0.0100 -0.5784
   19CHTO   C59 7831   4.044   7.628   1.891 -0.0674  0.2796  0.5456
   19CHTO  H116 7832   4.093   7.691   1.965  2.7576 -1.2348  0.0250
   19CHTO   C70 7833   4.149   7.555   1.807 -0.2648  0.0129 -1.0162
   19CHTO   O46 7834   4.259   7.634   1.773 -0.2514  0.4983 -0.4533
   19CHTO  H103 7835   4.275   7.703   1.834 -0.8365  2.3700 -2.3582
   19CHTO   O39 7836   3.791   7.444   2.104  0.6444  0.7470  0.3320
   19CHTO   C60 7837   3.760   7.352   1.999 -0.2906  0.1026  0.1859
   19CHTO  H117 7838   3.776   7.401   1.903 -0.5923 -0.1295  0.0188
   19CHTO   C62 7839   3.839   7.226   2.030 -0.1335 -0.6861  0.2165
   19CHTO  H119 7840   3.947   7.252   2.043 -0.1012 -1.1272  0.9241
   19CHTO   O43 7841   3.813   7.165   2.161 -0.7744 -0.0449  0.0888
   19CHTO  H101 7842   3.852   7.216   2.229 -0.9171  0.6184 -0.3272
   19CHTO   C66 7843   3.823   7.130   1.901 -0.5640  0.5371  0.4819
   19CHTO  H123 7844   3.843   7.193   1.815  0.8155 -1.3803 -0.6232
   19CHTO   N12 7845   3.923   7.021   1.900  0.0885 -0.4964 -0.4928
   19CHTO  H110 7846   4.000   7.023   1.976 -2.0563 -1.1123  1.7599
   19CHTO  H111 7847   3.976   7.005   1.807  0.6784 -1.2723 -0.0301
   19CHTO   C69 7848   3.678   7.076   1.889 -0.1270  0.0548 -0.2762
   19CHTO  H126 7849   3.663   7.003   1.971  0.2873  0.4002  0.1034
   19CHTO   O41 7850   3.585   7.210   1.893  0.2332  0.4151 -0.2671
   19CHTO   C64 7851   3.608   7.321   2.004  0.2516  0.1345 -0.5556
   19CHTO  H121 7852   3.580   7.280   2.103 -0.2889  2.4274  0.2743
   19CHTO   C71 7853   3.503   7.432   1.989 -0.1668 -0.3043  0.3006
   19CHTO   O47 7854   3.368   7.395   1.964  0.8052  0.2559 -0.5035
   19CHTO  H104 7855   3.345   7.326   2.024  0.6724  1.2796  0.6465
   19CHTO   O34 7856   3.668   7.005   1.768  0.0314  0.1057  0.2715
   19CHTO   C49 7857   3.614   7.007   1.632  0.1432  0.8080  0.4167
   19CHTO   H91 7858   3.509   6.981   1.641  0.2801  0.8400  2.2510
   19CHTO   C47 7859   3.679   6.892   1.551  0.5754  0.5684 -0.6624
   19CHTO   H89 7860   3.620   6.903   1.457 -0.3353  1.2951 -0.0189
   19CHTO   O33 7861   3.645   6.759   1.612 -0.5686 -0.2701 -0.9971
   19CHTO   H70 7862   3.664   6.682   1.562  2.3462 -0.3562  0.1650
   19CHTO   C45 7863   3.830   6.937   1.523 -0.2138  0.4496  0.3061
   19CHTO   H87 7864   3.882   6.974   1.612 -1.5347  0.6942  0.9937
   19CHTO    N8 7865   3.907   6.819   1.468  0.0950  0.2777 -0.0811
   19CHTO   H75 7866   4.014   6.826   1.482  0.4903 -2.6283 -1.2432
   19CHTO   H76 7867   3.881   6.810   1.363 -0.2730  0.6202 -0.0197
   19CHTO   C43 7868   3.832   7.068   1.430  0.1680 -0.2284  0.3082
   19CHTO   H85 7869   3.937   7.095   1.422 -0.5799  2.1002 -2.5709
   19CHTO   O29 7870   3.759   7.166   1.506 -0.0948 -0.3218  0.5973
   19CHTO   C50 7871   3.627   7.140   1.559  0.1714  0.5896 -0.5463
   19CHTO   H92 7872   3.608   7.218   1.634  0.5942 -0.9085  1.1589
   19CHTO   C54 7873   3.509   7.158   1.464  0.3355 -0.5657  0.0834
   19CHTO   O36 7874   3.519   7.286   1.392 -0.2434  0.4936 -0.0807
   19CHTO   H72 7875   3.467   7.288   1.313  0.3938  1.3761 -0.4894
   19CHTO   O27 7876   3.782   7.042   1.295  0.1304  0.4526  0.4774
   19CHTO   C37 7877   3.821   7.083   1.168 -0.3202  0.5837  0.1277
   19CHTO   H79 7878   3.762   7.019   1.101 -0.7820  3.6795 -2.5417
   19CHTO   C38 7879   3.774   7.231   1.140  0.3623  0.5021 -0.6570
   19CHTO   H80 7880   3.793   7.289   1.231 -0.6937  0.3563 -0.3397
   19CHTO   O31 7881   3.628   7.215   1.132 -0.7397 -0.5492  0.3134
   19CHTO   H68 7882   3.592   7.298   1.158 -0.9382 -0.9805  1.4635
   19CHTO   C39 7883   3.836   7.291   1.005 -0.0695 -0.1082  0.3247
   19CHTO   H81 7884   3.780   7.245   0.923 -0.6043 -0.1643  0.7185
   19CHTO    N7 7885   3.799   7.433   0.976  0.7093  0.3940 -0.2239
   19CHTO   H73 7886   3.779   7.438   0.870  0.9816 -1.9395 -0.3965
   19CHTO   H74 7887   3.882   7.499   0.998  0.8210  0.0344  0.4529
   19CHTO   C40 7888   3.994   7.264   0.996 -0.2384 -0.1521 -0.7847
   19CHTO   H82 7889   4.030   7.325   1.079 -2.4709 -1.5562  1.2624
   19CHTO   O26 7890   4.023   7.129   1.021 -0.1346  0.4332 -0.3164
   19CHTO   C41 7891   3.969   7.066   1.141 -0.6001 -0.4802 -0.0262
   19CHTO   H83 7892   4.021   7.117   1.223  0.0998  1.3977 -1.6033
   19CHTO   C52 7893   4.024   6.924   1.146 -0.1917  0.2459 -0.2304
   19CHTO   O35 7894   3.964   6.834   1.017  0.0641  0.6122 -0.0511
   19CHTO   H71 7895   3.931   6.752   1.048 -1.0699  0.3991 -1.8084
   19CHTO   O28 7896   4.052   7.309   0.873 -0.6761  0.2939  0.1228
   19CHTO   C42 7897   4.172   7.390   0.873 -0.0045 -0.0585 -0.4174
   19CHTO   H84 7898   4.180   7.416   0.979 -0.9169  0.8997 -0.5721
   19CHTO   C44 7899   4.163   7.529   0.796 -0.0991 -0.6997 -0.0284
   19CHTO   H86 7900   4.129   7.517   0.693 -0.2486  0.7369 -0.1579
   19CHTO   O32 7901   4.057   7.615   0.854 -0.4128  0.4720  0.3674
   19CHTO   H69 7902   3.973   7.576   0.838  0.9218 -1.9445 -1.0457
   19CHTO   C48 7903   4.300   7.610   0.786 -0.1292  0.3427 -0.2614
   19CHTO   H90 7904   4.306   7.654   0.886  2.3330  1.0801 -0.7140
   19CHTO    N9 7905   4.311   7.722   0.692  0.6514 -0.0341 -0.1210
   19CHTO   H77 7906   4.396   7.716   0.626 -0.3812 -0.8077 -1.3955
   19CHTO   H78 7907   4.299   7.815   0.746  0.2320 -0.2735  0.2048
   19CHTO   C51 7908   4.416   7.505   0.766  0.2560  0.4303 -0.5285
   19CHTO   H93 7909   4.420   7.477   0.661 -0.0546 -1.5871 -0.0102
   19CHTO   O30 7910   4.417   7.388   0.851  0.6338 -0.2441  0.3909
   19CHTO   C46 7911   4.296   7.316   0.826 -0.0604  0.3796 -0.5148
   19CHTO   H88 7912   4.288   7.294   0.719  0.2064 -1.9423 -0.0826
   19CHTO   C53 7913   4.308   7.183   0.902  0.2004 -0.6733 -0.6531
   19CHTO   O72 7914   4.414   7.102   0.853  0.4540  0.0396  0.5317
   19CHTO  H199 7915   4.412   7.102   0.759  1.5854  0.4296  0.4952
   19CHTO   O22 7916   4.539   7.578   0.797 -0.0382 -0.1788 -0.4334
   19CHTO   C31 7917   4.668   7.510   0.756  0.0784  0.0943  0.5074
   19CHTO   H59 7918   4.643   7.411   0.713 -1.9282  0.5171  0.6477
   19CHTO   C29 7919   4.742   7.591   0.648 -0.0170 -0.9829  0.2497
   19CHTO   H57 7920   4.765   7.689   0.694 -0.5033 -0.6840 -0.1438
   19CHTO   O21 7921   4.649   7.606   0.539  0.1399  0.5980 -0.0957
   19CHTO   H37 7922   4.610   7.691   0.526 -1.0001  0.3056  1.2356
   19CHTO   C27 7923   4.876   7.517   0.613 -0.2697  0.8884 -0.1907
   19CHTO   H55 7924   4.850   7.426   0.557 -3.0278  1.5245 -0.0263
   19CHTO    N5 7925   4.958   7.602   0.520 -0.1801  0.1482  0.1578
   19CHTO   H43 7926   4.976   7.690   0.581 -2.0926 -0.5422  1.7823
   19CHTO   H44 7927   5.051   7.556   0.490  0.0851  2.3857 -2.7104
   19CHTO   C25 7928   4.962   7.492   0.746 -0.5845  0.6721 -0.3821
   19CHTO   H53 7929   4.999   7.585   0.791  0.7675 -0.1291  0.1742
   19CHTO   O17 7930   4.884   7.423   0.848 -0.2819  0.3813 -0.4958
   19CHTO   C32 7931   4.767   7.491   0.878 -0.7515 -0.1430  0.0938
   19CHTO   H60 7932   4.803   7.591   0.905  0.4150 -0.2050 -1.1877
   19CHTO   C36 7933   4.714   7.419   1.004  0.1726 -0.2918  0.3013
   19CHTO   O25 7934   4.685   7.277   0.975  0.3396 -0.5891 -0.9173
   19CHTO   H40 7935   4.752   7.232   0.928 -0.1914 -1.1137 -1.1883
   19CHTO   O15 7936   5.101   7.411   0.714  0.1833  0.0509  0.0311
   19CHTO   C19 7937   5.139   7.308   0.628  0.0968  0.1848 -0.0100
   19CHTO   H47 7938   5.088   7.322   0.531 -0.1951 -0.7157  0.0120
   19CHTO   C20 7939   5.295   7.321   0.604  0.3570  0.6450  0.1301
   19CHTO   H48 7940   5.349   7.314   0.699  0.0730 -0.0808  0.2401
   19CHTO   O19 7941   5.322   7.453   0.549 -0.3460 -0.1322  0.0797
   19CHTO   H35 7942   5.412   7.460   0.525 -0.6730  0.4184 -1.0538
   19CHTO   C21 7943   5.349   7.213   0.501  0.1273 -0.3121  0.6312
   19CHTO   H49 7944   5.321   7.245   0.401  0.3880 -0.3192  0.5551
   19CHTO    N4 7945   5.497   7.210   0.494 -0.1583  0.1418  0.0572
   19CHTO   H41 7946   5.528   7.111   0.522  0.9972  0.1401 -1.1945
   19CHTO   H42 7947   5.543   7.284   0.558 -0.9853 -0.3105  1.1816
   19CHTO   C22 7948   5.287   7.077   0.539  0.2668 -0.6574 -0.7769
   19CHTO   H50 7949   5.339   7.035   0.624 -0.1295  2.8957  1.3411
   19CHTO   O14 7950   5.146   7.078   0.565 -0.0327  0.1644  0.0228
   19CHTO   C23 7951   5.102   7.161   0.673  0.0653 -0.3670  0.2768
   19CHTO   H51 7952   5.150   7.130   0.767 -1.4191 -1.8393  0.5728
   19CHTO   C34 7953   4.947   7.145   0.681 -0.2175  0.6662 -0.1418
   19CHTO   O23 7954   4.920   7.006   0.708  0.3358  0.5989 -0.3490
   19CHTO   H38 7955   4.847   6.987   0.762  1.6001 -1.1873  0.7737
   19CHTO   O16 7956   5.288   6.984   0.430 -0.4678  0.0532 -0.3201
   19CHTO   C24 7957   5.379   6.858   0.444 -0.2927 -0.0636  0.3818
   19CHTO   H52 7958   5.456   6.869   0.520  0.1175 -0.5641  0.0500
   19CHTO   C26 7959   5.453   6.846   0.306  0.6133  0.0360 -0.2835
   19CHTO   H54 7960   5.374   6.864   0.230 -2.4461 -0.6322  2.6086
   19CHTO   O20 7961   5.554   6.943   0.309  0.1289  0.2851  0.0677
   19CHTO   H36 7962   5.595   6.950   0.224  0.3651 -2.5821 -0.1065
   19CHTO   C30 7963   5.507   6.701   0.282 -0.0433 -0.3611 -0.0263
   19CHTO   H58 7964   5.602   6.685   0.336  0.1899 -0.3112 -0.4156
   19CHTO    N6 7965   5.541   6.685   0.140 -0.7243  0.3926 -0.4606
   19CHTO   H45 7966   5.589   6.589   0.127 -0.4974  0.6219 -1.3514
   19CHTO   H46 7967   5.455   6.685   0.075 -0.8181  1.7024 -0.3399
   19CHTO   C33 7968   5.405   6.591   0.322 -1.0588 -0.0148 -0.3087
   19CHTO   H61 7969   5.309   6.609   0.271 -0.7676  2.0958 -0.1522
   19CHTO   O18 7970   5.379   6.612   0.461 -0.1508  0.1475  0.7033
   19CHTO   C28 7971   5.293   6.729   0.480 -0.4795  0.0298  0.3328
   19CHTO   H56 7972   5.207   6.718   0.414  0.4589 -0.8191 -0.7874
   19CHTO   C35 7973   5.234   6.744   0.627  0.4558 -0.7063 -0.5982
   19CHTO   O24 7974   5.333   6.734   0.727 -0.1066  0.0599 -0.1867
   19CHTO   H39 7975   5.406   6.792   0.716  0.0819 -0.4730 -1.8605
   19CHTO    O9 7976   5.442   6.449   0.294  0.4899 -0.8871 -0.1811
   19CHTO   C13 7977   5.297   6.347   0.286 -0.2516 -0.1580 -0.1077
   19CHTO   H26 7978   5.246   6.371   0.190 -1.1374 -2.6458 -0.2941
   19CHTO   C11 7979   5.198   6.357   0.415  0.0774  0.4259  0.4221
   19CHTO   H24 7980   5.147   6.454   0.424  2.4285  1.5898  1.5754
   19CHTO    O8 7981   5.275   6.348   0.535  0.4501  0.3572 -1.0296
   19CHTO    H3 7982   5.226   6.385   0.606  1.2450 -0.1293 -0.2016
   19CHTO    C9 7983   5.094   6.247   0.399  0.0935 -0.3979  0.4539
   19CHTO   H22 7984   5.042   6.264   0.304 -1.2096 -1.1626  1.0121
   19CHTO    N2 7985   4.985   6.260   0.498  0.1734  0.2701  0.8003
   19CHTO   H10 7986   5.005   6.238   0.602  1.2593 -0.0808  0.5156
   19CHTO   H11 7987   4.900   6.202   0.463 -0.3517  2.2029 -1.2352
   19CHTO    C7 7988   5.157   6.100   0.390 -0.5032  0.5590 -0.0073
   19CHTO   H20 7989   5.120   6.062   0.292 -1.6072  0.3806  0.4746
   19CHTO    O4 7990   5.302   6.103   0.373  0.0233 -0.5351 -0.0189
   19CHTO   C14 7991   5.352   6.190   0.274  0.0061 -1.5136  0.5026
   19CHTO   H27 7992   5.324   6.152   0.174 -1.7030  0.9676 -0.0198
   19CHTO   C18 7993   5.505   6.185   0.284 -0.3229  0.3772  0.2051
   19CHTO   O13 7994   5.560   6.070   0.226  0.3539  0.0779  0.1289
   19CHTO    H7 7995   5.633   6.084   0.169 -0.0881 -0.3144 -0.5430
   19CHTO    O2 7996   5.113   5.984   0.524  0.2376  0.4355 -0.5155
   19CHTO    C1 7997   5.076   5.852   0.469 -0.0777  0.0276  0.0526
   19CHTO   H14 7998   5.154   5.827   0.394 -0.1278  0.1458 -0.0394
   19CHTO    C2 7999   4.933   5.838   0.400  0.4520  0.3891 -0.5539
   19CHTO   H15 8000   4.865   5.886   0.471 -0.8988  0.4830 -1.8736
   19CHTO    O6 8001   4.932   5.918   0.280 -0.1747  0.6776 -0.1141
   19CHTO    H1 8002   4.869   5.987   0.283 -1.0180 -0.0808 -0.3500
   19CHTO    C3 8003   4.878   5.693   0.383  0.0721 -0.1623  0.2466
   19CHTO   H16 8004   4.929   5.635   0.305  0.3435  0.9594 -0.4241
   19CHTO    N1 8005   4.731   5.697   0.347 -0.1862 -0.0486 -0.2012
   19CHTO    H8 8006   4.706   5.631   0.264 -0.5057  0.6921 -0.6943
   19CHTO    H9 8007   4.666   5.667   0.427  0.0871 -2.2505 -0.7534
   19CHTO    C4 8008   4.900   5.615   0.516  0.4451 -0.9052  0.2380
   19CHTO   H17 8009   4.834   5.653   0.594  0.5788 -2.3940  1.0834
   19CHTO    O1 8010   5.036   5.614   0.554  0.1171  0.9474 -0.7166
   19CHTO    C5 8011   5.087   5.747   0.587  0.1372 -0.2458  0.4393
   19CHTO   H18 8012   5.016   5.766   0.667 -1.7048  1.1206 -1.4943
   19CHTO   C16 8013   5.228   5.725   0.643  0.2066 -1.1712 -0.2080
   19CHTO   O11 8014   5.298   5.844   0.680 -0.1030 -0.0037 -0.5839
   19CHTO    H5 8015   5.370   5.858   0.621  2.3271  2.7581  2.8379
   19CHTO    O3 8016   4.873   5.479   0.484 -0.1088  0.2639  0.8328
   19CHTO    C6 8017   4.811   5.394   0.583  0.5419 -0.1681 -0.2786
   19CHTO   H19 8018   4.776   5.451   0.670 -1.3403  0.2610 -1.2892
   19CHTO    C8 8019   4.680   5.338   0.518 -0.5107  0.6279 -0.1445
   19CHTO   H21 8020   4.708   5.276   0.433  1.5089 -1.1633  1.7387
   19CHTO    O7 8021   4.587   5.444   0.489  0.0718 -0.3958  0.0016
   19CHTO    H2 8022   4.594   5.512   0.553  0.0883 -0.4983  0.1093
   19CHTO   C12 8023   4.606   5.232   0.618 -0.3581 -0.8968  0.4329
   19CHTO   H25 8024   4.557   5.292   0.698 -0.3857 -0.5687  0.1735
   19CHTO    N3 8025   4.493   5.164   0.545  0.0132 -0.0868  1.0359
   19CHTO   H12 8026   4.518   5.145   0.442  1.0084  0.2675  1.2035
   19CHTO   H13 8027   4.411   5.234   0.548  1.5078  1.6465  4.4270
   19CHTO   C15 8028   4.703   5.143   0.688 -0.0578 -0.1935  0.3615
   19CHTO   H28 8029   4.748   5.067   0.625  1.2930  0.3321  0.6752
   19CHTO   O10 8030   4.644   5.078   0.821  0.0383 -0.0993 -0.0420
   19CHTO    H4 8031   4.562   5.035   0.809  0.2061  0.0329 -1.7122
   19CHTO    O5 8032   4.820   5.209   0.735  0.2452 -0.4329 -0.0289
   19CHTO   C10 8033   4.899   5.277   0.639 -0.6442  0.7347  0.4495
   19CHTO   H23 8034   4.928   5.214   0.556 -0.7584 -1.1468  1.7976
   19CHTO   C17 8035   5.027   5.312   0.709 -0.9146  0.0269 -0.9506
   19CHTO   O12 8036   5.132   5.354   0.630  0.9603 -0.5288 -0.3264
   19CHTO    H6 8037   5.106   5.427   0.577  2.0957 -0.7059 -1.1449
   20CHTO  H203 8038   4.627   1.181   2.757  1.5318  0.3590  0.3389
   20CHTO   O82 8039   4.642   1.236   2.682  0.2542  0.2925  0.0298
   20CHTO  C123 8040   4.652   1.166   2.556 -0.9362  0.3744 -0.1422
   20CHTO  H227 8041   4.553   1.139   2.516 -0.6086 -1.6858  0.3582
   20CHTO   O77 8042   4.725   1.267   2.476  0.0506  0.1410 -0.7462
   20CHTO  C118 8043   4.756   1.227   2.341 -0.6084  0.0604  0.2205
   20CHTO  H222 8044   4.668   1.178   2.296 -0.5761  0.3270 -0.1401
   20CHTO  C125 8045   4.790   1.357   2.254 -0.5581 -0.0831 -0.1879
   20CHTO   O84 8046   4.907   1.421   2.296 -0.0120 -0.0173  0.2202
   20CHTO  H205 8047   4.889   1.488   2.359 -1.9520 -1.0364  0.7943
   20CHTO  C114 8048   4.866   1.121   2.345  0.1649  0.3643  0.0236
   20CHTO  H218 8049   4.952   1.176   2.384 -0.0849  1.3116 -0.7456
   20CHTO  C116 8050   4.838   1.007   2.443 -0.5579  0.7479 -0.6653
   20CHTO  H220 8051   4.766   0.947   2.384 -1.6063  0.6617  0.6892
   20CHTO   O79 8052   4.966   0.936   2.474  0.4228  0.0955 -0.4062
   20CHTO  H201 8053   4.974   0.860   2.420 -0.9986 -1.0549  0.9385
   20CHTO  C120 8054   4.748   1.040   2.572 -0.2556 -0.1665  0.4614
   20CHTO  H224 8055   4.814   1.074   2.654 -0.9136 -0.2213  1.0149
   20CHTO   N21 8056   4.687   0.916   2.628  0.2754 -0.6235  0.2295
   20CHTO  H211 8057   4.591   0.896   2.585 -1.1460  1.0179  2.4849
   20CHTO  H212 8058   4.663   0.936   2.732  0.4792  0.2094  0.1227
   20CHTO   O75 8059   4.892   1.095   2.202  0.5007  0.3287 -0.4343
   20CHTO  C112 8060   5.065   1.068   2.182 -0.1155  0.2465 -0.4271
   20CHTO  H216 8061   5.083   0.979   2.243  2.8216 -0.0963 -1.7136
   20CHTO   O73 8062   5.141   1.179   2.229  0.8022  0.2142  0.2705
   20CHTO  C113 8063   5.276   1.178   2.194 -0.5465  0.2362 -0.3489
   20CHTO  H217 8064   5.327   1.087   2.232 -0.2733  0.7851  0.6045
   20CHTO  C124 8065   5.356   1.282   2.279  0.7151  0.6549 -0.0260
   20CHTO   O83 8066   5.350   1.263   2.420 -0.0864  0.4327  0.1353
   20CHTO  H204 8067   5.383   1.178   2.442  1.4094  0.7729 -0.7287
   20CHTO  C109 8068   5.297   1.183   2.034 -0.8618  0.3062 -0.2904
   20CHTO  H213 8069   5.246   1.275   2.002  0.1617  0.7359 -0.6995
   20CHTO  C110 8070   5.240   1.050   1.984  0.4066 -0.6090  0.0633
   20CHTO  H214 8071   5.295   0.970   2.033 -3.2059 -1.7815  2.4023
   20CHTO   O78 8072   5.268   1.039   1.844 -0.0979  0.4154  0.2967
   20CHTO  H200 8073   5.339   1.091   1.813 -1.3146  1.2944 -1.0892
   20CHTO  C111 8074   5.093   1.042   2.025  0.2900 -0.2363 -0.2141
   20CHTO  H215 8075   5.037   1.121   1.972  1.1551  0.4592 -0.1169
   20CHTO   N19 8076   5.026   0.914   1.994 -0.1823  0.0406 -0.2665
   20CHTO  H207 8077   5.080   0.832   2.039 -0.7161 -0.7200 -1.0176
   20CHTO  H208 8078   5.025   0.895   1.888 -0.6118 -1.7835  0.0622
   20CHTO   O74 8079   5.447   1.195   2.015  0.0927  0.3193  0.2428
   20CHTO  C115 8080   5.480   1.346   1.957  0.1268  0.3689 -0.1210
   20CHTO  H219 8081   5.417   1.423   2.002  0.0326  0.9560 -1.2486
   20CHTO   O76 8082   5.635   1.389   1.982 -0.0063 -0.2789  0.0827
   20CHTO  C122 8083   5.738   1.345   1.893  0.3407 -0.0639 -0.0751
   20CHTO  H226 8084   5.761   1.240   1.910 -1.6469 -0.2414  1.8010
   20CHTO  C126 8085   5.865   1.417   1.934 -0.4775  0.0415  0.2155
   20CHTO   O85 8086   5.979   1.342   1.888 -0.1967  0.2246  0.0635
   20CHTO  H206 8087   6.056   1.357   1.941 -0.2007  2.7781 -0.5625
   20CHTO  C121 8088   5.697   1.365   1.740  0.0306  0.3207 -0.5513
   20CHTO  H225 8089   5.772   1.431   1.691  1.1129  0.1964  0.9082
   20CHTO   O81 8090   5.687   1.237   1.677  0.5726  0.4692 -0.2128
   20CHTO  H202 8091   5.709   1.236   1.586 -1.4337  2.7342 -0.7520
   20CHTO  C119 8092   5.562   1.426   1.719  0.7097 -0.3743 -0.3023
   20CHTO  H223 8093   5.575   1.528   1.756 -1.3056 -0.1767 -0.0749
   20CHTO  C117 8094   5.447   1.357   1.802 -0.7651  0.7141  0.9140
   20CHTO  H221 8095   5.438   1.250   1.785  0.7877  0.7817 -0.3812
   20CHTO   N20 8096   5.310   1.411   1.769  0.0181 -0.1967  0.0572
   20CHTO  H209 8097   5.298   1.510   1.811 -0.8190 -1.5097  3.0840
   20CHTO  H210 8098   5.294   1.401   1.663 -1.7506 -1.0572  0.3879
   20CHTO   O80 8099   5.520   1.459   1.558 -0.2998  0.0154 -0.2264
   20CHTO  C103 8100   5.625   1.547   1.464  0.0805 -0.0241 -0.1410
   20CHTO  H190 8101   5.690   1.605   1.530 -0.2450  1.1308 -0.8218
   20CHTO  C101 8102   5.711   1.464   1.369 -0.2852  0.2060 -0.0745
   20CHTO  H188 8103   5.646   1.406   1.302 -0.5813 -1.3016  1.4894
   20CHTO   O68 8104   5.810   1.382   1.441 -0.3850  0.0490 -0.6938
   20CHTO  H168 8105   5.871   1.338   1.384  0.1959 -2.4458  1.7798
   20CHTO   C99 8106   5.794   1.576   1.275 -0.4849 -0.2783 -0.4348
   20CHTO  H186 8107   5.856   1.635   1.346 -0.8747  0.0477 -0.3623
   20CHTO   N17 8108   5.901   1.509   1.192 -0.4525  0.0368  0.0298
   20CHTO  H174 8109   5.901   1.542   1.089  1.5057 -1.6447 -0.5757
   20CHTO  H175 8110   5.999   1.524   1.236 -0.9462  1.8896  0.5304
   20CHTO   C97 8111   5.700   1.676   1.211 -0.0240 -0.0676 -0.3550
   20CHTO  H184 8112   5.644   1.619   1.135  0.1037  0.3791 -0.7916
   20CHTO   O64 8113   5.615   1.739   1.305  0.2886  0.3328 -0.7913
   20CHTO  C104 8114   5.538   1.640   1.384  0.7629  0.3662  0.1250
   20CHTO  H191 8115   5.468   1.585   1.321 -1.9671  2.9806  0.7286
   20CHTO  C108 8116   5.451   1.730   1.466 -0.4597  0.0407 -0.3229
   20CHTO   O71 8117   5.325   1.756   1.414 -0.4562  0.1014 -0.2742
   20CHTO  H171 8118   5.306   1.710   1.334 -0.0398  1.9759 -1.5066
   20CHTO   O62 8119   5.773   1.786   1.156  0.4151 -0.0947 -0.1044
   20CHTO   C91 8120   5.696   1.880   1.074  0.1050 -0.0810  0.4979
   20CHTO  H178 8121   5.593   1.860   1.102 -0.4864  0.8365 -0.9840
   20CHTO   C92 8122   5.692   1.836   0.925 -0.0371  0.2306 -0.4569
   20CHTO  H179 8123   5.790   1.844   0.876  0.8976 -0.4375  1.2590
   20CHTO   O66 8124   5.650   1.695   0.913 -0.4971  0.1407  0.1166
   20CHTO  H166 8125   5.730   1.647   0.927 -1.7753 -2.0938  0.0920
   20CHTO   C93 8126   5.588   1.924   0.847  0.2488 -0.3549  0.0893
   20CHTO  H180 8127   5.487   1.901   0.882  0.3119 -0.7044  0.0439
   20CHTO   N16 8128   5.582   1.904   0.704 -0.1081  0.2695 -0.4426
   20CHTO  H172 8129   5.489   1.857   0.677 -0.8525  2.6253 -2.1308
   20CHTO  H173 8130   5.661   1.844   0.660  0.4260 -1.0199  2.1946
   20CHTO   C94 8131   5.611   2.081   0.867  0.0321  0.3870  0.2363
   20CHTO  H181 8132   5.704   2.115   0.822  1.1054 -1.3203  1.1192
   20CHTO   O61 8133   5.626   2.104   1.010  0.3179 -0.6168  0.6245
   20CHTO   C95 8134   5.728   2.035   1.080  0.9850 -0.5084  0.2851
   20CHTO  H182 8135   5.827   2.048   1.037  1.2852 -2.1179  0.4657
   20CHTO  C106 8136   5.730   2.064   1.231 -0.6719  0.4632  0.6546
   20CHTO   O69 8137   5.846   2.011   1.304  0.3553  0.2672 -0.7005
   20CHTO  H169 8138   5.808   1.966   1.376 -1.2786 -0.4304 -1.9692
   20CHTO   O63 8139   5.472   2.185   0.817  0.3392  0.0463  0.5681
   20CHTO   C96 8140   5.505   2.298   0.692 -0.7225 -0.0519  1.0859
   20CHTO  H183 8141   5.412   2.353   0.679  0.0568  1.6446  2.5655
   20CHTO   C98 8142   5.556   2.240   0.554 -0.1001 -0.3892  0.2370
   20CHTO  H185 8143   5.645   2.177   0.568 -0.6441 -1.2128  0.0288
   20CHTO   O67 8144   5.455   2.154   0.504  0.3351 -0.2574 -0.0112
   20CHTO  H167 8145   5.474   2.067   0.534 -2.0186 -0.3860  1.2298
   20CHTO  C102 8146   5.580   2.363   0.451 -0.1034 -0.0872 -0.7327
   20CHTO  H189 8147   5.480   2.405   0.432 -0.2276  0.0187  0.1244
   20CHTO   N18 8148   5.631   2.328   0.318 -0.0865 -0.9069  0.5581
   20CHTO  H176 8149   5.738   2.317   0.328  0.1441  1.7551  1.2318
   20CHTO  H177 8150   5.616   2.407   0.247 -0.1556 -1.1067  0.3492
   20CHTO  C105 8151   5.657   2.484   0.516 -0.0957  0.1732  0.2019
   20CHTO  H192 8152   5.763   2.464   0.525 -0.4381 -1.7159  0.3081
   20CHTO   O65 8153   5.607   2.513   0.654 -0.0947 -0.1779 -0.0469
   20CHTO  C100 8154   5.611   2.407   0.751  0.5627  0.2004  0.6521
   20CHTO  H187 8155   5.713   2.367   0.757  1.7825  2.9993 -0.6791
   20CHTO  C107 8156   5.567   2.471   0.891  0.2528 -0.1283  0.1696
   20CHTO   O70 8157   5.597   2.385   0.994  0.0683  0.6205  0.0244
   20CHTO  H170 8158   5.562   2.301   0.972 -0.9630  0.9214  0.4936
   20CHTO   O57 8159   5.621   2.609   0.421  0.8910  0.3792  0.1218
   20CHTO   C85 8160   5.704   2.725   0.412  0.0902 -0.0682 -0.4105
   20CHTO  H157 8161   5.757   2.729   0.509 -0.7208 -0.4981  0.0531
   20CHTO   C83 8162   5.608   2.846   0.414  0.3424  0.3168  0.6637
   20CHTO  H155 8163   5.544   2.840   0.502 -0.9958 -2.4107 -0.4273
   20CHTO   O56 8164   5.514   2.835   0.303  0.7719 -0.1913 -0.3503
   20CHTO  H135 8165   5.519   2.919   0.262  1.9439  0.0881  0.3498
   20CHTO   C81 8166   5.693   2.973   0.415 -0.1434 -0.1793 -0.1161
   20CHTO  H153 8167   5.766   2.962   0.495 -0.7627  1.5826  0.7223
   20CHTO   N14 8168   5.612   3.098   0.437  0.4105  0.9151  0.0741
   20CHTO  H141 8169   5.647   3.156   0.520 -0.8985  0.5893  0.8622
   20CHTO  H142 8170   5.508   3.076   0.451  1.1113 -2.6284  0.1064
   20CHTO   C79 8171   5.779   2.989   0.282  0.2711  0.8668  0.3708
   20CHTO  H151 8172   5.847   3.072   0.301  2.3608 -0.1024 -2.4236
   20CHTO   O52 8173   5.860   2.871   0.285  0.0007  0.5530  0.4930
   20CHTO   C86 8174   5.803   2.738   0.292  0.2377 -0.0486  0.2396
   20CHTO  H158 8175   5.745   2.742   0.198 -0.4535  0.5712  0.6854
   20CHTO   C90 8176   5.907   2.620   0.287  0.2062  0.6169  0.4684
   20CHTO   O60 8177   5.977   2.627   0.162 -0.6662  0.3455 -0.3516
   20CHTO  H138 8178   5.917   2.606   0.093 -0.6488 -1.4603  0.1583
   20CHTO   O50 8179   5.702   2.993   0.161  0.0184 -0.2621 -0.0780
   20CHTO   C73 8180   5.736   3.040   0.031  0.0024  0.6332 -0.0188
   20CHTO  H145 8181   5.826   2.995  -0.013  0.6066  2.8039 -1.0857
   20CHTO   C74 8182   5.755   3.197   0.044  0.0389 -0.2358  0.5890
   20CHTO  H146 8183   5.824   3.212   0.128 -0.2222 -1.7020  1.0752
   20CHTO   O54 8184   5.814   3.246  -0.078 -0.5665 -0.3024  0.2361
   20CHTO  H133 8185   5.829   3.336  -0.059  0.7585 -0.1228 -1.4956
   20CHTO   C75 8186   5.616   3.267   0.074  0.3200  0.3427  0.6567
   20CHTO  H147 8187   5.582   3.243   0.177 -0.5745  1.8316  0.7277
   20CHTO   N13 8188   5.627   3.415   0.087  0.3762  0.2614  0.0435
   20CHTO  H139 8189   5.671   3.449  -0.007  0.9300 -1.4016 -0.3212
   20CHTO  H140 8190   5.534   3.469   0.096 -0.5351 -1.1811 -0.5905
   20CHTO   C76 8191   5.497   3.218  -0.028  0.5486  0.1846  0.4164
   20CHTO  H148 8192   5.525   3.260  -0.125  1.7946  0.0581  0.7114
   20CHTO   O49 8193   5.498   3.073  -0.026  0.3201  0.1237 -0.5076
   20CHTO   C77 8194   5.619   3.007  -0.070 -0.3022  0.2517 -0.1773
   20CHTO  H149 8195   5.653   3.039  -0.169 -0.7984  0.8492 -0.1615
   20CHTO   C88 8196   5.595   2.853  -0.083 -0.2310 -0.1397 -0.0970
   20CHTO   O58 8197   5.472   2.841  -0.190 -0.2985 -0.3915 -0.1095
   20CHTO  H136 8198   5.444   2.753  -0.204 -0.8881  0.0083 -1.4993
   20CHTO   O51 8199   5.332   3.241   0.024 -1.1753  0.2320  0.5584
   20CHTO   C78 8200   5.283   3.168   0.162 -0.1315  1.1316  0.4873
   20CHTO  H150 8201   5.367   3.108   0.203  0.2176  0.4947 -1.0831
   20CHTO   C80 8202   5.169   3.071   0.135  0.2408 -0.3515 -0.1269
   20CHTO  H152 8203   5.081   3.133   0.109  1.2988  0.6789 -1.3139
   20CHTO   O55 8204   5.219   2.992   0.026  0.4101 -0.1089  0.3947
   20CHTO  H134 8205   5.157   2.927  -0.000  1.1192 -0.4542 -0.4751
   20CHTO   C84 8206   5.127   2.991   0.262  0.3301  0.0615 -0.4667
   20CHTO  H156 8207   5.218   2.939   0.292 -1.4998 -0.8785  3.8884
   20CHTO   N15 8208   5.006   2.901   0.235  0.1092 -0.0189  0.6710
   20CHTO  H143 8209   4.926   2.913   0.305 -1.3377  0.6650 -1.0536
   20CHTO  H144 8210   5.040   2.800   0.242 -0.5010 -0.4553 -2.1163
   20CHTO   C87 8211   5.098   3.086   0.382 -0.9110 -0.2478  0.8919
   20CHTO  H159 8212   5.006   3.143   0.377  0.1510  1.4703  0.2775
   20CHTO   O53 8213   5.218   3.198   0.395 -0.0952  0.4524  0.2499
   20CHTO   C82 8214   5.237   3.268   0.272  0.2039 -0.1895  0.5741
   20CHTO  H154 8215   5.144   3.318   0.248  0.2149  0.1669  1.2432
   20CHTO   C89 8216   5.338   3.386   0.300 -0.2677  0.1649 -0.7286
   20CHTO   O59 8217   5.292   3.491   0.386  0.2388 -0.3041  0.4486
   20CHTO  H137 8218   5.363   3.513   0.444  0.3184  0.0578  0.2151
   20CHTO   O45 8219   5.100   3.015   0.521 -0.2798  0.1534  0.3355
   20CHTO   C67 8220   5.221   2.974   0.591 -0.3946 -0.5638 -0.3945
   20CHTO  H124 8221   5.299   2.958   0.516  0.4708 -0.7208  0.5228
   20CHTO   C65 8222   5.278   3.075   0.706  0.3738  0.3000  0.0072
   20CHTO  H122 8223   5.277   3.171   0.655  0.1924 -0.2638 -1.0772
   20CHTO   O44 8224   5.414   3.059   0.732  0.6693 -0.8202  0.5499
   20CHTO  H102 8225   5.442   2.986   0.783  1.1174 -0.3674  0.9638
   20CHTO   C63 8226   5.170   3.089   0.824 -0.0350 -0.4525 -0.3644
   20CHTO  H120 8227   5.074   3.102   0.774  0.2004 -1.8438 -1.1992
   20CHTO   N11 8228   5.198   3.200   0.916  0.4059 -0.7782  0.0368
   20CHTO  H108 8229   5.106   3.230   0.964  0.4598  0.7868 -0.8138
   20CHTO  H109 8230   5.277   3.202   0.988 -1.2710  2.7270  1.9286
   20CHTO   C61 8231   5.150   2.947   0.890  0.0737 -0.5518  0.2064
   20CHTO  H118 8232   5.057   2.964   0.946  0.4684 -0.7755  0.9413
   20CHTO   O40 8233   5.122   2.845   0.794  0.3757  0.1518  0.3082
   20CHTO   C68 8234   5.201   2.830   0.661  0.0065 -0.1848  0.2950
   20CHTO  H125 8235   5.145   2.763   0.594 -0.9864 -0.5776  1.5158
   20CHTO   C72 8236   5.338   2.764   0.682 -0.3882  0.3119 -0.0966
   20CHTO   O48 8237   5.338   2.622   0.654 -0.1171  0.3871  0.4376
   20CHTO  H105 8238   5.384   2.611   0.573  1.4406  0.1272  1.3236
   20CHTO   O38 8239   5.255   2.889   0.974  0.0314 -0.0892 -0.0757
   20CHTO   C55 8240   5.210   2.807   1.087  0.6838  0.2997  0.3109
   20CHTO  H112 8241   5.100   2.796   1.083  0.5218  1.7246  0.8049
   20CHTO   C56 8242   5.254   2.872   1.220 -0.3117 -0.4749 -0.3239
   20CHTO  H113 8243   5.351   2.921   1.205  0.3910 -0.0638  4.6201
   20CHTO   O42 8244   5.169   2.978   1.252  0.1882 -0.0661 -0.1103
   20CHTO  H100 8245   5.186   3.054   1.200  1.1573 -0.8011 -0.8781
   20CHTO   C57 8246   5.245   2.772   1.351  0.4725  0.0130  0.8538
   20CHTO  H114 8247   5.137   2.765   1.367  0.5940  0.4949  1.9244
   20CHTO   N10 8248   5.320   2.826   1.466  0.3923 -0.1525 -0.0960
   20CHTO  H106 8249   5.350   2.744   1.530 -0.1636  0.5910  1.1082
   20CHTO  H107 8250   5.259   2.890   1.527  1.7651  0.6376  0.4885
   20CHTO   C58 8251   5.301   2.634   1.317  0.1996  0.6359  0.1292
   20CHTO  H115 8252   5.411   2.649   1.305 -0.2665  1.8949 -2.8727
   20CHTO   O37 8253   5.235   2.587   1.205 -0.8115 -0.3942  0.0555
   20CHTO   C59 8254   5.263   2.661   1.081 -0.6501  0.1899  0.6946
   20CHTO  H116 8255   5.371   2.665   1.072 -0.6409  0.1432  0.7856
   20CHTO   C70 8256   5.212   2.578   0.957 -0.8668 -0.1648  0.2126
   20CHTO   O46 8257   5.067   2.569   0.967 -0.8900 -0.2449  0.4204
   20CHTO  H103 8258   5.042   2.563   0.877  4.3270  1.4512 -1.3809
   20CHTO   O39 8259   5.263   2.525   1.443  0.2983 -0.5273 -0.4170
   20CHTO   C60 8260   5.208   2.400   1.407  0.5008  0.2404 -0.1076
   20CHTO  H117 8261   5.132   2.415   1.331 -0.4386 -0.1707  0.7429
   20CHTO   C62 8262   5.326   2.308   1.341 -0.3163  0.3614 -0.2598
   20CHTO  H119 8263   5.370   2.373   1.264  0.1658  1.3298  0.8184
   20CHTO   O43 8264   5.433   2.289   1.439 -0.2848  0.0513  0.2427
   20CHTO  H101 8265   5.400   2.220   1.493 -1.2569  0.5805  0.3359
   20CHTO   C66 8266   5.263   2.167   1.279  0.0582 -0.0912  0.0907
   20CHTO  H123 8267   5.168   2.188   1.228 -0.1555 -1.6833 -0.1932
   20CHTO   N12 8268   5.357   2.098   1.186 -0.0793 -0.1426 -0.6428
   20CHTO  H110 8269   5.308   2.060   1.098  0.8261  1.5621 -1.9237
   20CHTO  H111 8270   5.427   2.174   1.155  0.8777 -1.5403 -1.9834
   20CHTO   C69 8271   5.210   2.074   1.392 -0.0939 -0.1140 -0.0881
   20CHTO  H126 8272   5.293   2.044   1.459  0.3538 -0.9117 -1.0047
   20CHTO   O41 8273   5.100   2.169   1.474 -0.1109 -0.2292  0.3040
   20CHTO   C64 8274   5.140   2.311   1.514  0.2147  0.6655  0.0523
   20CHTO  H121 8275   5.215   2.300   1.594  1.3095 -0.4526 -1.1006
   20CHTO   C71 8276   5.020   2.376   1.583 -0.3191 -0.4706  0.2698
   20CHTO   O47 8277   4.998   2.343   1.720  0.3643 -0.8588 -0.4090
   20CHTO  H104 8278   5.053   2.394   1.777 -1.2986 -0.0809  0.5635
   20CHTO   O34 8279   5.129   1.952   1.349 -0.5255 -0.1940 -0.2763
   20CHTO   C49 8280   5.008   1.895   1.282  0.4235 -0.0151  0.8395
   20CHTO   H91 8281   4.943   1.884   1.369  0.3626 -0.1174  0.7808
   20CHTO   C47 8282   5.045   1.760   1.222  0.4060  0.1912  0.1088
   20CHTO   H89 8283   4.954   1.714   1.176 -0.4347  0.6759  1.2686
   20CHTO   O33 8284   5.085   1.671   1.332 -0.4730  0.2690 -0.4129
   20CHTO   H70 8285   5.015   1.667   1.394  0.7712 -0.5246  0.9575
   20CHTO   C45 8286   5.167   1.791   1.115  0.2444 -0.2299  0.0557
   20CHTO   H87 8287   5.257   1.836   1.160 -1.8183  3.4607  0.7406
   20CHTO    N8 8288   5.205   1.659   1.062 -0.7305  0.0225  0.8227
   20CHTO   H75 8289   5.185   1.665   0.956  0.1530  1.0392  0.6959
   20CHTO   H76 8290   5.172   1.567   1.107  0.0873  0.1342  1.6580
   20CHTO   C43 8291   5.116   1.890   1.003  0.3741  0.5291  0.1051
   20CHTO   H85 8292   5.202   1.921   0.943  1.7216 -1.1199  1.1144
   20CHTO   O29 8293   5.045   2.000   1.059  0.0218 -0.0396 -0.5651
   20CHTO   C50 8294   4.957   1.990   1.173 -0.0744 -0.0742  0.1042
   20CHTO   H92 8295   4.946   2.093   1.211  0.1378 -0.4409  1.1532
   20CHTO   C54 8296   4.813   1.949   1.125 -0.1224 -0.0554  0.1813
   20CHTO   O36 8297   4.773   2.013   1.001  0.3284 -0.2943  0.2982
   20CHTO   H72 8298   4.747   1.946   0.941  1.0417 -0.2888 -0.0153
   20CHTO   O27 8299   5.026   1.822   0.907  0.5744 -0.2340 -0.5488
   20CHTO   C37 8300   5.009   1.822   0.761  0.0580  1.0279  0.6565
   20CHTO   H79 8301   4.905   1.810   0.727  0.5787 -0.9537 -0.3316
   20CHTO   C38 8302   5.049   1.956   0.692 -0.2180 -0.0988 -0.6370
   20CHTO   H80 8303   5.135   1.997   0.748 -1.4143 -0.8975  1.8807
   20CHTO   O31 8304   4.942   2.047   0.704  0.3682  0.2712 -0.4723
   20CHTO   H68 8305   4.969   2.137   0.700 -0.6091  0.7055  1.8688
   20CHTO   C39 8306   5.088   1.940   0.538  0.3724 -0.2703 -0.3813
   20CHTO   H81 8307   4.993   1.912   0.491  2.0685  1.5681 -5.1405
   20CHTO    N7 8308   5.129   2.062   0.467 -0.7967  0.1719  0.2267
   20CHTO   H73 8309   5.095   2.144   0.528 -0.5572 -0.7144  1.5738
   20CHTO   H74 8310   5.090   2.069   0.367 -0.3971  1.2901  0.1412
   20CHTO   C40 8311   5.186   1.813   0.509 -0.9370 -0.4534  0.1509
   20CHTO   H82 8312   5.270   1.837   0.574 -1.1014  3.1329 -0.8855
   20CHTO   O26 8313   5.120   1.691   0.553  0.2017 -0.2363  0.1376
   20CHTO   C41 8314   5.086   1.694   0.704  0.0203 -0.3161  0.5605
   20CHTO   H83 8315   5.189   1.703   0.741  0.0707  2.0084 -0.0795
   20CHTO   C52 8316   5.032   1.552   0.750 -0.3928  0.3096 -0.2015
   20CHTO   O35 8317   5.144   1.437   0.711  0.5972  0.0111 -0.0937
   20CHTO   H71 8318   5.149   1.366   0.773  2.5540  0.0797 -0.1330
   20CHTO   O28 8319   5.230   1.786   0.378  0.4994  0.4373 -0.2773
   20CHTO   C42 8320   5.351   1.711   0.350  0.4317  0.0875 -0.4117
   20CHTO   H84 8321   5.334   1.659   0.256 -0.8246 -0.7040  0.2495
   20CHTO   C44 8322   5.399   1.593   0.438  0.4314 -0.3336 -0.4458
   20CHTO   H86 8323   5.388   1.626   0.541 -2.1256  0.9672 -1.0731
   20CHTO   O32 8324   5.292   1.500   0.422 -0.5045 -0.2989 -0.3862
   20CHTO   H69 8325   5.292   1.440   0.494  1.1404  0.5254  0.3319
   20CHTO   C48 8326   5.545   1.541   0.406 -0.2400  0.1207 -0.3052
   20CHTO   H90 8327   5.548   1.489   0.310  0.2586 -2.3698  1.0091
   20CHTO    N9 8328   5.598   1.445   0.508 -0.1500 -0.1080  0.8424
   20CHTO   H77 8329   5.704   1.427   0.497 -0.1723 -1.3787  2.4666
   20CHTO   H78 8330   5.575   1.464   0.611 -0.8219 -0.4817  0.7624
   20CHTO   C51 8331   5.651   1.659   0.384  0.6315  0.1981 -0.3045
   20CHTO   H93 8332   5.688   1.715   0.470  3.7037 -1.8019 -0.2211
   20CHTO   O30 8333   5.597   1.745   0.287  0.5883 -0.5408  0.5805
   20CHTO   C46 8334   5.467   1.813   0.318  0.4473 -0.6636  0.2337
   20CHTO   H88 8335   5.479   1.876   0.407 -1.6285  0.8153 -0.4764
   20CHTO   C53 8336   5.430   1.908   0.199  0.4048 -0.7572 -0.2387
   20CHTO   O72 8337   5.471   1.872   0.063  0.0706 -0.4417  0.2002
   20CHTO  H199 8338   5.430   1.941   0.015 -1.7257  0.4675  2.9075
   20CHTO   O22 8339   5.773   1.606   0.328 -0.1278  0.1495  0.0814
   20CHTO   C31 8340   5.911   1.646   0.365  0.6966  0.2112  0.2388
   20CHTO   H59 8341   5.952   1.694   0.273 -0.4998  0.5370 -0.1416
   20CHTO   C29 8342   5.933   1.748   0.481  0.0913 -0.4756 -0.1729
   20CHTO   H57 8343   5.873   1.717   0.568 -0.4297  1.8991  0.3303
   20CHTO   O21 8344   5.872   1.873   0.432 -0.2707 -0.1625 -0.7499
   20CHTO   H37 8345   5.789   1.855   0.392 -0.0284 -0.3967 -1.1440
   20CHTO   C27 8346   6.083   1.765   0.526  1.0992 -0.2951  0.1295
   20CHTO   H55 8347   6.133   1.833   0.455 -0.5234  1.6902  0.8333
   20CHTO    N5 8348   6.104   1.820   0.661 -0.3134  0.6472 -0.1418
   20CHTO   H43 8349   6.109   1.742   0.735  1.1619 -0.0242 -0.9183
   20CHTO   H44 8350   6.028   1.893   0.685 -0.3994  0.8490 -1.0016
   20CHTO   C25 8351   6.165   1.629   0.517 -0.3670 -0.3448 -0.1596
   20CHTO   H53 8352   6.135   1.571   0.606  0.7039 -1.4128 -0.4871
   20CHTO   O17 8353   6.129   1.555   0.393 -0.1152  0.1361 -0.4898
   20CHTO   C32 8354   5.989   1.519   0.391 -0.8426 -0.7701 -0.4127
   20CHTO   H60 8355   5.956   1.480   0.487 -1.6738  0.2554 -0.2834
   20CHTO   C36 8356   5.982   1.422   0.273  0.7081 -0.3758 -0.1511
   20CHTO   O25 8357   6.055   1.309   0.298  0.5212  0.2194 -0.3538
   20CHTO   H40 8358   6.076   1.260   0.221  1.9620 -0.2817  0.3295
   20CHTO   O15 8359   6.312   1.649   0.516 -0.1101  0.3437  0.1319
   20CHTO   C19 8360   6.424   1.592   0.442 -0.2252 -0.8274  0.2853
   20CHTO   H47 8361   6.384   1.581   0.340 -1.0092  1.4092  0.3358
   20CHTO   C20 8362   6.553   1.681   0.441  0.4561 -0.3586  0.1019
   20CHTO   H48 8363   6.586   1.704   0.543 -0.1697 -1.0545  0.4653
   20CHTO   O19 8364   6.522   1.809   0.381  0.5431  0.1319 -0.3563
   20CHTO   H35 8365   6.573   1.838   0.308  0.1679 -0.7502 -0.9834
   20CHTO   C21 8366   6.672   1.611   0.370 -0.1143 -0.0594 -0.1055
   20CHTO   H49 8367   6.658   1.607   0.262  1.8072  0.0602 -0.3803
   20CHTO    N4 8368   6.796   1.680   0.396 -0.4925 -0.2711 -0.6554
   20CHTO   H41 8369   6.797   1.782   0.360  1.4807 -0.0375 -0.0425
   20CHTO   H42 8370   6.869   1.622   0.341 -0.2348 -0.7326  0.1697
   20CHTO   C22 8371   6.695   1.462   0.406  0.5846  0.3439  0.0970
   20CHTO   H50 8372   6.741   1.453   0.505  0.1033 -0.0892  0.2813
   20CHTO   O14 8373   6.567   1.395   0.406  0.3860 -0.0632 -0.3557
   20CHTO   C23 8374   6.468   1.451   0.489  0.4127 -0.2306  0.3573
   20CHTO   H51 8375   6.503   1.445   0.593 -1.0423 -3.2796  0.7334
   20CHTO   C34 8376   6.348   1.352   0.498  0.5083  0.5823 -0.1099
   20CHTO   O23 8377   6.368   1.223   0.562  0.3658 -0.4519 -0.3805
   20CHTO   H38 8378   6.458   1.211   0.583  0.3966 -0.2964 -0.4168
   20CHTO   O16 8379   6.780   1.404   0.305  0.3774 -0.3466 -0.2231
   20CHTO   C24 8380   6.863   1.288   0.363  0.1442 -0.3952  0.1587
   20CHTO   H52 8381   6.842   1.274   0.469 -3.3769  0.8428 -0.3102
   20CHTO   C26 8382   7.009   1.307   0.334 -0.1051  0.3980 -0.2105
   20CHTO   H54 8383   7.023   1.307   0.224  0.9772 -0.1246 -0.0795
   20CHTO   O20 8384   7.056   1.433   0.391 -0.4182  0.5385 -0.4517
   20CHTO   H36 8385   7.145   1.453   0.368  0.7678 -0.9985  2.4517
   20CHTO   C30 8386   7.091   1.192   0.398 -0.1482 -0.3320 -0.6787
   20CHTO   H58 8387   7.091   1.212   0.506  1.0670 -1.0192 -0.5415
   20CHTO    N6 8388   7.234   1.197   0.367  0.1406  0.6394  0.6596
   20CHTO   H45 8389   7.280   1.112   0.414  1.2517 -0.0098 -1.5427
   20CHTO   H46 8390   7.252   1.192   0.260  0.0630  2.3577  0.5449
   20CHTO   C33 8391   7.037   1.052   0.363 -0.1437 -0.3490  0.3109
   20CHTO   H61 8392   7.063   1.011   0.265  1.9273 -1.3227  1.2298
   20CHTO   O18 8393   6.892   1.060   0.370 -0.0038  0.1199  0.2154
   20CHTO   C28 8394   6.825   1.156   0.298 -0.6046  0.0320  0.6699
   20CHTO   H56 8395   6.860   1.150   0.195 -2.3512  2.2109 -0.0905
   20CHTO   C35 8396   6.670   1.129   0.308 -0.1115  0.0722 -0.7968
   20CHTO   O24 8397   6.645   0.997   0.253  0.1734 -1.2827  0.3724
   20CHTO   H39 8398   6.560   0.988   0.213 -0.2877 -2.3509  1.5603
   20CHTO    O9 8399   7.088   0.954   0.455 -0.1540  0.5144 -0.7921
   20CHTO   C13 8400   7.025   0.779   0.451  0.0959  0.0634  0.2398
   20CHTO   H26 8401   7.097   0.723   0.514 -1.5536  0.4322  2.5547
   20CHTO   C11 8402   7.002   0.709   0.308  0.0818  0.1290 -0.0090
   20CHTO   H24 8403   7.099   0.685   0.263  1.5950 -0.8382  3.5873
   20CHTO    O8 8404   6.930   0.802   0.225 -0.6098 -0.7111  0.1783
   20CHTO    H3 8405   6.940   0.765   0.140 -0.1780  0.9439 -0.5092
   20CHTO    C9 8406   6.915   0.579   0.322  0.1482 -0.1678 -0.3631
   20CHTO   H22 8407   6.965   0.522   0.402 -1.5469 -1.2782 -0.0647
   20CHTO    N2 8408   6.918   0.501   0.197  0.4013 -0.6895  0.3029
   20CHTO   H10 8409   6.960   0.562   0.118 -1.4868 -0.3845 -0.4914
   20CHTO   H11 8410   6.961   0.402   0.206  1.7813 -0.1769 -0.5409
   20CHTO    C7 8411   6.768   0.610   0.386 -0.1957  0.5818  0.1963
   20CHTO   H20 8412   6.753   0.526   0.457 -1.7152  0.2626 -0.4836
   20CHTO    O4 8413   6.777   0.735   0.463 -0.2151 -0.4953 -0.3829
   20CHTO   C14 8414   6.896   0.759   0.534 -0.6060  0.2627  0.0510
   20CHTO   H27 8415   6.914   0.666   0.592 -1.4701 -0.1943 -0.4055
   20CHTO   C18 8416   6.874   0.871   0.630  0.0547 -0.4189  0.8741
   20CHTO   O13 8417   6.785   0.850   0.740 -0.1290 -0.4514 -0.4817
   20CHTO    H7 8418   6.779   0.758   0.756 -2.7248 -0.2761 -0.2350
   20CHTO    O2 8419   6.639   0.619   0.283  0.1842 -0.0766  0.1499
   20CHTO    C1 8420   6.520   0.547   0.324  0.0373 -0.2295  0.6326
   20CHTO   H14 8421   6.516   0.544   0.435 -1.3871  0.4858  0.6085
   20CHTO    C2 8422   6.516   0.398   0.273  0.0828 -0.8048 -0.4881
   20CHTO   H15 8423   6.510   0.408   0.163  2.4187 -0.1356 -0.5829
   20CHTO    O6 8424   6.634   0.327   0.308 -1.3526 -0.0969 -0.1923
   20CHTO    H1 8425   6.648   0.254   0.251  1.5781  1.2191 -1.2452
   20CHTO    C3 8426   6.379   0.333   0.324 -0.2487 -0.5115 -0.0387
   20CHTO   H16 8427   6.386   0.336   0.434  0.1356  2.1916 -0.0915
   20CHTO    N1 8428   6.358   0.187   0.296 -0.1397 -0.1577 -0.1678
   20CHTO    H8 8429   6.384   0.126   0.381 -0.2682  1.4299  1.0397
   20CHTO    H9 8430   6.409   0.155   0.206 -2.4427 -1.4996 -1.0551
   20CHTO    C4 8431   6.255   0.427   0.295 -0.1017  0.3086 -0.1698
   20CHTO   H17 8432   6.228   0.421   0.190 -0.2337 -2.6898 -0.0133
   20CHTO    O1 8433   6.278   0.567   0.328 -0.3708  0.2117  0.6242
   20CHTO    C5 8434   6.395   0.624   0.267 -0.2318  0.3501 -0.3858
   20CHTO   H18 8435   6.387   0.600   0.161  1.3534  2.0891 -0.9245
   20CHTO   C16 8436   6.398   0.771   0.282 -0.2453 -0.6745 -0.7427
   20CHTO   O11 8437   6.279   0.831   0.237  0.1319  0.2038  0.2479
   20CHTO    H5 8438   6.224   0.859   0.307  0.6734  0.6859  0.4837
   20CHTO    O3 8439   6.155   0.385   0.393 -0.1516  0.1123 -0.1267
   20CHTO    C6 8440   6.017   0.425   0.356  0.5672  0.1457  0.6525
   20CHTO   H19 8441   6.012   0.521   0.304  2.1645  1.0279  2.0771
   20CHTO    C8 8442   5.953   0.320   0.260  0.5344 -0.1285 -0.8754
   20CHTO   H21 8443   5.974   0.223   0.305 -1.1853 -0.5205 -0.8879
   20CHTO    O7 8444   6.019   0.343   0.136 -0.2529 -0.3501  0.0262
   20CHTO    H2 8445   5.990   0.281   0.071 -0.1315  0.5359 -0.8865
   20CHTO   C12 8446   5.799   0.343   0.251  0.6602 -0.3664 -0.1121
   20CHTO   H25 8447   5.777   0.428   0.183  1.6317 -1.0096 -1.2282
   20CHTO    N3 8448   5.737   0.222   0.181 -0.3752  0.1390  0.7781
   20CHTO   H12 8449   5.805   0.138   0.190 -1.0455 -0.6867 -1.6389
   20CHTO   H13 8450   5.642   0.195   0.224 -0.7276 -1.5122 -0.9673
   20CHTO   C15 8451   5.725   0.375   0.386 -0.4775 -0.0027  0.3524
   20CHTO   H28 8452   5.701   0.294   0.455 -1.4808  0.0600  0.0962
   20CHTO   O10 8453   5.577   0.463   0.360 -0.6904 -0.0351 -0.9213
   20CHTO    H4 8454   5.526   0.489   0.434 -1.4542 -2.3399 -0.6045
   20CHTO    O5 8455   5.795   0.467   0.468  0.0230  0.3003  0.0496
   20CHTO   C10 8456   5.938   0.445   0.487 -0.1260  0.4256 -0.6550
   20CHTO   H23 8457   5.945   0.357   0.551  2.5146  1.3597  0.4094
   20CHTO   C17 8458   5.995   0.562   0.565 -0.4143 -0.5073 -0.9544
   20CHTO   O12 8459   5.915   0.573   0.681 -0.6575  0.2458  0.4557
   20CHTO    H6 8460   5.897   0.495   0.730 -1.9867  1.3504  1.7980
   21GLOH   H03 8461   0.455   4.064   1.730 -0.4960 -0.9343  1.2368
   21GLOH    O1 8462   0.441   4.118   1.811  0.0154  0.0831  0.6532
   21GLOH    C1 8463   0.329   4.200   1.783 -0.5730  0.5569  0.2232
   21GLOH   H02 8464   0.351   4.275   1.707 -2.1745 -0.4492 -1.2669
   21GLOH   H08 8465   0.293   4.253   1.871 -1.1558  0.7269 -0.1126
   21GLOH    C2 8466   0.215   4.116   1.722  0.2450 -0.0051 -0.4991
   21GLOH   H04 8467   0.135   4.192   1.717  0.2364  0.0025 -0.2565
   21GLOH    O2 8468   0.245   4.060   1.589 -0.1208 -0.7548 -0.3705
   21GLOH   H05 8469   0.174   4.083   1.527  1.1759 -0.7942 -1.8788
   21GLOH    C3 8470   0.169   4.012   1.825  0.5501 -0.0423  0.3822
   21GLOH   H06 8471   0.248   3.938   1.840  0.5800  0.8478  5.4709
   21GLOH   H07 8472   0.077   3.970   1.786  0.0771 -1.2496  2.7210
   21GLOH    O3 8473   0.143   4.069   1.950 -0.3365 -0.3314  0.1556
   21GLOH   H01 8474   0.121   3.996   2.012 -1.1572  0.9097  1.3620
   22GLOH   H03 8475   0.423   0.418   1.866 -2.0869 -2.0423  0.2032
   22GLOH    O1 8476   0.450   0.387   1.954 -0.4616 -0.1816  0.3961
   22GLOH    C1 8477   0.588   0.351   1.941  0.4526  0.2957 -0.0904
   22GLOH   H02 8478   0.637   0.436   1.894  1.3170  0.3819  0.9454
   22GLOH   H08 8479   0.595   0.260   1.882  0.7557  1.2244 -1.5135
   22GLOH    C2 8480   0.658   0.332   2.078 -0.5712 -0.1222  0.2336
   22GLOH   H04 8481   0.616   0.243   2.128  0.9366 -0.6242  0.6111
   22GLOH    O2 8482   0.795   0.300   2.054 -0.3058 -0.3434  0.6418
   22GLOH   H05 8483   0.826   0.326   1.966  1.8300  0.1567  1.4871
   22GLOH    C3 8484   0.641   0.463   2.165 -0.3422  0.1724  0.0871
   22GLOH   H06 8485   0.688   0.534   2.096  2.4646 -1.3561  0.3502
   22GLOH   H07 8486   0.710   0.469   2.249 -0.1069 -0.2715 -0.0728
   22GLOH    O3 8487   0.505   0.501   2.204 -0.6791 -0.5936  0.1441
   22GLOH   H01 8488   0.464   0.422   2.244  2.0007 -1.6276  0.9814
   23GLOH   H03 8489   3.534   5.578   2.543 -0.5442  0.1072  0.6633
   23GLOH    O1 8490   3.543   5.664   2.589 -0.6890  0.0951  0.7132
   23GLOH    C1 8491   3.460   5.644   2.706 -0.3938 -0.4362 -0.3576
   23GLOH   H02 8492   3.502   5.688   2.797  1.5272 -1.3789 -0.7469
   23GLOH   H08 8493   3.468   5.540   2.738  2.5833 -0.1516 -0.0242
   23GLOH    C2 8494   3.312   5.694   2.692  0.0917  0.1257  0.2987
   23GLOH   H04 8495   3.264   5.630   2.618 -1.5883  2.6693 -0.8977
   23GLOH    O2 8496   3.231   5.676   2.816 -0.1360  0.9154  0.3687
   23GLOH   H05 8497   3.189   5.589   2.816  2.9252 -0.6171 -0.1026
   23GLOH    C3 8498   3.318   5.846   2.646 -0.1886 -0.6356 -0.3530
   23GLOH   H06 8499   3.373   5.905   2.720  0.3375  1.4560 -2.3413
   23GLOH   H07 8500   3.217   5.887   2.645  0.6206  1.8839  4.6319
   23GLOH    O3 8501   3.378   5.852   2.516  0.2468  0.1810  0.4239
   23GLOH   H01 8502   3.469   5.818   2.513 -0.3133 -1.3113 -0.1934
   24GLOH   H03 8503   8.892   1.201   1.707  0.6140  1.7122  1.8313
   24GLOH    O1 8504   8.930   1.254   1.634 -0.2330 -0.3077 -0.1054
   24GLOH    C1 8505   9.056   1.298   1.677  0.4364 -0.6996 -0.1426
   24GLOH   H02 8506   9.120   1.220   1.717  1.6237  0.6077  0.5832
   24GLOH   H08 8507   9.039   1.360   1.765 -1.6171 -1.6901  0.1788
   24GLOH    C2 8508   9.141   1.376   1.574 -0.6609  0.2708  0.4440
   24GLOH   H04 8509   9.223   1.424   1.630 -1.6164  1.1464  1.1315
   24GLOH    O2 8510   9.200   1.285   1.478  0.1981 -0.0104 -0.2879
   24GLOH   H05 8511   9.131   1.271   1.412  0.7084  0.9766 -1.0496
   24GLOH    C3 8512   9.061   1.483   1.504  0.2325  0.1740 -0.0979
   24GLOH   H06 8513   8.984   1.427   1.451 -0.3175 -1.5831  2.4541
   24GLOH   H07 8514   9.117   1.534   1.425 -0.1864 -2.5324 -2.2242
   24GLOH    O3 8515   9.006   1.574   1.593  0.2657 -0.7906  0.0514
   24GLOH   H01 8516   8.932   1.529   1.637 -0.2928  0.4600  0.4277
   25GLOH   H03 8517   1.939   5.873   1.524 -1.3986 -0.2750 -2.8572
   25GLOH    O1 8518   1.863   5.816   1.548 -0.3110 -0.5420  0.0669
   25GLOH    C1 8519   1.839   5.837   1.689 -0.0814 -0.0662 -0.6756
   25GLOH   H02 8520   1.733   5.858   1.702 -0.7903 -2.3772 -2.6106
   25GLOH   H08 8521   1.899   5.923   1.721  3.2817 -1.5925 -2.6315
   25GLOH    C2 8522   1.896   5.713   1.757 -0.3232  0.1777  0.5443
   25GLOH   H04 8523   1.990   5.685   1.708 -0.5573  0.1496  0.1111
   25GLOH    O2 8524   1.930   5.723   1.897 -0.0082  0.6171  0.0555
   25GLOH   H05 8525   1.921   5.815   1.925 -0.9358  0.5495  0.0218
   25GLOH    C3 8526   1.810   5.588   1.739  0.0195  0.0955 -0.2632
   25GLOH   H06 8527   1.722   5.583   1.804  0.6590 -1.0408  0.5376
   25GLOH   H07 8528   1.878   5.509   1.770 -0.4672 -0.6220 -0.9711
   25GLOH    O3 8529   1.764   5.574   1.606  0.1821  0.4785 -0.5134
   25GLOH   H01 8530   1.804   5.649   1.557  1.2540 -0.4426 -1.0863
   26GLOH   H03 8531   0.611   2.905   1.712  0.2926  0.0173  0.3371
   26GLOH    O1 8532   0.571   2.826   1.752  0.5716 -0.1773  0.2366
   26GLOH    C1 8533   0.478   2.764   1.660  0.1958 -0.2288 -0.1872
   26GLOH   H02 8534   0.411   2.842   1.625 -0.9333 -1.0995 -0.0319
   26GLOH   H08 8535   0.415   2.693   1.714  0.1344 -1.5257 -1.9216
   26GLOH    C2 8536   0.535   2.694   1.532  0.0911  0.0077  0.2658
   26GLOH   H04 8537   0.456   2.652   1.469  0.5876  0.3223 -0.5767
   26GLOH    O2 8538   0.602   2.797   1.453 -0.1811  0.6493 -0.1303
   26GLOH   H05 8539   0.534   2.853   1.413 -2.1631 -1.3884  0.2622
   26GLOH    C3 8540   0.627   2.572   1.572 -0.1391 -0.4133  0.2173
   26GLOH   H06 8541   0.718   2.608   1.621 -0.6577  1.5665 -0.2347
   26GLOH   H07 8542   0.664   2.525   1.481  1.0286  0.9692 -0.0336
   26GLOH    O3 8543   0.549   2.482   1.656  0.1484  0.2925 -0.3085
   26GLOH   H01 8544   0.563   2.489   1.752 -0.8591 -0.3113 -0.1095
   27GLOH   H03 8545   3.130   5.947   0.723 -0.9106 -0.9282  0.7823
   27GLOH    O1 8546   3.058   5.998   0.680  0.1320 -0.0652  0.0116
   27GLOH    C1 8547   3.080   6.020   0.538 -0.1660  0.9487  0.0107
   27GLOH   H02 8548   3.134   6.106   0.498 -0.0891 -0.5030 -3.1693
   27GLOH   H08 8549   2.978   6.025   0.499 -0.2123 -0.8793 -0.1694
   27GLOH    C2 8550   3.134   5.890   0.470  0.1982  0.0627 -0.2064
   27GLOH   H04 8551   3.049   5.819   0.476  0.4272 -0.3903 -1.9935
   27GLOH    O2 8552   3.163   5.901   0.332 -0.5817 -0.4734 -0.3528
   27GLOH   H05 8553   3.180   5.815   0.290  3.1798 -0.9695  2.0108
   27GLOH    C3 8554   3.258   5.841   0.551 -0.3723 -0.3680 -0.5465
   27GLOH   H06 8555   3.322   5.929   0.561  0.2467 -0.8136 -0.6087
   27GLOH   H07 8556   3.307   5.758   0.502  1.4329  1.0946 -1.2513
   27GLOH    O3 8557   3.216   5.802   0.687 -0.5936 -0.4768 -0.4295
   27GLOH   H01 8558   3.276   5.735   0.725 -0.6979  0.1962  0.9627
   28GLOH   H03 8559   9.360   3.995   0.546 -0.3280 -2.3077 -2.2790
   28GLOH    O1 8560   9.300   4.047   0.490  0.0228  0.3601 -0.2353
   28GLOH    C1 8561   9.285   4.172   0.558 -0.7044  0.3224 -0.0461
   28GLOH   H02 8562   9.332   4.174   0.656 -0.8506 -0.1640  0.0337
   28GLOH   H08 8563   9.178   4.177   0.578 -0.7016 -0.4596  0.1932
   28GLOH    C2 8564   9.344   4.297   0.489  0.3729  0.1964 -0.6569
   28GLOH   H04 8565   9.448   4.272   0.462  0.2142 -0.6615 -0.4944
   28GLOH    O2 8566   9.264   4.316   0.368 -0.5907 -0.1834 -0.3214
   28GLOH   H05 8567   9.246   4.410   0.348  1.7511  0.5229  0.6875
   28GLOH    C3 8568   9.345   4.419   0.585  0.7963 -0.0776  0.6084
   28GLOH   H06 8569   9.242   4.421   0.623  0.6831  0.0384  0.2968
   28GLOH   H07 8570   9.366   4.511   0.531  0.3501  0.4212  1.2659
   28GLOH    O3 8571   9.421   4.412   0.711  0.0707  0.0041 -0.4382
   28GLOH   H01 8572   9.374   4.357   0.776  0.0639 -0.3305 -0.7251
   29GLOH   H03 8573   9.201   6.915   1.603 -0.4042 -1.0554  1.0725
   29GLOH    O1 8574   9.285   6.944   1.643 -0.2533  0.0664 -0.0434
   29GLOH    C1 8575   9.355   7.050   1.568 -0.5232 -0.7107  0.5579
   29GLOH   H02 8576   9.347   7.032   1.461  1.9568  2.8716 -0.3156
   29GLOH   H08 8577   9.462   7.057   1.590 -0.6976 -0.1553  1.2631
   29GLOH    C2 8578   9.301   7.196   1.595 -0.7047  0.6472 -0.9670
   29GLOH   H04 8579   9.249   7.188   1.691 -2.7857  0.1983 -2.0987
   29GLOH    O2 8580   9.405   7.293   1.591 -0.3364  0.0264 -0.7950
   29GLOH   H05 8581   9.365   7.368   1.636  1.6844 -0.3934  1.8333
   29GLOH    C3 8582   9.188   7.219   1.495 -0.1318 -0.0045 -0.2021
   29GLOH   H06 8583   9.103   7.160   1.530 -0.8891 -1.2651 -3.9719
   29GLOH   H07 8584   9.226   7.176   1.403 -0.9671 -0.5805 -0.2810
   29GLOH    O3 8585   9.153   7.356   1.485  0.4485 -0.2879  0.0259
   29GLOH   H01 8586   9.176   7.406   1.566  0.8924  2.4769 -1.7243
   30GLOH   H03 8587   4.288   8.830   1.684 -0.2060  0.5099  0.3158
   30GLOH    O1 8588   4.253   8.770   1.753  0.0428  0.2882  0.2485
   30GLOH    C1 8589   4.226   8.825   1.884  0.6934 -0.6684  0.0797
   30GLOH   H02 8590   4.287   8.916   1.892  0.5028 -0.6729  1.8477
   30GLOH   H08 8591   4.258   8.759   1.966  2.1482  0.4478  0.4504
   30GLOH    C2 8592   4.075   8.851   1.915  0.2006 -0.6477  0.8080
   30GLOH   H04 8593   4.025   8.755   1.899 -2.9616  0.8789  1.0842
   30GLOH    O2 8594   4.067   8.908   2.048  0.0397  0.0166  0.3143
   30GLOH   H05 8595   3.972   8.922   2.058  0.2755  1.0148  1.2499
   30GLOH    C3 8596   4.018   8.949   1.805  0.2287 -0.4625 -0.3920
   30GLOH   H06 8597   3.911   8.968   1.811  0.9968  3.9223  0.9396
   30GLOH   H07 8598   4.037   8.894   1.713  1.6202 -1.5918  0.5403
   30GLOH    O3 8599   4.085   9.072   1.792  0.3879  0.2224 -0.1026
   30GLOH   H01 8600   4.151   9.063   1.722  0.7341 -1.0628  0.3824
   31GLOH   H03 8601  10.079   8.574   1.918 -0.1062 -0.6746  1.3517
   31GLOH    O1 8602  10.081   8.655   1.973 -0.2597  0.2730 -0.0100
   31GLOH    C1 8603   9.958   8.723   1.965  0.4503 -0.3836  0.6344
   31GLOH   H02 8604   9.902   8.717   1.872 -1.5137 -1.1442  1.8241
   31GLOH   H08 8605   9.982   8.828   1.985  0.1803 -0.4677  1.4424
   31GLOH    C2 8606   9.862   8.677   2.077  0.6203  0.6466  0.3311
   31GLOH   H04 8607   9.906   8.698   2.175 -1.5106 -1.1947  1.7193
   31GLOH    O2 8608   9.742   8.754   2.058 -0.3222 -0.2390 -0.3461
   31GLOH   H05 8609   9.749   8.825   2.124 -0.4702  1.2557 -1.8819
   31GLOH    C3 8610   9.844   8.529   2.091 -0.2655 -0.1552  0.3508
   31GLOH   H06 8611   9.943   8.485   2.078  0.4470  1.4986  0.0677
   31GLOH   H07 8612   9.789   8.490   2.005  0.7067  1.3125 -0.9483
   31GLOH    O3 8613   9.775   8.487   2.208 -0.0369  0.6377 -0.0058
   31GLOH   H01 8614   9.839   8.472   2.281  0.8883  1.1317 -0.7036
   32GLOH   H03 8615   8.862   3.634   1.215 -0.4153 -1.2686 -0.9488
   32GLOH    O1 8616   8.906   3.677   1.140 -0.7095  0.3423 -0.2018
   32GLOH    C1 8617   8.861   3.603   1.024 -0.1691 -0.3732  1.0351
   32GLOH   H02 8618   8.923   3.603   0.935  0.7696  0.5291  1.6776
   32GLOH   H08 8619   8.766   3.647   0.994  0.3030  0.2840  0.5039
   32GLOH    C2 8620   8.845   3.453   1.066 -0.0836 -0.2549 -0.2655
   32GLOH   H04 8621   8.805   3.394   0.982  0.6921  1.2174 -1.6841
   32GLOH    O2 8622   8.972   3.392   1.102 -0.0939 -0.1520 -0.5606
   32GLOH   H05 8623   9.028   3.397   1.023 -3.0457 -1.7309 -2.8578
   32GLOH    C3 8624   8.738   3.442   1.182 -0.0991  0.0450  0.3154
   32GLOH   H06 8625   8.747   3.340   1.220 -0.0825  0.1123  0.4918
   32GLOH   H07 8626   8.636   3.453   1.143 -0.2862 -1.1419  0.4381
   32GLOH    O3 8627   8.758   3.543   1.286 -0.0412  0.7828 -0.5083
   32GLOH   H01 8628   8.708   3.513   1.364  0.6934  2.3393  0.5748
   33GLOH   H03 8629   0.384   7.119   1.487  2.0680 -1.8381 -0.8107
   33GLOH    O1 8630   0.448   7.183   1.450 -0.3665  1.1917  0.0617
   33GLOH    C1 8631   0.436   7.298   1.542  0.4987  0.4462  0.0455
   33GLOH   H02 8632   0.337   7.315   1.585 -0.3953 -1.3789 -1.2301
   33GLOH   H08 8633   0.451   7.390   1.487  2.8824  1.5141  2.3553
   33GLOH    C2 8634   0.529   7.299   1.653 -0.1927  0.3544  0.2039
   33GLOH   H04 8635   0.499   7.206   1.704  1.4405  0.5523  1.6009
   33GLOH    O2 8636   0.668   7.290   1.603  0.3376 -0.6249 -0.2602
   33GLOH   H05 8637   0.676   7.217   1.539 -0.9970  0.3193 -1.5411
   33GLOH    C3 8638   0.508   7.410   1.759  0.0090 -0.1497  0.4301
   33GLOH   H06 8639   0.481   7.504   1.712  0.1078  0.6009  1.8559
   33GLOH   H07 8640   0.597   7.422   1.820  0.1046 -2.8307  0.8858
   33GLOH    O3 8641   0.395   7.379   1.847  0.2909 -0.1681 -0.5199
   33GLOH   H01 8642   0.427   7.334   1.927 -1.0050  0.6403  0.4780
   34GLOH   H03 8643   3.288   1.958   1.975 -2.1439 -0.3587 -1.2601
   34GLOH    O1 8644   3.343   1.989   1.901 -0.1463  0.1724  0.4068
   34GLOH    C1 8645   3.465   2.044   1.943  0.1210  0.5542  0.3143
   34GLOH   H02 8646   3.487   2.140   1.897 -1.7666 -0.1141 -2.0869
   34GLOH   H08 8647   3.548   1.985   1.903 -1.0365 -0.1717 -1.0627
   34GLOH    C2 8648   3.479   2.069   2.095  0.3099  0.1734 -0.0859
   34GLOH   H04 8649   3.427   1.989   2.150 -0.4911  0.7517  0.0137
   34GLOH    O2 8650   3.622   2.071   2.132  0.3880 -0.6850  0.0696
   34GLOH   H05 8651   3.645   1.977   2.140 -0.8826 -1.0263 -0.1910
   34GLOH    C3 8652   3.399   2.192   2.139 -0.4751 -0.1677  0.3455
   34GLOH   H06 8653   3.442   2.283   2.096  1.2184 -0.1502  2.0082
   34GLOH   H07 8654   3.408   2.201   2.248 -2.4133 -0.5492  0.5521
   34GLOH    O3 8655   3.262   2.176   2.117 -0.4962 -0.1480  0.0431
   34GLOH   H01 8656   3.222   2.128   2.191 -0.0803  1.0295  1.0521
   35GLOH   H03 8657   8.157   1.561   1.444  1.6857 -0.7721 -1.1776
   35GLOH    O1 8658   8.132   1.489   1.505  0.5478  0.4671 -0.1477
   35GLOH    C1 8659   8.130   1.549   1.632  0.1694 -0.6394  0.4803
   35GLOH   H02 8660   8.120   1.466   1.702 -1.5510 -1.1577 -0.3307
   35GLOH   H08 8661   8.040   1.607   1.656  1.3783  0.9184  1.3313
   35GLOH    C2 8662   8.253   1.633   1.661  0.5905  0.9560 -0.6530
   35GLOH   H04 8663   8.262   1.718   1.592 -0.1747  1.2096 -0.4355
   35GLOH    O2 8664   8.253   1.689   1.792  0.2390  0.1830  0.0333
   35GLOH   H05 8665   8.322   1.757   1.790 -0.5795  1.0255  0.4361
   35GLOH    C3 8666   8.373   1.545   1.640  0.0160  0.3452 -0.2660
   35GLOH   H06 8667   8.366   1.459   1.706 -0.5823  1.6921  1.4524
   35GLOH   H07 8668   8.457   1.609   1.669  0.6082 -1.5200  2.3145
   35GLOH    O3 8669   8.386   1.492   1.505  0.4345  0.4736  0.2060
   35GLOH   H01 8670   8.296   1.464   1.482 -0.2015 -0.0351  3.0516
   36GLOH   H03 8671   1.298   0.828   1.852  0.0466  2.2404  1.1897
   36GLOH    O1 8672   1.201   0.828   1.843  0.0584  0.3058  0.6767
   36GLOH    C1 8673   1.158   0.708   1.797  0.1161 -0.7928 -0.4832
   36GLOH   H02 8674   1.098   0.667   1.879  0.7827  0.1710  0.5039
   36GLOH   H08 8675   1.237   0.634   1.786  1.6278  0.8476 -0.9723
   36GLOH    C2 8676   1.070   0.711   1.667 -0.2522 -0.3207  0.1625
   36GLOH   H04 8677   1.117   0.773   1.590  1.0211 -2.5467 -0.9254
   36GLOH    O2 8678   1.057   0.578   1.609  0.3121  0.1926 -0.0431
   36GLOH   H05 8679   0.970   0.565   1.568  0.1616 -0.3110  0.4398
   36GLOH    C3 8680   0.926   0.759   1.696 -0.5365 -0.2880  0.4215
   36GLOH   H06 8681   0.880   0.768   1.598  1.9394 -0.9618 -0.8426
   36GLOH   H07 8682   0.944   0.859   1.733  0.9519  0.1543 -1.4530
   36GLOH    O3 8683   0.844   0.682   1.788  0.3366 -0.3730 -0.5391
   36GLOH   H01 8684   0.836   0.732   1.871 -0.3440  0.0353 -0.8476
   37GLOH   H03 8685   2.120   5.094   0.875  0.2677  0.3717 -0.1406
   37GLOH    O1 8686   2.070   5.091   0.791  0.0084  0.3466  0.0135
   37GLOH    C1 8687   2.001   5.215   0.760  0.2084  0.2547 -0.1370
   37GLOH   H02 8688   2.065   5.283   0.703 -0.3734  1.3548  0.5092
   37GLOH   H08 8689   1.976   5.274   0.848 -2.1805 -2.3654  1.0208
   37GLOH    C2 8690   1.868   5.202   0.693 -0.4099  0.5806 -0.2975
   37GLOH   H04 8691   1.896   5.139   0.607 -2.9023  0.1881 -0.8647
   37GLOH    O2 8692   1.773   5.123   0.769 -0.3965 -0.1499  0.2207
   37GLOH   H05 8693   1.814   5.044   0.808 -1.1679 -1.6501 -1.8950
   37GLOH    C3 8694   1.827   5.336   0.631  0.2144 -0.0460 -0.2895
   37GLOH   H06 8695   1.808   5.417   0.700  0.7585 -0.6299  0.5507
   37GLOH   H07 8696   1.731   5.320   0.582 -0.9404  1.3690  1.5042
   37GLOH    O3 8697   1.924   5.379   0.530  0.2696  0.4552  0.7978
   37GLOH   H01 8698   1.928   5.318   0.454 -0.9425  0.0637  1.0275
   38GLOH   H03 8699   9.702   7.437   2.023 -0.8064 -0.0513  1.2783
   38GLOH    O1 8700   9.684   7.521   1.977 -0.2791 -0.2469  0.7115
   38GLOH    C1 8701   9.657   7.629   2.070 -0.2842  0.2096 -0.4462
   38GLOH   H02 8702   9.568   7.617   2.131 -0.0047  1.8694  0.3169
   38GLOH   H08 8703   9.641   7.722   2.014  0.0876 -1.0440 -2.6987
   38GLOH    C2 8704   9.769   7.647   2.177  0.5239 -0.3046  0.7892
   38GLOH   H04 8705   9.751   7.748   2.215  0.6863  0.5589 -1.3804
   38GLOH    O2 8706   9.758   7.543   2.273  0.3813  0.1423  0.1619
   38GLOH   H05 8707   9.726   7.459   2.235  0.0706 -0.2807  1.3312
   38GLOH    C3 8708   9.902   7.650   2.099 -0.6236  0.4001  0.6717
   38GLOH   H06 8709   9.920   7.550   2.060 -0.4220 -0.0717  1.9364
   38GLOH   H07 8710   9.976   7.676   2.175 -1.8101 -2.6323  2.9410
   38GLOH    O3 8711   9.898   7.760   1.999 -0.4471  0.2098  0.2069
   38GLOH   H01 8712   9.980   7.754   1.946 -0.9285 -3.1078 -0.3179
   39GLOH   H03 8713   9.335   4.781   1.674  0.9925 -0.0542 -0.1318
   39GLOH    O1 8714   9.288   4.696   1.665  0.0954  0.4531 -0.3530
   39GLOH    C1 8715   9.322   4.638   1.538  0.1152 -0.1424 -0.1533
   39GLOH   H02 8716   9.339   4.710   1.458  0.0639  1.4614  1.2556
   39GLOH   H08 8717   9.249   4.568   1.498  0.7422 -0.9847  0.1579
   39GLOH    C2 8718   9.453   4.557   1.541 -0.4393  0.3279 -0.3741
   39GLOH   H04 8719   9.537   4.627   1.547  1.8829 -2.4200  0.7602
   39GLOH    O2 8720   9.442   4.471   1.657 -0.0722  0.2360  0.4654
   39GLOH   H05 8721   9.361   4.421   1.640 -0.4122  1.3785 -1.3745
   39GLOH    C3 8722   9.467   4.467   1.416 -0.4498  0.2761  0.3601
   39GLOH   H06 8723   9.391   4.391   1.404  1.4888 -1.4207 -1.6550
   39GLOH   H07 8724   9.554   4.401   1.420 -1.9186 -1.8855 -1.8464
   39GLOH    O3 8725   9.464   4.548   1.300  0.1177 -0.8584 -0.1217
   39GLOH   H01 8726   9.448   4.504   1.215  0.0486 -0.5957 -0.2444
   40GLOH   H03 8727   4.085   1.729   1.912  1.2118 -0.3533 -0.8112
   40GLOH    O1 8728   4.035   1.686   1.840 -0.2211  0.4845 -0.3231
   40GLOH    C1 8729   3.988   1.565   1.900  0.2246  0.1690 -0.3370
   40GLOH   H02 8730   3.913   1.601   1.971  1.9355 -1.0422  2.1499
   40GLOH   H08 8731   4.071   1.521   1.956  0.9928 -0.4177 -1.9127
   40GLOH    C2 8732   3.940   1.459   1.803 -0.2958  0.1170 -0.5559
   40GLOH   H04 8733   4.029   1.435   1.742  1.7852  0.3368  2.2620
   40GLOH    O2 8734   3.897   1.337   1.866 -0.3992  0.2216 -0.0945
   40GLOH   H05 8735   3.811   1.366   1.899 -1.1798  1.0180 -2.6791
   40GLOH    C3 8736   3.833   1.520   1.707 -0.4477 -0.2061 -0.4104
   40GLOH   H06 8737   3.741   1.537   1.763  0.3599  0.9586  0.6075
   40GLOH   H07 8738   3.807   1.438   1.641  1.8413  0.6437 -2.4674
   40GLOH    O3 8739   3.872   1.643   1.646 -0.0224 -0.3745  0.4352
   40GLOH   H01 8740   3.922   1.702   1.706 -0.3292  2.6690 -2.1603
   41GLOH   H03 8741   2.791   7.903   1.814  1.1722  1.1673 -0.5758
   41GLOH    O1 8742   2.735   7.966   1.764 -0.6933  0.3205  0.4064
   41GLOH    C1 8743   2.798   8.089   1.733 -0.2503  0.3188  0.4393
   41GLOH   H02 8744   2.884   8.076   1.667 -1.0653 -0.0160 -0.5655
   41GLOH   H08 8745   2.829   8.140   1.824  1.3366  0.0916  0.0468
   41GLOH    C2 8746   2.712   8.195   1.656 -0.4106  0.4546 -0.5557
   41GLOH   H04 8747   2.621   8.205   1.716 -0.6512  0.3120 -0.8946
   41GLOH    O2 8748   2.791   8.318   1.655  0.5064  0.9035 -0.1615
   41GLOH   H05 8749   2.769   8.356   1.742  0.3276  1.4982 -0.4695
   41GLOH    C3 8750   2.679   8.144   1.514 -0.0782  0.6237 -0.3605
   41GLOH   H06 8751   2.632   8.046   1.523  1.9176 -0.2199  1.1924
   41GLOH   H07 8752   2.770   8.116   1.462 -1.0062  0.8608 -2.1575
   41GLOH    O3 8753   2.609   8.234   1.430  0.3634  0.0376  0.1991
   41GLOH   H01 8754   2.676   8.295   1.395  1.0215  0.4854  2.1630
   42GLOH   H03 8755   3.488   7.749   3.149  0.4807 -1.1083  0.5933
   42GLOH    O1 8756   3.502   7.722   3.056  0.1451 -0.6376  0.4088
   42GLOH    C1 8757   3.558   7.830   2.990  0.0430 -0.4018 -0.2318
   42GLOH   H02 8758   3.647   7.860   3.045  0.7820 -1.3477 -0.8902
   42GLOH   H08 8759   3.491   7.915   2.982  0.1539 -0.3602 -0.7438
   42GLOH    C2 8760   3.583   7.800   2.845 -0.1597  0.3625  0.0093
   42GLOH   H04 8761   3.642   7.886   2.811  0.9308 -1.1914 -2.2246
   42GLOH    O2 8762   3.678   7.692   2.829  0.4984 -0.6346  0.4693
   42GLOH   H05 8763   3.643   7.606   2.856  2.0771 -1.5731 -0.3908
   42GLOH    C3 8764   3.456   7.781   2.762  0.6642  0.2615  0.4591
   42GLOH   H06 8765   3.408   7.686   2.782 -0.9193  0.9613  0.0767
   42GLOH   H07 8766   3.489   7.773   2.658 -0.6028  3.1519 -0.2283
   42GLOH    O3 8767   3.370   7.898   2.770 -0.2954 -0.1826 -0.5490
   42GLOH   H01 8768   3.299   7.889   2.836 -1.0601  1.0960 -1.1718
   43GLOH   H03 8769   2.113   1.756   1.952 -1.4726  2.3457  1.6200
   43GLOH    O1 8770   2.122   1.696   2.028 -0.1865  0.2547 -0.1057
   43GLOH    C1 8771   2.155   1.776   2.144 -0.2724  0.0242 -0.1163
   43GLOH   H02 8772   2.096   1.867   2.130 -0.7871 -0.3489 -0.3643
   43GLOH   H08 8773   2.262   1.796   2.142 -0.2759  0.0377 -0.1690
   43GLOH    C2 8774   2.113   1.703   2.271  0.2040  0.3511  0.2516
   43GLOH   H04 8775   2.144   1.759   2.361  0.4638 -0.6666  0.8102
   43GLOH    O2 8776   1.972   1.689   2.284 -0.1424 -0.1109  0.5782
   43GLOH   H05 8777   1.937   1.666   2.195 -3.3350 -0.9354  1.9574
   43GLOH    C3 8778   2.180   1.563   2.282 -0.9225  0.4704  0.1700
   43GLOH   H06 8779   2.116   1.505   2.215 -2.9545  0.1765  2.3337
   43GLOH   H07 8780   2.167   1.519   2.381  2.8915 -0.3220  0.4182
   43GLOH    O3 8781   2.327   1.559   2.258  0.1094 -0.3839 -0.1866
   43GLOH   H01 8782   2.355   1.468   2.236  0.4958 -0.4755  0.6671
   44GLOH   H03 8783   2.426   4.729   2.644 -1.4874 -1.2975  1.1744
   44GLOH    O1 8784   2.496   4.662   2.656 -0.2831 -0.2266  0.2667
   44GLOH    C1 8785   2.447   4.537   2.692  0.0953 -0.0797 -0.1031
   44GLOH   H02 8786   2.359   4.499   2.641 -0.5539  2.4801 -0.9435
   44GLOH   H08 8787   2.412   4.543   2.795 -0.3657 -0.5664 -0.2312
   44GLOH    C2 8788   2.552   4.424   2.680 -0.2978 -0.3158 -0.1271
   44GLOH   H04 8789   2.606   4.427   2.584 -0.1989 -0.3395 -0.0719
   44GLOH    O2 8790   2.649   4.439   2.785 -0.2228  0.3072 -0.2233
   44GLOH   H05 8791   2.715   4.369   2.778  0.5226  1.2182 -3.2115
   44GLOH    C3 8792   2.482   4.286   2.701  0.6337 -0.5705  0.3151
   44GLOH   H06 8793   2.425   4.291   2.794 -0.2358  0.6409 -0.2690
   44GLOH   H07 8794   2.563   4.215   2.716  0.1844 -1.1421  0.0784
   44GLOH    O3 8795   2.402   4.247   2.583 -0.3533 -0.6869 -0.6828
   44GLOH   H01 8796   2.310   4.254   2.613  0.3836 -0.0753  1.5685
   45GLOH   H03 8797   0.030   4.829   2.854 -0.3024 -1.6678 -0.7938
   45GLOH    O1 8798  -0.011   4.884   2.785  0.1206 -0.0651  0.1764
   45GLOH    C1 8799   0.052   5.012   2.790 -0.7893 -0.1896 -0.1049
   45GLOH   H02 8800   0.078   5.041   2.891  1.8186  1.4539 -1.1956
   45GLOH   H08 8801  -0.014   5.091   2.752 -0.2751 -0.0014 -0.6134
   45GLOH    C2 8802   0.187   5.019   2.712  0.0575  0.3688  0.1806
   45GLOH   H04 8803   0.224   5.118   2.740  1.6338 -0.2000  0.1797
   45GLOH    O2 8804   0.275   4.912   2.758 -0.2470 -0.4699  0.4889
   45GLOH   H05 8805   0.246   4.832   2.712 -1.6838  0.0630  0.4438
   45GLOH    C3 8806   0.157   5.014   2.559  0.1039  0.2286  0.8143
   45GLOH   H06 8807   0.082   5.089   2.534 -1.5572 -1.4570  0.6697
   45GLOH   H07 8808   0.118   4.915   2.537  0.4579  0.7678 -2.5455
   45GLOH    O3 8809   0.273   5.039   2.483  0.0656  0.4361 -1.5471
   45GLOH   H01 8810   0.267   4.982   2.404 -0.2575  0.3032 -1.4269
   46GLOH   H03 8811   3.662   8.216   0.364  1.8806  0.8719  2.3497
   46GLOH    O1 8812   3.612   8.153   0.419  0.4940 -0.3002 -0.1938
   46GLOH    C1 8813   3.480   8.157   0.376  0.0239  0.2545 -0.0117
   46GLOH   H02 8814   3.416   8.087   0.431 -1.2130  2.0485  0.8935
   46GLOH   H08 8815   3.472   8.136   0.269  0.6160 -1.4834  0.2707
   46GLOH    C2 8816   3.413   8.293   0.401 -0.0397  0.8632  0.4758
   46GLOH   H04 8817   3.429   8.312   0.508 -1.5671  0.6252  0.7577
   46GLOH    O2 8818   3.464   8.404   0.325  0.0418  0.3407 -0.0950
   46GLOH   H05 8819   3.454   8.493   0.363 -0.7584  1.0536 -1.9061
   46GLOH    C3 8820   3.263   8.289   0.364  0.2376  0.2097  0.0896
   46GLOH   H06 8821   3.253   8.266   0.258  1.7533 -4.0697  0.7332
   46GLOH   H07 8822   3.209   8.381   0.382  0.4347  0.1332  1.1105
   46GLOH    O3 8823   3.198   8.186   0.448 -0.0597  0.0989 -0.5839
   46GLOH   H01 8824   3.103   8.194   0.429  0.0351 -0.3104 -1.2345
   47GLOH   H03 8825   3.116   8.851   2.750  0.0824  0.7760  0.2711
   47GLOH    O1 8826   3.030   8.860   2.704  0.3249 -0.2593 -0.4015
   47GLOH    C1 8827   3.020   9.002   2.677 -0.1243  0.0820  0.8190
   47GLOH   H02 8828   3.095   9.032   2.604 -1.0278 -1.3941 -0.7485
   47GLOH   H08 8829   3.023   9.080   2.753  3.7201  1.3019 -0.4434
   47GLOH    C2 8830   2.878   9.031   2.624 -0.2678  0.3839 -0.3903
   47GLOH   H04 8831   2.808   9.021   2.709 -1.4336 -1.1238 -1.5086
   47GLOH    O2 8832   2.867   9.170   2.591  0.0334  0.0199  0.0005
   47GLOH   H05 8833   2.952   9.213   2.608  0.4500  0.0083 -1.8653
   47GLOH    C3 8834   2.828   8.947   2.504 -0.5235  0.3637  0.4640
   47GLOH   H06 8835   2.899   8.964   2.423 -1.5815  0.5883 -0.4259
   47GLOH   H07 8836   2.733   8.981   2.464 -1.2393 -0.2361  1.6141
   47GLOH    O3 8837   2.836   8.807   2.533 -0.1640  0.5766 -0.0502
   47GLOH   H01 8838   2.919   8.803   2.585 -0.3210  0.0462  0.1625
   48GLOH   H03 8839   3.681   3.571   1.358 -2.2871  0.9675 -2.0879
   48GLOH    O1 8840   3.610   3.560   1.424 -0.6650  0.2090 -0.4356
   48GLOH    C1 8841   3.565   3.426   1.419 -0.5496  1.1512  0.3638
   48GLOH   H02 8842   3.645   3.357   1.447 -2.1402 -2.1322 -2.7530
   48GLOH   H08 8843   3.530   3.395   1.321  0.4048  2.1424 -0.2908
   48GLOH    C2 8844   3.465   3.381   1.528 -0.0936  0.8137  0.4393
   48GLOH   H04 8845   3.370   3.414   1.483  0.6722 -0.1430 -1.9734
   48GLOH    O2 8846   3.462   3.236   1.531  0.5006  0.1933  0.3106
   48GLOH   H05 8847   3.433   3.207   1.443 -1.7238  1.4577  0.5895
   48GLOH    C3 8848   3.492   3.446   1.663  0.0425 -0.4247  0.1514
   48GLOH   H06 8849   3.587   3.407   1.699  0.3370 -0.5614 -0.7586
   48GLOH   H07 8850   3.412   3.412   1.729  1.2270  0.0534  1.8659
   48GLOH    O3 8851   3.482   3.587   1.640 -0.0952 -0.6686 -0.0811
   48GLOH   H01 8852   3.513   3.605   1.550 -0.3604 -0.3576 -0.1116
   49GLOH   H03 8853   0.397   9.593   1.133 -0.5520 -2.1951  1.3871
   49GLOH    O1 8854   0.492   9.585   1.154 -0.0490 -0.3353 -0.1287
   49GLOH    C1 8855   0.536   9.715   1.214  0.1482  0.1133  0.5275
   49GLOH   H02 8856   0.456   9.746   1.282 -2.5852  2.5735 -3.6199
   49GLOH   H08 8857   0.546   9.798   1.145  0.2557  0.1351  0.5710
   49GLOH    C2 8858   0.669   9.714   1.291 -0.0091 -0.1250  0.6823
   49GLOH   H04 8859   0.674   9.821   1.315  0.5696  0.4021 -1.6552
   49GLOH    O2 8860   0.668   9.633   1.409 -0.2608  0.1930  0.1407
   49GLOH   H05 8861   0.616   9.685   1.472  0.1004 -0.5666  1.0823
   49GLOH    C3 8862   0.790   9.675   1.205 -0.3099 -0.3598 -0.0242
   49GLOH   H06 8863   0.768   9.575   1.167 -0.8893 -0.9901  1.9168
   49GLOH   H07 8864   0.883   9.649   1.254  0.0918  1.3848  0.2023
   49GLOH    O3 8865   0.815   9.763   1.090  0.0373  0.1054  0.1337
   49GLOH   H01 8866   0.740   9.744   1.032  1.2109  0.7909 -1.6554
   50GLOH   H03 8867   4.489   1.406   2.397  2.1707 -0.7468  0.7739
   50GLOH    O1 8868   4.471   1.463   2.474  0.1293 -0.2023 -0.0857
   50GLOH    C1 8869   4.458   1.594   2.429  0.3451  0.9756 -0.0529
   50GLOH   H02 8870   4.367   1.618   2.374  1.0494  0.2770 -1.5427
   50GLOH   H08 8871   4.540   1.611   2.360  1.5407 -0.2789  1.0315
   50GLOH    C2 8872   4.490   1.694   2.540 -1.1451 -0.1025 -0.1756
   50GLOH   H04 8873   4.593   1.695   2.578 -0.9292  1.5659 -0.7644
   50GLOH    O2 8874   4.469   1.829   2.481 -0.3421 -0.1989 -0.3105
   50GLOH   H05 8875   4.495   1.900   2.541 -0.1166  1.7924 -2.7014
   50GLOH    C3 8876   4.386   1.674   2.650 -0.5791 -0.1845 -0.4548
   50GLOH   H06 8877   4.292   1.697   2.599 -0.3570 -0.5270 -1.0214
   50GLOH   H07 8878   4.396   1.740   2.736 -0.2944 -1.4063  0.4763
   50GLOH    O3 8879   4.387   1.543   2.695  0.3968  0.1012  0.2603
   50GLOH   H01 8880   4.410   1.489   2.617 -0.3280  0.9144 -0.5198
   51GLOH   H03 8881   8.828   6.593   1.315 -0.6290  2.6333  1.5417
   51GLOH    O1 8882   8.923   6.599   1.336 -0.2394  0.1961  0.6038
   51GLOH    C1 8883   8.972   6.472   1.389  0.1016 -0.0214 -0.2920
   51GLOH   H02 8884   8.929   6.454   1.488 -0.9504  1.0164 -0.5486
   51GLOH   H08 8885   9.080   6.469   1.402  0.0793  0.9878  0.1506
   51GLOH    C2 8886   8.924   6.366   1.296  0.7849 -0.0782  0.5716
   51GLOH   H04 8887   8.995   6.385   1.213  0.1424 -1.1961 -0.2430
   51GLOH    O2 8888   8.952   6.238   1.348  0.2300  0.4552 -0.2310
   51GLOH   H05 8889   9.047   6.225   1.329 -0.2827 -1.6934 -1.5287
   51GLOH    C3 8890   8.773   6.368   1.270 -0.8025  0.7309  0.1102
   51GLOH   H06 8891   8.718   6.342   1.360 -2.1947  3.9899  0.2863
   51GLOH   H07 8892   8.749   6.295   1.193 -2.0659  1.0357  0.1920
   51GLOH    O3 8893   8.728   6.494   1.214 -0.2829 -0.7156  0.3902
   51GLOH   H01 8894   8.768   6.501   1.125  1.9647 -0.6600  1.3822
   52GLOH   H03 8895   2.708   7.821   2.143 -0.6960  2.7641 -2.5517
   52GLOH    O1 8896   2.676   7.757   2.076 -0.7079 -0.1811  0.1004
   52GLOH    C1 8897   2.532   7.769   2.060  0.2531  0.1585 -0.3014
   52GLOH   H02 8898   2.492   7.715   1.974  2.3661  1.1622 -1.9325
   52GLOH   H08 8899   2.502   7.873   2.049  0.1969  0.2697  0.8215
   52GLOH    C2 8900   2.460   7.721   2.186 -0.6037  0.1151 -0.0566
   52GLOH   H04 8901   2.486   7.791   2.266 -0.3215  2.2439 -1.9761
   52GLOH    O2 8902   2.313   7.728   2.175  0.0441  0.6654 -0.3934
   52GLOH   H05 8903   2.272   7.768   2.253 -0.0389  1.3923 -0.8053
   52GLOH    C3 8904   2.492   7.575   2.219 -0.7292 -0.4659 -0.0663
   52GLOH   H06 8905   2.600   7.557   2.221 -0.6482 -0.1657 -1.7191
   52GLOH   H07 8906   2.447   7.516   2.139 -0.8521  2.4978 -2.2607
   52GLOH    O3 8907   2.448   7.533   2.345 -0.0773  0.1982 -0.2738
   52GLOH   H01 8908   2.517   7.530   2.413 -1.3803 -1.6341  1.0175
   53GLOH   H03 8909   9.066   5.605   2.064 -1.1317 -2.5182 -0.0917
   53GLOH    O1 8910   8.990   5.642   2.112  0.3432  0.5342  0.0027
   53GLOH    C1 8911   8.988   5.558   2.228  0.1232  0.7176 -0.0395
   53GLOH   H02 8912   9.052   5.471   2.222  0.0284  0.3278  3.5802
   53GLOH   H08 8913   8.890   5.516   2.249  0.3965  0.7265  1.3069
   53GLOH    C2 8914   9.027   5.635   2.357  0.2367  0.3397  0.1745
   53GLOH   H04 8915   8.991   5.738   2.347  1.8716  1.0999  1.9601
   53GLOH    O2 8916   8.985   5.559   2.477  0.3399  0.4162  0.2591
   53GLOH   H05 8917   9.015   5.607   2.556  2.4709 -2.8498  1.5435
   53GLOH    C3 8918   9.178   5.639   2.370  0.0998  0.3174  0.1371
   53GLOH   H06 8919   9.216   5.537   2.363 -2.2646 -0.5152 -0.9952
   53GLOH   H07 8920   9.211   5.688   2.462 -2.2928  0.3053  1.0373
   53GLOH    O3 8921   9.235   5.710   2.262  0.0148  0.5817 -0.4159
   53GLOH   H01 8922   9.311   5.657   2.232  0.0020  1.0253 -1.2276
   54GLOH   H03 8923   1.848   4.121   2.293 -2.3134  1.4436 -1.5450
   54GLOH    O1 8924   1.782   4.071   2.344 -0.3080  0.2242 -0.0816
   54GLOH    C1 8925   1.822   3.933   2.335  0.0421 -0.4559  0.1266
   54GLOH   H02 8926   1.930   3.926   2.321 -0.0112 -1.1964  0.0547
   54GLOH   H08 8927   1.772   3.888   2.249 -0.2794 -1.3134  0.7638
   54GLOH    C2 8928   1.785   3.855   2.460 -0.1951 -0.3344  0.1003
   54GLOH   H04 8929   1.675   3.850   2.467 -0.1966  1.6066  2.1405
   54GLOH    O2 8930   1.848   3.728   2.461  0.8785  0.7242  0.2317
   54GLOH   H05 8931   1.814   3.659   2.521  1.2120  0.0646 -0.3252
   54GLOH    C3 8932   1.816   3.934   2.588  0.0493  0.2593 -0.3808
   54GLOH   H06 8933   1.924   3.927   2.603 -0.1205  0.2838  0.8904
   54GLOH   H07 8934   1.763   3.883   2.668 -2.7447  0.7284 -1.8918
   54GLOH    O3 8935   1.756   4.066   2.588 -0.5255 -0.3935 -0.9743
   54GLOH   H01 8936   1.762   4.098   2.496  0.0388  0.2244 -0.7295
   55GLOH   H03 8937   4.060   9.349   1.509  1.8548  0.2760 -1.4471
   55GLOH    O1 8938   4.038   9.292   1.434 -0.0703 -0.1108 -0.6125
   55GLOH    C1 8939   3.913   9.224   1.467  0.5315  0.2349 -0.9905
   55GLOH   H02 8940   3.829   9.291   1.487  0.6659  0.3098 -0.6726
   55GLOH   H08 8941   3.919   9.177   1.565  0.3186  0.3622 -0.9148
   55GLOH    C2 8942   3.883   9.116   1.360  0.4290 -0.4172 -0.1748
   55GLOH   H04 8943   3.786   9.072   1.387  0.7058 -2.5560 -2.5607
   55GLOH    O2 8944   3.879   9.183   1.233  0.1373 -0.5846  0.4207
   55GLOH   H05 8945   3.892   9.277   1.254  2.4301 -0.4353 -1.5040
   55GLOH    C3 8946   3.988   8.997   1.365 -0.6401 -0.1566  0.3614
   55GLOH   H06 8947   4.089   9.037   1.374 -1.2879  1.3977  0.9161
   55GLOH   H07 8948   3.987   8.936   1.275  1.4849 -0.2581  0.3799
   55GLOH    O3 8949   3.969   8.905   1.476 -0.0925  0.3168  0.0387
   55GLOH   H01 8950   4.024   8.831   1.446  0.7326  0.4101  1.3119
   56GLOH   H03 8951   0.339   3.660   1.932  0.7815  1.0601 -0.0285
   56GLOH    O1 8952   0.270   3.677   1.999  0.2265  0.2262 -0.3780
   56GLOH    C1 8953   0.262   3.559   2.080 -0.4799 -0.6291  0.2733
   56GLOH   H02 8954   0.250   3.480   2.006  0.6519 -0.6123  0.0729
   56GLOH   H08 8955   0.182   3.560   2.155 -1.5944  1.8724 -0.8648
   56GLOH    C2 8956   0.397   3.535   2.153 -0.2752  0.2176  0.0662
   56GLOH   H04 8957   0.482   3.582   2.101  0.1462 -0.1220  0.4392
   56GLOH    O2 8958   0.391   3.605   2.278 -0.1453 -0.8337  0.0079
   56GLOH   H05 8959   0.423   3.696   2.267  0.8523 -0.9805  1.5904
   56GLOH    C3 8960   0.418   3.384   2.165 -0.5120  0.0962  0.3651
   56GLOH   H06 8961   0.331   3.349   2.222  1.2552 -3.8138  0.8187
   56GLOH   H07 8962   0.504   3.354   2.225 -0.0079 -1.8718 -1.3214
   56GLOH    O3 8963   0.431   3.319   2.036  0.0196 -0.3083  0.8052
   56GLOH   H01 8964   0.524   3.320   2.004 -0.9221  0.0146 -2.0676
   57GLOH   H03 8965   9.405   6.339   2.406 -1.6422  1.9153 -0.9253
   57GLOH    O1 8966   9.446   6.394   2.475 -0.1943 -0.3589  0.0860
   57GLOH    C1 8967   9.540   6.484   2.406  0.8255 -0.0522 -0.0066
   57GLOH   H02 8968   9.486   6.552   2.340  1.8530  1.1113  0.3286
   57GLOH   H08 8969   9.615   6.431   2.347  0.0415  0.4256 -1.4760
   57GLOH    C2 8970   9.627   6.573   2.502 -0.1839  0.7672 -0.3100
   57GLOH   H04 8971   9.704   6.630   2.448 -0.5013 -0.4539 -2.0934
   57GLOH    O2 8972   9.545   6.664   2.581  0.1194  0.2911 -0.1687
   57GLOH   H05 8973   9.454   6.653   2.549 -0.5495  0.0220  1.7416
   57GLOH    C3 8974   9.699   6.478   2.595  1.1593 -0.1796  0.0510
   57GLOH   H06 8975   9.623   6.425   2.652  0.4686  1.1663  0.4024
   57GLOH   H07 8976   9.766   6.531   2.664 -1.2311 -0.2854  2.5348
   57GLOH    O3 8977   9.786   6.387   2.525  0.3466  0.4410 -0.1552
   57GLOH   H01 8978   9.741   6.325   2.464  0.7088 -0.4507  0.4799
   58GLOH   H03 8979   8.337   8.012   1.117  0.3762  0.5511 -2.4849
   58GLOH    O1 8980   8.311   8.092   1.166  0.0613 -0.7133 -0.5542
   58GLOH    C1 8981   8.271   8.201   1.084  0.0146 -0.2505  1.0191
   58GLOH   H02 8982   8.164   8.218   1.092 -0.3234 -0.8413 -1.8332
   58GLOH   H08 8983   8.292   8.179   0.979  3.5340  6.5455  0.0461
   58GLOH    C2 8984   8.342   8.329   1.123 -0.5853  0.0587 -0.3854
   58GLOH   H04 8985   8.342   8.403   1.041 -0.7192  0.4462 -0.0335
   58GLOH    O2 8986   8.271   8.384   1.236 -0.1332  0.4728  0.0945
   58GLOH   H05 8987   8.334   8.444   1.279  1.2612 -1.3995  0.7448
   58GLOH    C3 8988   8.493   8.293   1.136 -0.3857 -0.0510  0.5358
   58GLOH   H06 8989   8.499   8.218   1.215 -2.3812  0.5520  1.2964
   58GLOH   H07 8990   8.550   8.379   1.171 -1.0932  0.8899 -0.5661
   58GLOH    O3 8991   8.552   8.239   1.015 -0.1488 -0.7891 -0.2594
   58GLOH   H01 8992   8.545   8.302   0.940  1.2124  1.2090  1.2330
   59GLOH   H03 8993   5.060   2.895   2.233 -0.0418  0.3046  2.0679
   59GLOH    O1 8994   4.982   2.842   2.256 -0.0172 -0.5140  0.3522
   59GLOH    C1 8995   4.867   2.928   2.249 -0.0128 -0.0660  0.2437
   59GLOH   H02 8996   4.890   3.022   2.301  1.3706 -1.2577  1.8343
   59GLOH   H08 8997   4.792   2.878   2.310  1.4612 -1.8780  0.6103
   59GLOH    C2 8998   4.811   2.963   2.106  0.0907  0.6423  0.4986
   59GLOH   H04 8999   4.769   2.868   2.071  2.0163 -0.1607  0.3352
   59GLOH    O2 9000   4.703   3.052   2.121  0.5728  0.0900 -0.1513
   59GLOH   H05 9001   4.673   3.075   2.031 -0.5811  0.9407  0.4369
   59GLOH    C3 9002   4.917   3.018   2.012 -0.2637 -0.5303 -0.8776
   59GLOH   H06 9003   4.894   2.979   1.912  0.6000 -1.8198 -0.5948
   59GLOH   H07 9004   5.003   2.962   2.049 -1.3449 -1.3987  0.3836
   59GLOH    O3 9005   4.949   3.158   2.021 -0.1649 -0.4375 -0.3448
   59GLOH   H01 9006   4.894   3.205   1.955  1.0839  0.9010 -0.4623
   60GLOH   H03 9007   4.715   2.825   1.685 -0.4072  0.1297  2.0491
   60GLOH    O1 9008   4.808   2.799   1.702  0.0003  0.0993 -0.1498
   60GLOH    C1 9009   4.882   2.852   1.592 -0.0711  0.2919 -0.2509
   60GLOH   H02 9010   4.902   2.772   1.521  2.4341  1.1681 -0.5993
   60GLOH   H08 9011   4.983   2.874   1.628 -0.1256  0.6180 -0.3004
   60GLOH    C2 9012   4.815   2.972   1.516  1.0041 -0.0685 -1.0553
   60GLOH   H04 9013   4.819   3.070   1.565 -1.4286 -0.5266  0.1422
   60GLOH    O2 9014   4.889   2.984   1.391 -0.8796  0.2831 -0.4587
   60GLOH   H05 9015   4.871   3.068   1.346  1.9631  0.7713 -0.7962
   60GLOH    C3 9016   4.664   2.942   1.496 -0.6119  0.8535  0.2858
   60GLOH   H06 9017   4.656   2.858   1.427 -0.0756  0.9390  0.1207
   60GLOH   H07 9018   4.618   3.024   1.441 -0.9760 -1.4611 -2.9992
   60GLOH    O3 9019   4.594   2.946   1.617 -0.5295  0.0953  0.7190
   60GLOH   H01 9020   4.505   2.915   1.591 -1.0693  0.3660  2.2095
   61GLOH   H03 9021   2.913   2.977   0.819  0.3891 -0.0436 -0.3382
   61GLOH    O1 9022   2.996   3.028   0.821  0.1131  0.3582  0.6341
   61GLOH    C1 9023   3.028   3.060   0.960 -0.4869  0.0073  0.0779
   61GLOH   H02 9024   3.137   3.067   0.963 -0.1838 -3.4653 -0.2399
   61GLOH   H08 9025   3.004   2.974   1.023 -1.8518  0.5140  0.2806
   61GLOH    C2 9026   2.958   3.179   1.024  0.1427  0.0675 -0.3853
   61GLOH   H04 9027   2.850   3.155   1.025  0.4470 -1.2798 -0.4457
   61GLOH    O2 9028   3.001   3.186   1.165 -0.4646 -0.0882 -0.0538
   61GLOH   H05 9029   2.961   3.263   1.209 -0.8034  0.0383 -0.5794
   61GLOH    C3 9030   2.973   3.312   0.945  0.2855  0.4996  0.5421
   61GLOH   H06 9031   3.064   3.306   0.886 -0.5372 -0.2827 -0.6609
   61GLOH   H07 9032   2.983   3.398   1.010  0.4130  0.2757  0.8208
   61GLOH    O3 9033   2.869   3.317   0.851  0.2760 -0.0010 -0.0756
   61GLOH   H01 9034   2.794   3.255   0.862 -0.5265  0.7459 -1.3046
   62GLOH   H03 9035   0.653   2.761   1.025 -1.5313  1.6334 -2.7187
   62GLOH    O1 9036   0.572   2.730   1.070  0.5820 -0.6245 -0.3147
   62GLOH    C1 9037   0.608   2.658   1.188  0.5196 -0.0803 -0.5267
   62GLOH   H02 9038   0.536   2.666   1.269  0.6933 -0.4143 -0.3369
   62GLOH   H08 9039   0.699   2.701   1.230  0.3539 -0.2650  0.0244
   62GLOH    C2 9040   0.651   2.512   1.169 -0.1434  0.1001  0.0604
   62GLOH   H04 9041   0.680   2.485   1.272 -1.1923  1.9842  0.8663
   62GLOH    O2 9042   0.531   2.433   1.139  0.5215  0.2566  0.1484
   62GLOH   H05 9043   0.474   2.430   1.218 -0.4100 -1.6975 -0.5710
   62GLOH    C3 9044   0.761   2.507   1.067  0.0937 -0.6998  0.0771
   62GLOH   H06 9045   0.824   2.595   1.079 -2.9217  1.5772  0.0027
   62GLOH   H07 9046   0.713   2.521   0.970  0.2209  0.4002  0.1608
   62GLOH    O3 9047   0.828   2.380   1.061  0.0428  0.0234 -0.0278
   62GLOH   H01 9048   0.760   2.311   1.055  1.8857 -1.9967  1.5782
   63GLOH   H03 9049   9.659   6.457   0.921  0.2664 -0.2640  0.7364
   63GLOH    O1 9050   9.634   6.414   1.005 -0.1174  0.0047  0.7568
   63GLOH    C1 9051   9.492   6.428   1.005 -0.5762 -0.5326  0.2318
   63GLOH   H02 9052   9.440   6.332   1.013 -1.0241 -0.2456  0.7803
   63GLOH   H08 9053   9.456   6.484   0.919 -1.0351  0.5486  1.1177
   63GLOH    C2 9054   9.448   6.506   1.128  0.5887  0.9048  0.6518
   63GLOH   H04 9055   9.467   6.444   1.217 -1.0005  0.9050  1.0051
   63GLOH    O2 9056   9.520   6.633   1.140 -0.0441  0.1302  0.0191
   63GLOH   H05 9057   9.484   6.674   1.220  1.1720  0.0931  0.5992
   63GLOH    C3 9058   9.299   6.535   1.121 -0.1695 -0.0800 -0.0312
   63GLOH   H06 9059   9.289   6.627   1.063 -0.5338  1.1405  1.9189
   63GLOH   H07 9060   9.265   6.562   1.222 -0.3270  0.9164 -0.3378
   63GLOH    O3 9061   9.220   6.427   1.066  0.4554  0.4845  0.2096
   63GLOH   H01 9062   9.209   6.358   1.134 -0.0108  2.4340  2.1682
   64GLOH   H03 9063   1.012   2.478   2.358  1.1352 -0.5968  0.6865
   64GLOH    O1 9064   1.079   2.429   2.307  0.5167 -1.0587  0.2952
   64GLOH    C1 9065   1.145   2.322   2.377  0.2128 -0.3717  0.2447
   64GLOH   H02 9066   1.152   2.341   2.485  1.6676  1.3870 -0.1330
   64GLOH   H08 9067   1.246   2.307   2.339 -0.7018 -1.5023 -1.8084
   64GLOH    C2 9068   1.080   2.187   2.351  0.0485  0.4283  0.3838
   64GLOH   H04 9069   1.087   2.169   2.243  0.3855 -2.3594  0.8423
   64GLOH    O2 9070   1.163   2.091   2.419  0.3413  0.1524 -0.3872
   64GLOH   H05 9071   1.165   2.003   2.377  0.8018 -0.0885  0.1513
   64GLOH    C3 9072   0.933   2.192   2.396 -0.0892  0.1900 -0.3567
   64GLOH   H06 9073   0.892   2.283   2.351 -1.4043 -0.2902 -0.1637
   64GLOH   H07 9074   0.927   2.207   2.504 -0.6001  0.0051 -0.3588
   64GLOH    O3 9075   0.869   2.076   2.347 -0.2282 -0.0602  0.2335
   64GLOH   H01 9076   0.923   2.001   2.378 -0.2041 -1.1382 -2.3217
   65GLOH   H03 9077   4.274   0.689   2.809  0.0452  1.9010  0.7320
   65GLOH    O1 9078   4.327   0.714   2.732 -0.3427 -0.0161 -0.1896
   65GLOH    C1 9079   4.381   0.594   2.682  0.2260 -0.1162 -0.1930
   65GLOH   H02 9080   4.437   0.549   2.764  0.7064  1.9452  0.6442
   65GLOH   H08 9081   4.467   0.620   2.620  1.1741 -0.5120  0.9423
   65GLOH    C2 9082   4.286   0.493   2.607  0.6764  0.0039 -0.4428
   65GLOH   H04 9083   4.237   0.544   2.522  0.3855 -0.4031 -0.5202
   65GLOH    O2 9084   4.368   0.385   2.546 -0.6684  0.1928  0.4061
   65GLOH   H05 9085   4.346   0.305   2.598 -2.6988 -0.1240 -0.8754
   65GLOH    C3 9086   4.179   0.446   2.708 -0.0749 -0.2376 -0.7294
   65GLOH   H06 9087   4.136   0.537   2.751  1.4908 -0.9805  2.5327
   65GLOH   H07 9088   4.227   0.411   2.799  0.8052  2.9598  0.1033
   65GLOH    O3 9089   4.088   0.349   2.654  0.4258  0.2352 -0.0038
   65GLOH   H01 9090   4.139   0.265   2.648  0.2971  0.2003 -0.7540
   66GLOH   H03 9091   4.135   3.347   1.993 -2.1218  0.9100 -0.7667
   66GLOH    O1 9092   4.156   3.297   1.912 -0.4414  0.2385  0.0669
   66GLOH    C1 9093   4.173   3.161   1.940  0.0574  0.0821 -0.4983
   66GLOH   H02 9094   4.116   3.125   2.027  1.7870 -0.2680  0.5109
   66GLOH   H08 9095   4.278   3.147   1.964  0.4173  0.9506 -1.5644
   66GLOH    C2 9096   4.141   3.072   1.822 -0.1538  0.6669  0.2788
   66GLOH   H04 9097   4.216   3.087   1.743 -0.6825  0.8204 -0.1967
   66GLOH    O2 9098   4.126   2.933   1.851  0.3611  0.1842 -0.5946
   66GLOH   H05 9099   4.210   2.884   1.842  0.9313  0.9016  0.6531
   66GLOH    C3 9100   4.005   3.116   1.753  0.0490  0.4742  0.6598
   66GLOH   H06 9101   3.924   3.109   1.826 -0.0384 -1.5334  0.3913
   66GLOH   H07 9102   3.991   3.056   1.663  0.7206  1.3442 -0.0382
   66GLOH    O3 9103   4.019   3.246   1.708  0.2596 -0.3752  0.4532
   66GLOH   H01 9104   4.074   3.287   1.777  1.7813  0.4783 -1.2350
   67GLOH   H03 9105   0.690   6.697   2.062 -3.0083 -0.8719 -0.6938
   67GLOH    O1 9106   0.697   6.721   1.968 -0.0419  0.5024 -0.1873
   67GLOH    C1 9107   0.586   6.811   1.933 -0.5390  1.0601  0.2191
   67GLOH   H02 9108   0.623   6.887   1.864  1.8628  0.7860  1.1436
   67GLOH   H08 9109   0.547   6.852   2.026  0.2963 -0.8989  1.4633
   67GLOH    C2 9110   0.471   6.745   1.861  0.5405 -0.3950 -0.3018
   67GLOH   H04 9111   0.426   6.677   1.935 -1.1865 -0.4445 -1.3874
   67GLOH    O2 9112   0.369   6.836   1.816  0.2011 -0.4476  0.6601
   67GLOH   H05 9113   0.328   6.881   1.891 -0.8714  1.9823 -1.2866
   67GLOH    C3 9114   0.522   6.650   1.751 -0.4250 -0.0569  0.4647
   67GLOH   H06 9115   0.599   6.586   1.794 -1.7575 -0.1800  2.7504
   67GLOH   H07 9116   0.568   6.715   1.677  1.2818 -1.7574 -0.0255
   67GLOH    O3 9117   0.413   6.580   1.691 -0.1581  0.3414  0.7112
   67GLOH   H01 9118   0.348   6.641   1.651  0.7885  0.1692 -1.1580
   68GLOH   H03 9119   8.043   9.635   1.024 -0.0113  0.5870  0.1937
   68GLOH    O1 9120   7.976   9.704   1.008 -0.0306  0.4880 -0.1589
   68GLOH    C1 9121   7.858   9.691   1.095 -0.0766 -0.1752 -0.0814
   68GLOH   H02 9122   7.851   9.769   1.171 -0.2794 -0.3739  0.1043
   68GLOH   H08 9123   7.861   9.597   1.150 -1.2844  0.5358  1.2469
   68GLOH    C2 9124   7.729   9.691   1.009  0.2398 -0.1033 -0.3842
   68GLOH   H04 9125   7.732   9.769   0.931  1.9560  1.7931  1.5170
   68GLOH    O2 9126   7.695   9.564   0.950  0.2909 -0.3810 -0.0781
   68GLOH   H05 9127   7.777   9.512   0.943  1.3273  1.4089 -1.5886
   68GLOH    C3 9128   7.596   9.723   1.084  0.0654 -0.1306 -0.4486
   68GLOH   H06 9129   7.577   9.664   1.174  4.1560 -0.8711  0.0150
   68GLOH   H07 9130   7.509   9.700   1.022  0.6718 -0.3683 -1.2220
   68GLOH    O3 9131   7.589   9.866   1.116 -0.0833  0.6105  0.4154
   68GLOH   H01 9132   7.519   9.907   1.062  1.3357  1.7502 -0.6142
   69GLOH   H03 9133   4.080   4.549   1.423  0.7091  1.7327 -0.5149
   69GLOH    O1 9134   4.101   4.572   1.515  0.1048  0.0873  0.0632
   69GLOH    C1 9135   4.012   4.490   1.594 -1.0148  0.2488 -0.4719
   69GLOH   H02 9136   4.041   4.385   1.600  0.0773  0.5605 -0.1778
   69GLOH   H08 9137   3.918   4.490   1.538 -0.5593  1.4452 -1.2617
   69GLOH    C2 9138   4.004   4.555   1.729  0.6413 -0.3997  0.3692
   69GLOH   H04 9139   3.960   4.655   1.716  0.7292 -0.4906 -0.6145
   69GLOH    O2 9140   3.937   4.473   1.824 -0.2526 -0.3570 -0.0581
   69GLOH   H05 9141   3.844   4.453   1.807 -0.8677  2.6443 -0.5353
   69GLOH    C3 9142   4.141   4.576   1.777  0.2398 -0.0698  0.2848
   69GLOH   H06 9143   4.202   4.486   1.782 -0.5137 -0.6550 -1.0506
   69GLOH   H07 9144   4.132   4.605   1.882  0.3141  1.3436 -0.0878
   69GLOH    O3 9145   4.213   4.676   1.708 -0.0269  0.1864  0.5891
   69GLOH   H01 9146   4.203   4.646   1.615 -1.6009  0.5739  0.6140
   70GLOH   H03 9147   3.545   5.357   1.329 -0.3948  2.0473  1.2785
   70GLOH    O1 9148   3.603   5.401   1.265 -0.5711  0.6255  0.1182
   70GLOH    C1 9149   3.525   5.437   1.152 -0.0455 -0.2010  0.2222
   70GLOH   H02 9150   3.437   5.374   1.153  1.5564 -2.5134 -0.9977
   70GLOH   H08 9151   3.574   5.405   1.060  0.9894 -0.5461  0.8892
   70GLOH    C2 9152   3.482   5.583   1.146  0.4273  0.1033 -0.4446
   70GLOH   H04 9153   3.563   5.647   1.110 -1.8128  2.1702 -1.8934
   70GLOH    O2 9154   3.381   5.588   1.043  0.2026  0.1854  0.1809
   70GLOH   H05 9155   3.311   5.650   1.068 -1.0792 -1.1576  0.0397
   70GLOH    C3 9156   3.427   5.628   1.281  0.9723 -0.1012  0.0937
   70GLOH   H06 9157   3.378   5.721   1.253  1.4869 -0.0443 -0.6396
   70GLOH   H07 9158   3.511   5.653   1.346 -0.0175  2.1573  0.5583
   70GLOH    O3 9159   3.327   5.541   1.337  0.4944  0.6701  0.0992
   70GLOH   H01 9160   3.244   5.591   1.344  0.7254  0.8616  1.8314
   71GLOH   H03 9161   8.536   4.530   2.155 -1.8605 -0.5753  1.4317
   71GLOH    O1 9162   8.554   4.611   2.206 -0.3483 -0.2346  0.4045
   71GLOH    C1 9163   8.667   4.694   2.168  0.3684  0.2070  0.2275
   71GLOH   H02 9164   8.668   4.786   2.226 -0.1973 -0.1197  0.7626
   71GLOH   H08 9165   8.648   4.731   2.067  0.4782 -0.3766 -0.0059
   71GLOH    C2 9166   8.804   4.625   2.184 -0.2898  0.2090 -0.0428
   71GLOH   H04 9167   8.795   4.531   2.126 -0.7610  1.6749 -2.4156
   71GLOH    O2 9168   8.890   4.697   2.095 -0.0476 -0.0907 -0.1655
   71GLOH   H05 9169   8.914   4.644   2.018 -0.2941  0.5732 -0.7125
   71GLOH    C3 9170   8.845   4.610   2.332  0.4087  1.1305 -0.4673
   71GLOH   H06 9171   8.834   4.701   2.391 -2.1086  1.4058 -1.2782
   71GLOH   H07 9172   8.950   4.582   2.337  0.7396  2.2893 -0.8159
   71GLOH    O3 9173   8.769   4.502   2.401  0.4568 -0.2505  0.4643
   71GLOH   H01 9174   8.680   4.527   2.434 -0.4545 -1.1295 -1.2817
   72GLOH   H03 9175   7.310   9.526   0.811  1.0920 -1.1799  0.7930
   72GLOH    O1 9176   7.374   9.597   0.789  0.3208 -0.6608  0.2069
   72GLOH    C1 9177   7.321   9.670   0.679 -0.1023  0.3865  0.2705
   72GLOH   H02 9178   7.285   9.607   0.597 -0.2672  0.1011  0.5594
   72GLOH   H08 9179   7.403   9.728   0.637 -1.6154  1.3896 -1.3656
   72GLOH    C2 9180   7.207   9.778   0.703  0.2338  0.7782 -0.2469
   72GLOH   H04 9181   7.222   9.817   0.805 -3.4005  0.0230  0.6493
   72GLOH    O2 9182   7.207   9.885   0.607 -0.0864 -0.6048 -0.4118
   72GLOH   H05 9183   7.275   9.949   0.632  0.9085 -1.6537 -0.3702
   72GLOH    C3 9184   7.073   9.707   0.715 -0.1945  0.3586 -0.6535
   72GLOH   H06 9185   7.054   9.652   0.623 -0.7531  0.7190 -0.7558
   72GLOH   H07 9186   6.991   9.778   0.720 -0.3730  0.0503  1.5478
   72GLOH    O3 9187   7.061   9.621   0.837 -0.3800 -0.3785  0.0968
   72GLOH   H01 9188   7.118   9.543   0.822  0.3046  0.0224  0.5463
   73GLOH   H03 9189   9.887   0.121   2.350  0.9988 -3.7190 -0.0241
   73GLOH    O1 9190   9.850   0.106   2.261 -0.4431  0.4793 -0.2650
   73GLOH    C1 9191   9.861  -0.028   2.210  0.2021  0.3000  0.0569
   73GLOH   H02 9192   9.863  -0.101   2.291 -0.3263  0.5437  0.2906
   73GLOH   H08 9193   9.957  -0.040   2.159  0.3619 -0.3490  0.5029
   73GLOH    C2 9194   9.738  -0.055   2.106 -0.1421 -0.7042 -0.7807
   73GLOH   H04 9195   9.727   0.035   2.043  0.8483  0.0696  0.1069
   73GLOH    O2 9196   9.768  -0.172   2.026  0.2004 -0.4284  0.1870
   73GLOH   H05 9197   9.705  -0.158   1.954  0.6898  1.8705  0.1660
   73GLOH    C3 9198   9.610  -0.055   2.184  0.2799 -0.4376 -0.7439
   73GLOH   H06 9199   9.598   0.045   2.225 -0.8968 -0.4353 -1.0757
   73GLOH   H07 9200   9.624  -0.118   2.272 -0.8848  0.2485 -0.0592
   73GLOH    O3 9201   9.496  -0.086   2.110 -0.0497  0.6750 -0.1254
   73GLOH   H01 9202   9.510  -0.075   2.014 -0.7032 -1.3775 -0.4723
   74GLOH   H03 9203   2.635   4.181   2.233 -1.8130 -1.8318  1.7292
   74GLOH    O1 9204   2.564   4.211   2.174  0.0837 -0.1101  0.2429
   74GLOH    C1 9205   2.542   4.125   2.057  0.3181 -0.3913 -0.2619
   74GLOH   H02 9206   2.456   4.063   2.082 -0.4029  0.5774 -0.3138
   74GLOH   H08 9207   2.627   4.063   2.029  0.0435  0.2863 -2.7328
   74GLOH    C2 9208   2.499   4.206   1.933 -0.1913 -0.2139  0.2129
   74GLOH   H04 9209   2.503   4.135   1.849  0.2214 -2.3133  1.9455
   74GLOH    O2 9210   2.366   4.254   1.933 -0.0046 -0.0432  0.0038
   74GLOH   H05 9211   2.310   4.180   1.906  2.0710 -1.2939 -1.0414
   74GLOH    C3 9212   2.601   4.315   1.886 -0.7303  0.1977  0.1858
   74GLOH   H06 9213   2.554   4.381   1.813 -1.9991 -2.4555 -1.4493
   74GLOH   H07 9214   2.684   4.263   1.838 -1.8894  0.0442 -1.6922
   74GLOH    O3 9215   2.657   4.390   1.997 -0.4011 -0.2566 -0.0240
   74GLOH   H01 9216   2.639   4.334   2.075  2.6609  0.7193  1.4397
   75GLOH   H03 9217   0.770   9.189   2.681 -1.1830 -0.0713  0.5754
   75GLOH    O1 9218   0.735   9.126   2.615  0.0020 -0.3803  0.2278
   75GLOH    C1 9219   0.761   8.991   2.667  0.1078  0.2046 -0.0198
   75GLOH   H02 9220   0.772   8.990   2.776 -1.3453  1.3554  0.1531
   75GLOH   H08 9221   0.852   8.946   2.627 -0.0074  0.6303 -0.7569
   75GLOH    C2 9222   0.646   8.898   2.634 -0.5484 -0.5534 -0.3118
   75GLOH   H04 9223   0.669   8.804   2.686 -0.9455 -0.3835  0.1729
   75GLOH    O2 9224   0.514   8.939   2.671  0.0975  0.1980  0.0519
   75GLOH   H05 9225   0.499   8.904   2.760 -0.9630 -0.9336 -0.5519
   75GLOH    C3 9226   0.646   8.879   2.485 -0.3212 -0.1053  0.3897
   75GLOH   H06 9227   0.641   8.976   2.436  2.5656 -1.7332 -3.5041
   75GLOH   H07 9228   0.559   8.821   2.453 -0.5508  0.0877  0.6704
   75GLOH    O3 9229   0.763   8.806   2.434  0.4646 -0.3192 -0.8054
   75GLOH   H01 9230   0.748   8.717   2.470 -1.5891  0.1142 -0.5367
   76GLOH   H03 9231   2.371   3.289   1.474  0.8634  0.5556  0.0996
   76GLOH    O1 9232   2.422   3.232   1.534 -0.1667 -0.3606  0.1206
   76GLOH    C1 9233   2.345   3.112   1.525 -0.9338  0.0169 -0.1335
   76GLOH   H02 9234   2.414   3.028   1.523 -0.3990  0.4515  0.0108
   76GLOH   H08 9235   2.297   3.110   1.427 -2.3542 -4.8316  0.5288
   76GLOH    C2 9236   2.242   3.090   1.637  0.1843  0.4375  0.2830
   76GLOH   H04 9237   2.291   3.103   1.734  0.4885  2.2609 -0.0865
   76GLOH    O2 9238   2.137   3.186   1.635  0.3573  0.3646  0.5170
   76GLOH   H05 9239   2.081   3.169   1.713 -0.2709  0.1069  0.0056
   76GLOH    C3 9240   2.172   2.952   1.633 -0.0761  0.3894  0.0805
   76GLOH   H06 9241   2.086   2.963   1.567 -0.1448  0.0978  0.1211
   76GLOH   H07 9242   2.147   2.919   1.734 -3.0151 -0.9774 -1.0574
   76GLOH    O3 9243   2.248   2.854   1.561 -0.1954 -0.0103 -0.0073
   76GLOH   H01 9244   2.315   2.822   1.624 -0.7383 -2.2410 -0.5233
   77GLOH   H03 9245   7.814   8.555   2.501 -1.4566 -0.3056 -2.8655
   77GLOH    O1 9246   7.768   8.476   2.533  0.2741 -0.1909  0.1179
   77GLOH    C1 9247   7.799   8.359   2.452 -0.0005  0.9288  0.6889
   77GLOH   H02 9248   7.907   8.346   2.451 -0.3546 -2.5094 -1.5967
   77GLOH   H08 9249   7.769   8.371   2.348 -1.3878 -0.5208  0.9186
   77GLOH    C2 9250   7.749   8.225   2.513  0.4064 -0.5684 -0.6944
   77GLOH   H04 9251   7.641   8.221   2.493  0.3871  0.6169 -0.8713
   77GLOH    O2 9252   7.815   8.110   2.451 -0.1024 -0.3998  0.4638
   77GLOH   H05 9253   7.885   8.083   2.513  0.5169 -0.0385 -0.0640
   77GLOH    C3 9254   7.765   8.216   2.665  0.7230 -0.3957  0.0095
   77GLOH   H06 9255   7.870   8.227   2.688  1.3933  0.0984 -3.0518
   77GLOH   H07 9256   7.724   8.122   2.702 -1.1545  0.6967  0.8145
   77GLOH    O3 9257   7.703   8.325   2.721 -0.0362  0.2814  0.4346
   77GLOH   H01 9258   7.727   8.392   2.654  1.9293  0.2154  1.0456
   78GLOH   H03 9259   2.025   6.333   1.551  2.6948  2.5014  0.3681
   78GLOH    O1 9260   2.049   6.288   1.634  0.5910  0.0774 -0.2596
   78GLOH    C1 9261   1.940   6.273   1.727  0.6635  0.8665  0.1322
   78GLOH   H02 9262   1.976   6.279   1.829  2.3488 -0.3606 -0.3672
   78GLOH   H08 9263   1.900   6.172   1.712 -3.1831  1.7883  3.3564
   78GLOH    C2 9264   1.824   6.369   1.692 -0.0722  0.6228 -0.0815
   78GLOH   H04 9265   1.795   6.346   1.589  2.3149 -2.3176 -0.1652
   78GLOH    O2 9266   1.725   6.350   1.799 -0.0811 -0.2574 -0.5917
   78GLOH   H05 9267   1.694   6.258   1.798  0.0279 -0.2872 -1.6379
   78GLOH    C3 9268   1.892   6.511   1.693  0.2453 -0.6079  0.6573
   78GLOH   H06 9269   1.959   6.523   1.608 -2.4173 -0.2334 -1.4579
   78GLOH   H07 9270   1.953   6.509   1.784  1.5185 -2.9457 -0.2091
   78GLOH    O3 9271   1.801   6.620   1.678  0.0126 -1.0109 -0.2132
   78GLOH   H01 9272   1.790   6.673   1.759 -0.1592  0.5140 -1.2121
   79GLOH   H03 9273   3.936   0.996   1.131 -0.3838 -2.0342  0.9113
   79GLOH    O1 9274   3.882   0.966   1.056  0.4339 -0.3593 -0.3589
   79GLOH    C1 9275   3.759   0.921   1.105  0.0036  0.3083 -0.5347
   79GLOH   H02 9276   3.772   0.843   1.180  0.7938  0.9668  0.0115
   79GLOH   H08 9277   3.698   0.872   1.028 -1.3016  0.2272  0.5285
   79GLOH    C2 9278   3.669   1.034   1.162 -0.2594 -0.1015 -0.1741
   79GLOH   H04 9279   3.642   1.114   1.092 -2.1458  0.6216  1.3297
   79GLOH    O2 9280   3.540   0.985   1.198 -0.2548 -0.1970 -0.2784
   79GLOH   H05 9281   3.545   0.928   1.277  3.1693  0.0781 -0.2252
   79GLOH    C3 9282   3.734   1.108   1.284  0.0930 -0.0668  0.2507
   79GLOH   H06 9283   3.652   1.163   1.329  0.1715 -1.4516  2.1607
   79GLOH   H07 9284   3.806   1.185   1.256 -0.1421  0.3951  0.9017
   79GLOH    O3 9285   3.786   1.030   1.397 -0.2473  0.2041 -0.1138
   79GLOH   H01 9286   3.846   1.086   1.449  0.1566 -1.5446  1.3327
   80GLOH   H03 9287   1.099   3.015   1.049  0.6610  1.2288 -0.3257
   80GLOH    O1 9288   1.080   3.017   1.145 -0.0847  0.1247 -0.4444
   80GLOH    C1 9289   1.137   3.136   1.203  0.5418 -0.0890  0.2383
   80GLOH   H02 9290   1.238   3.166   1.174  0.1625  1.1092  0.1290
   80GLOH   H08 9291   1.129   3.127   1.311 -1.1701 -2.2809 -0.0273
   80GLOH    C2 9292   1.059   3.256   1.148 -0.3293  0.6927  0.2902
   80GLOH   H04 9293   1.078   3.264   1.040  1.6593 -0.2038  0.5451
   80GLOH    O2 9294   0.917   3.253   1.191 -0.6644 -0.1521  0.2750
   80GLOH   H05 9295   0.868   3.175   1.163  0.4393 -0.3148 -1.2533
   80GLOH    C3 9296   1.125   3.382   1.203  0.2886 -0.5026  0.7052
   80GLOH   H06 9297   1.129   3.370   1.312  1.9931 -0.5169  0.6587
   80GLOH   H07 9298   1.063   3.471   1.192  0.6902 -0.2679  0.3253
   80GLOH    O3 9299   1.264   3.407   1.158  0.0915  0.6035 -0.0642
   80GLOH   H01 9300   1.272   3.378   1.065 -3.5481 -0.0613 -0.2733
   81GLOH   H03 9301   9.574   9.711   1.115 -0.7917 -0.8644  0.8698
   81GLOH    O1 9302   9.649   9.732   1.173 -0.2421  0.2268 -0.2369
   81GLOH    C1 9303   9.660   9.627   1.269 -0.4433 -0.3721 -0.3617
   81GLOH   H02 9304   9.677   9.528   1.226  3.1346  0.5463 -1.2512
   81GLOH   H08 9305   9.565   9.613   1.320 -0.3329  0.5198  0.0802
   81GLOH    C2 9306   9.769   9.664   1.378  0.0915 -0.4627 -0.7382
   81GLOH   H04 9307   9.869   9.687   1.337 -0.2574  0.3590 -1.1313
   81GLOH    O2 9308   9.732   9.776   1.461 -0.4039 -0.6364  0.3528
   81GLOH   H05 9309   9.736   9.855   1.406 -0.1504 -1.0329 -0.2053
   81GLOH    C3 9310   9.787   9.544   1.470 -0.3642  0.0007  0.0325
   81GLOH   H06 9311   9.690   9.535   1.518  0.1983  1.4444  1.4905
   81GLOH   H07 9312   9.865   9.559   1.546 -0.7336 -2.6389  0.9923
   81GLOH    O3 9313   9.818   9.420   1.410 -0.2237 -0.7384  0.2772
   81GLOH   H01 9314   9.774   9.351   1.463  0.8784 -1.5174  0.1933
   82GLOH   H03 9315   9.421   2.047   1.650 -0.0766  0.5598 -0.3207
   82GLOH    O1 9316   9.461   2.123   1.695 -0.2186  0.4710 -0.0410
   82GLOH    C1 9317   9.601   2.136   1.671  0.4877  0.1238  0.1481
   82GLOH   H02 9318   9.647   2.040   1.692  0.5438 -0.4122 -2.2069
   82GLOH   H08 9319   9.646   2.211   1.736  0.6410 -0.1915  0.4051
   82GLOH    C2 9320   9.650   2.161   1.524 -0.4580  0.0266  0.2412
   82GLOH   H04 9321   9.615   2.074   1.468  1.0871  0.4511 -1.4550
   82GLOH    O2 9322   9.597   2.282   1.462 -0.0276  0.3273  0.0039
   82GLOH   H05 9323   9.500   2.277   1.472 -0.2061 -0.8992 -1.8863
   82GLOH    C3 9324   9.806   2.153   1.522  0.0299 -0.0314  0.3732
   82GLOH   H06 9325   9.852   2.239   1.571  0.1790 -0.5942  1.2211
   82GLOH   H07 9326   9.827   2.145   1.415 -0.9113  1.1836  0.0750
   82GLOH    O3 9327   9.864   2.036   1.583 -0.4213 -0.2089 -0.2400
   82GLOH   H01 9328   9.836   1.959   1.531 -1.5037 -1.0220  1.5185
   83GLOH   H03 9329   8.265   9.625   2.109 -1.2836  1.4339  2.2250
   83GLOH    O1 9330   8.178   9.585   2.090 -0.2024  0.3393 -0.8072
   83GLOH    C1 9331   8.149   9.588   1.951 -0.2645  0.1831 -0.4318
   83GLOH   H02 9332   8.199   9.671   1.901 -0.8084  0.6039 -0.2702
   83GLOH   H08 9333   8.042   9.601   1.940  0.1436  3.7624 -0.8624
   83GLOH    C2 9334   8.194   9.465   1.868 -0.5872 -0.2604  0.0941
   83GLOH   H04 9335   8.123   9.387   1.900 -1.2950  0.6283  0.7303
   83GLOH    O2 9336   8.172   9.495   1.723  0.4414  0.7558  0.1258
   83GLOH   H05 9337   8.086   9.457   1.697  1.3711 -0.2942 -1.4315
   83GLOH    C3 9338   8.335   9.419   1.901 -0.1977 -0.3699 -0.1892
   83GLOH   H06 9339   8.415   9.490   1.884 -0.7630  0.0753 -1.0015
   83GLOH   H07 9340   8.352   9.343   1.825 -3.0734 -3.0507  1.7126
   83GLOH    O3 9341   8.339   9.359   2.036  0.0305  0.2928  0.4194
   83GLOH   H01 9342   8.250   9.351   2.075  0.3710  1.4320  1.4916
   84GLOH   H03 9343   9.009   4.326   0.884 -0.5218 -0.4688  0.0136
   84GLOH    O1 9344   9.012   4.363   0.794 -0.1774 -0.1117  0.1710
   84GLOH    C1 9345   8.885   4.420   0.763  0.4314 -0.4928  0.0716
   84GLOH   H02 9346   8.830   4.450   0.852 -2.0974  3.2855 -2.6038
   84GLOH   H08 9347   8.820   4.355   0.705 -1.1953  1.4066 -0.3045
   84GLOH    C2 9348   8.911   4.554   0.687  0.1844 -0.6014 -0.2103
   84GLOH   H04 9349   8.974   4.534   0.599 -0.0881  1.4060 -0.8632
   84GLOH    O2 9350   8.795   4.605   0.630  0.0434 -0.0405 -0.2913
   84GLOH   H05 9351   8.812   4.646   0.544  0.8133 -0.1402 -0.1920
   84GLOH    C3 9352   8.998   4.646   0.776  0.5511 -0.1262  0.6427
   84GLOH   H06 9353   9.045   4.723   0.714 -0.4324  0.5498  0.7310
   84GLOH   H07 9354   9.079   4.589   0.823  1.0542  3.1661  3.9775
   84GLOH    O3 9355   8.925   4.712   0.876  0.2292 -0.2847  0.1272
   84GLOH   H01 9356   8.839   4.741   0.839 -0.5372 -1.8333  0.6103
   85GLOH   H03 9357   1.842   3.358   1.086 -0.8628  0.0980 -0.2434
   85GLOH    O1 9358   1.871   3.421   1.018  0.3617 -0.1188  0.0512
   85GLOH    C1 9359   2.008   3.452   1.033  0.4692 -0.7195 -0.1505
   85GLOH   H02 9360   2.069   3.378   1.084  0.5410 -2.4068 -2.5823
   85GLOH   H08 9361   2.020   3.546   1.086 -1.6372 -1.5563  1.9050
   85GLOH    C2 9362   2.082   3.485   0.903  0.2672 -0.4855 -0.2720
   85GLOH   H04 9363   2.040   3.582   0.872 -2.2184 -0.6848  2.2199
   85GLOH    O2 9364   2.222   3.501   0.919 -0.6217 -0.8103  0.3524
   85GLOH   H05 9365   2.256   3.427   0.866  0.5039  0.0773 -0.1827
   85GLOH    C3 9366   2.065   3.376   0.793 -0.0757 -0.2713 -0.3099
   85GLOH   H06 9367   1.959   3.353   0.799 -0.0641 -0.1590  0.3776
   85GLOH   H07 9368   2.111   3.281   0.820  3.6715  1.3113 -0.8374
   85GLOH    O3 9369   2.108   3.408   0.663 -0.0159  0.6423  0.0470
   85GLOH   H01 9370   2.041   3.394   0.594  0.1224 -4.1564  0.6865
   86GLOH   H03 9371   9.650   8.616   1.588  1.4975  1.2925  2.3862
   86GLOH    O1 9372   9.661   8.526   1.626 -0.0688 -0.0179 -0.1589
   86GLOH    C1 9373   9.587   8.419   1.560  0.0734 -0.0984  0.4202
   86GLOH   H02 9374   9.622   8.409   1.457 -0.0352  0.2947  0.3455
   86GLOH   H08 9375   9.479   8.437   1.559  0.1990  0.6422  0.2214
   86GLOH    C2 9376   9.609   8.290   1.646 -0.3275  0.4586 -0.1984
   86GLOH   H04 9377   9.560   8.315   1.741 -1.4375  0.6581 -0.8210
   86GLOH    O2 9378   9.548   8.183   1.577  0.2715  0.4079 -0.3669
   86GLOH   H05 9379   9.590   8.097   1.595  0.8993  0.6840 -0.4733
   86GLOH    C3 9380   9.762   8.265   1.668 -0.4124 -0.2578 -0.3415
   86GLOH   H06 9381   9.814   8.254   1.573 -0.2144  1.5032 -0.4599
   86GLOH   H07 9382   9.769   8.168   1.718  1.9948 -0.4612 -1.0001
   86GLOH    O3 9383   9.832   8.364   1.744  0.1664  0.5362 -0.5173
   86GLOH   H01 9384   9.800   8.451   1.714 -0.0984 -0.1622 -2.3312
   87GLOH   H03 9385   8.880   9.397   2.714 -0.2469  0.7578 -0.4559
   87GLOH    O1 9386   8.798   9.415   2.764  0.1791 -0.1905  0.6115
   87GLOH    C1 9387   8.711   9.313   2.713  0.0470  0.8709  0.1731
   87GLOH   H02 9388   8.723   9.215   2.757 -1.7175  1.0187  1.0172
   87GLOH   H08 9389   8.716   9.304   2.604  1.3049 -0.0612  0.3001
   87GLOH    C2 9390   8.569   9.358   2.743  0.2802  0.1499  0.2982
   87GLOH   H04 9391   8.576   9.393   2.847 -1.7365  2.4966 -0.2915
   87GLOH    O2 9392   8.529   9.470   2.663  0.7695  0.3378 -0.3487
   87GLOH   H05 9393   8.515   9.435   2.574 -1.5552 -0.6805  0.3812
   87GLOH    C3 9394   8.469   9.244   2.750 -0.1759  0.7611 -0.1828
   87GLOH   H06 9395   8.473   9.183   2.659 -0.8077  1.9708 -1.0298
   87GLOH   H07 9396   8.371   9.287   2.769 -0.1814 -0.2825  2.3864
   87GLOH    O3 9397   8.499   9.149   2.852  0.3967 -0.3840  0.4193
   87GLOH   H01 9398   8.462   9.062   2.829  0.5832  0.2695 -2.5301
   88GLOH   H03 9399   4.834   3.774   2.448  1.3723 -0.2864  0.3264
   88GLOH    O1 9400   4.891   3.789   2.370  0.4704  0.6203 -0.1657
   88GLOH    C1 9401   4.805   3.800   2.260 -0.4324  0.7485 -0.2171
   88GLOH   H02 9402   4.871   3.851   2.190  1.5155 -1.7960 -0.3190
   88GLOH   H08 9403   4.713   3.854   2.283 -2.0128 -1.6480 -0.6915
   88GLOH    C2 9404   4.769   3.665   2.193 -0.2562 -0.4211 -0.1586
   88GLOH   H04 9405   4.770   3.578   2.260 -1.0825 -0.7903 -0.6142
   88GLOH    O2 9406   4.641   3.679   2.122  0.5187  0.2875 -0.0650
   88GLOH   H05 9407   4.562   3.679   2.178  0.6215 -0.8083  0.0921
   88GLOH    C3 9408   4.881   3.642   2.096 -0.5630 -0.1615  0.8350
   88GLOH   H06 9409   4.878   3.719   2.018 -1.0599 -1.3630 -0.3574
   88GLOH   H07 9410   4.865   3.541   2.059 -1.0337 -0.4287  1.7763
   88GLOH    O3 9411   5.006   3.645   2.167 -0.2727 -0.6577  0.0565
   88GLOH   H01 9412   5.013   3.701   2.246  0.1818  1.8060 -1.6734
   89GLOH   H03 9413   1.223   3.476   1.902 -1.2649  0.1181  1.8552
   89GLOH    O1 9414   1.291   3.454   1.968 -0.4380 -0.1415  0.9430
   89GLOH    C1 9415   1.282   3.316   2.022 -0.1359 -0.0120  0.1592
   89GLOH   H02 9416   1.374   3.259   2.013  1.1664  2.2891 -1.4227
   89GLOH   H08 9417   1.210   3.262   1.960 -0.0427 -0.4987  0.4690
   89GLOH    C2 9418   1.238   3.303   2.173 -0.4511  0.3840  0.4028
   89GLOH   H04 9419   1.149   3.367   2.179  0.9204  2.2757  0.8421
   89GLOH    O2 9420   1.197   3.169   2.196  0.0608 -0.3435 -0.5653
   89GLOH   H05 9421   1.109   3.168   2.156 -0.1962  1.4657 -0.0621
   89GLOH    C3 9422   1.361   3.341   2.260  0.2604  0.1149 -0.4920
   89GLOH   H06 9423   1.444   3.282   2.222  0.9646  1.6328 -1.3465
   89GLOH   H07 9424   1.331   3.317   2.362 -0.6582  0.4438 -0.6813
   89GLOH    O3 9425   1.383   3.483   2.238  0.2818  0.4047 -0.4297
   89GLOH   H01 9426   1.338   3.504   2.154 -0.8217  0.0243  0.0537
   90GLOH   H03 9427   2.636   5.471   1.227  1.0092 -2.2354  2.5906
   90GLOH    O1 9428   2.708   5.529   1.255  0.3271 -0.0513  0.0342
   90GLOH    C1 9429   2.757   5.472   1.376  0.5956  0.2592 -0.4215
   90GLOH   H02 9430   2.839   5.523   1.427  1.1034 -0.3267 -0.6498
   90GLOH   H08 9431   2.800   5.376   1.348  0.9098  0.2107  0.2258
   90GLOH    C2 9432   2.657   5.450   1.491 -0.8998 -0.2852  0.5091
   90GLOH   H04 9433   2.578   5.379   1.461 -0.8973 -0.0846  0.0359
   90GLOH    O2 9434   2.733   5.385   1.600 -0.3451  0.1769 -0.2528
   90GLOH   H05 9435   2.679   5.374   1.680  1.3390 -1.5166  0.6656
   90GLOH    C3 9436   2.587   5.585   1.525  0.5145 -0.5445 -1.0927
   90GLOH   H06 9437   2.563   5.637   1.433  0.8237  0.5051 -0.5969
   90GLOH   H07 9438   2.656   5.655   1.573 -1.1973  0.1284  0.4756
   90GLOH    O3 9439   2.474   5.562   1.606  0.1000  0.5341 -0.1860
   90GLOH   H01 9440   2.400   5.607   1.561  0.6242  2.3174  0.6741
   91GLOH   H03 9441   3.958   1.634   0.471  0.2960  0.1025  0.1142
   91GLOH    O1 9442   3.903   1.657   0.548  0.0147 -1.0690  0.2768
   91GLOH    C1 9443   3.958   1.779   0.604  0.0466 -0.3911 -0.7495
   91GLOH   H02 9444   3.908   1.806   0.697  2.6485 -0.0423  0.6009
   91GLOH   H08 9445   3.929   1.861   0.539 -1.2001  0.9245  1.3987
   91GLOH    C2 9446   4.106   1.772   0.644  0.1042 -0.2492 -0.0155
   91GLOH   H04 9447   4.173   1.742   0.563 -0.4115 -1.2057 -0.0938
   91GLOH    O2 9448   4.147   1.897   0.702  0.2968 -0.3406  0.3771
   91GLOH   H05 9449   4.148   1.970   0.637 -0.9637  0.3279  1.1012
   91GLOH    C3 9450   4.114   1.659   0.755 -0.3974 -1.0296  0.0277
   91GLOH   H06 9451   4.067   1.701   0.844 -1.5110 -4.9463  1.3418
   91GLOH   H07 9452   4.220   1.650   0.779 -0.3093  0.9852  0.4918
   91GLOH    O3 9453   4.048   1.535   0.715  0.2358 -0.4207  0.3895
   91GLOH   H01 9454   3.961   1.560   0.679  0.9895  0.3933 -0.8690
   92GLOH   H03 9455   3.399   5.561   0.651  0.5278 -0.0025  0.4325
   92GLOH    O1 9456   3.467   5.581   0.585  0.1489  0.2980  0.1301
   92GLOH    C1 9457   3.447   5.529   0.455  0.4901  0.1145 -0.5762
   92GLOH   H02 9458   3.492   5.599   0.384  1.0202 -0.1726 -0.5255
   92GLOH   H08 9459   3.341   5.526   0.430  0.5893 -0.5400 -0.9133
   92GLOH    C2 9460   3.499   5.389   0.435 -0.2425  0.5003  0.2006
   92GLOH   H04 9461   3.460   5.328   0.518 -2.1956 -0.1454 -1.1640
   92GLOH    O2 9462   3.464   5.331   0.312 -0.0173  0.3301  0.4462
   92GLOH   H05 9463   3.507   5.245   0.296 -3.0114 -1.1730  0.1733
   92GLOH    C3 9464   3.655   5.392   0.442  0.3148  0.5598  0.0406
   92GLOH   H06 9465   3.701   5.460   0.370  2.5498  0.2257  1.1161
   92GLOH   H07 9466   3.691   5.293   0.412 -0.3059 -0.0838  1.3726
   92GLOH    O3 9467   3.705   5.424   0.572  0.7883  0.0305  0.5264
   92GLOH   H01 9468   3.650   5.499   0.602 -1.5811 -1.3070 -0.3459
   93GLOH   H03 9469   2.997   7.558   2.008 -1.0713  0.5710 -0.0294
   93GLOH    O1 9470   2.946   7.476   1.995  0.2331 -0.2057 -0.4054
   93GLOH    C1 9471   3.029   7.390   1.910 -0.5506 -0.2692  0.4242
   93GLOH   H02 9472   2.989   7.290   1.893  2.6936 -1.8347  1.5827
   93GLOH   H08 9473   3.126   7.376   1.957  1.3707  1.2517 -2.9099
   93GLOH    C2 9474   3.056   7.461   1.779 -0.3943 -0.1613 -0.4939
   93GLOH   H04 9475   2.977   7.531   1.749 -0.3404  0.3848  0.6180
   93GLOH    O2 9476   3.180   7.531   1.792  0.4479 -0.0774 -0.1188
   93GLOH   H05 9477   3.165   7.606   1.852 -2.0164 -0.1234 -0.6098
   93GLOH    C3 9478   3.062   7.358   1.658  0.5447 -0.1259  0.1743
   93GLOH   H06 9479   3.119   7.271   1.689 -1.6249 -0.8719  2.2135
   93GLOH   H07 9480   3.124   7.408   1.583 -0.0191  3.0892  1.7529
   93GLOH    O3 9481   2.935   7.316   1.609  0.1916  0.2522 -0.2250
   93GLOH   H01 9482   2.944   7.273   1.522  0.1945 -2.7932  1.2212
   94GLOH   H03 9483   3.695   9.657   0.528  0.4086  1.7776 -2.0669
   94GLOH    O1 9484   3.726   9.711   0.603 -0.7577  0.1036 -0.3419
   94GLOH    C1 9485   3.754   9.845   0.562  0.5495 -0.1281 -0.6824
   94GLOH   H02 9486   3.787   9.902   0.649 -1.5402 -0.0388  0.1060
   94GLOH   H08 9487   3.662   9.897   0.536  1.9362  2.6331 -0.2745
   94GLOH    C2 9488   3.862   9.869   0.455  0.6404  0.2908  0.2390
   94GLOH   H04 9489   3.954   9.828   0.499  1.0304  0.2492 -0.6192
   94GLOH    O2 9490   3.830   9.802   0.331 -0.1474  0.3867 -0.2392
   94GLOH   H05 9491   3.734   9.799   0.316 -0.2521 -2.6419  0.8009
   94GLOH    C3 9492   3.906  10.017   0.426 -0.2416 -0.0384  0.4504
   94GLOH   H06 9493   3.811  10.063   0.400  0.1512 -1.4687 -3.9546
   94GLOH   H07 9494   3.969  10.006   0.337  0.5940  0.0152  1.0360
   94GLOH    O3 9495   3.973  10.082   0.537  0.0963  0.6609  0.0967
   94GLOH   H01 9496   4.018  10.159   0.497  1.5929 -0.0060  0.4563
   95GLOH   H03 9497  10.041   1.447   2.289  1.2617 -0.3765  0.7537
   95GLOH    O1 9498  10.089   1.531   2.277  0.9140 -0.2639  0.1287
   95GLOH    C1 9499  10.000   1.631   2.223 -0.6569  0.7546 -0.0761
   95GLOH   H02 9500   9.947   1.594   2.135  0.3920 -0.7703 -0.0872
   95GLOH   H08 9501  10.056   1.713   2.178  3.3057 -2.3695 -1.0381
   95GLOH    C2 9502   9.882   1.675   2.313 -0.2827  0.6819 -0.4473
   95GLOH   H04 9503   9.829   1.584   2.343 -1.0341  1.1815 -0.2320
   95GLOH    O2 9504   9.934   1.738   2.439 -0.4570  1.2066 -0.5548
   95GLOH   H05 9505  10.028   1.714   2.447 -0.4307  1.5961  0.4061
   95GLOH    C3 9506   9.780   1.769   2.241 -0.1043 -0.0253  0.7027
   95GLOH   H06 9507   9.803   1.876   2.239 -2.3792  0.4720  0.0000
   95GLOH   H07 9508   9.696   1.768   2.310  0.3725 -0.8133  1.2776
   95GLOH    O3 9509   9.749   1.720   2.110 -0.0941 -0.2123 -0.3521
   95GLOH   H01 9510   9.660   1.682   2.119  0.0640 -0.3657  0.5224
   96GLOH   H03 9511   2.585   7.560   1.298  0.2002 -0.9710 -0.5136
   96GLOH    O1 9512   2.490   7.539   1.304 -0.1106  0.4196 -0.1932
   96GLOH    C1 9513   2.418   7.606   1.197  0.4606 -0.2741 -0.3898
   96GLOH   H02 9514   2.496   7.647   1.132 -0.0271  2.8514  0.8982
   96GLOH   H08 9515   2.346   7.678   1.236 -1.6396 -1.4092 -2.0785
   96GLOH    C2 9516   2.330   7.506   1.126 -0.2447  0.2525 -0.2456
   96GLOH   H04 9517   2.272   7.448   1.199 -2.3793  1.0306 -1.2823
   96GLOH    O2 9518   2.234   7.559   1.029 -0.4966 -0.5262  0.2336
   96GLOH   H05 9519   2.157   7.599   1.072 -1.0365 -0.6765 -0.5918
   96GLOH    C3 9520   2.411   7.401   1.057 -0.2358 -0.8783 -0.1334
   96GLOH   H06 9521   2.483   7.450   0.992  0.1014  0.1152  0.9730
   96GLOH   H07 9522   2.337   7.350   0.995 -2.0119  1.4829 -0.0405
   96GLOH    O3 9523   2.480   7.310   1.145 -0.3518 -0.5850 -0.2129
   96GLOH   H01 9524   2.419   7.299   1.220 -0.0991  1.9674  0.4070
   97GLOH   H03 9525   4.666   3.943   2.932  0.4662 -1.2206  0.5077
   97GLOH    O1 9526   4.570   3.927   2.922  0.4384 -0.6296 -0.2319
   97GLOH    C1 9527   4.518   4.053   2.866  0.0424 -0.1595  0.7997
   97GLOH   H02 9528   4.540   4.053   2.759  3.0634 -1.1027  1.3528
   97GLOH   H08 9529   4.566   4.136   2.917  2.0600  1.0078 -2.8679
   97GLOH    C2 9530   4.364   4.062   2.877 -0.1779 -0.5853 -0.4408
   97GLOH   H04 9531   4.327   4.039   2.978 -0.3565 -2.4833 -0.9299
   97GLOH    O2 9532   4.324   4.193   2.833 -0.5271  0.3703  0.1842
   97GLOH   H05 9533   4.228   4.198   2.847 -0.4318  1.9833  0.3722
   97GLOH    C3 9534   4.298   3.970   2.776 -0.2281  0.2697 -0.5728
   97GLOH   H06 9535   4.335   3.998   2.677 -1.0288  0.5065 -0.8112
   97GLOH   H07 9536   4.193   3.998   2.788 -1.7330 -3.8160 -2.9132
   97GLOH    O3 9537   4.315   3.835   2.805 -0.0733 -0.2914  0.2296
   97GLOH   H01 9538   4.383   3.798   2.745 -0.7273 -1.6909  0.3321
   98GLOH   H03 9539   1.262   7.148   0.825  0.9431 -1.1234  0.6500
   98GLOH    O1 9540   1.179   7.111   0.860  0.0963 -0.1783 -0.2844
   98GLOH    C1 9541   1.075   7.218   0.859 -0.2663 -0.6180 -0.1211
   98GLOH   H02 9542   1.072   7.261   0.960 -0.2628 -1.2375  0.1474
   98GLOH   H08 9543   0.978   7.171   0.844 -0.5127 -0.7209  1.6452
   98GLOH    C2 9544   1.094   7.343   0.770  0.5289 -0.6500  0.0312
   98GLOH   H04 9545   1.178   7.399   0.813 -0.0277 -0.5423  1.0091
   98GLOH    O2 9546   1.111   7.314   0.623  0.4446 -0.3683 -0.4197
   98GLOH   H05 9547   1.152   7.386   0.572  1.3423 -1.3623 -1.1247
   98GLOH    C3 9548   0.980   7.447   0.793 -0.4880 -0.3429  1.0951
   98GLOH   H06 9549   0.898   7.408   0.733 -0.3832 -0.9914  1.3647
   98GLOH   H07 9550   1.003   7.544   0.748  2.0000 -0.7553  1.3747
   98GLOH    O3 9551   0.946   7.468   0.928  1.3232 -0.3894  0.0580
   98GLOH   H01 9552   0.998   7.541   0.965 -0.4999  0.2006  1.5872
   99GLOH   H03 9553   8.266   1.932   0.968 -2.6400  0.4136  0.0340
   99GLOH    O1 9554   8.264   1.909   0.874  0.1853  0.2356 -0.0335
   99GLOH    C1 9555   8.178   2.002   0.816 -0.2591  0.3066 -0.3831
   99GLOH   H02 9556   8.222   2.102   0.813 -0.4419  0.3503 -2.0403
   99GLOH   H08 9557   8.094   2.024   0.881 -0.3985 -2.0528  0.2761
   99GLOH    C2 9558   8.131   1.958   0.674 -0.4227 -0.3254 -0.0238
   99GLOH   H04 9559   8.056   1.878   0.689 -0.2677 -0.8041 -1.6747
   99GLOH    O2 9560   8.075   2.067   0.597 -0.0292 -0.0459  0.2306
   99GLOH   H05 9561   8.143   2.081   0.529 -0.6581  1.6170 -0.0849
   99GLOH    C3 9562   8.243   1.896   0.589 -0.2518 -0.5866  0.4754
   99GLOH   H06 9563   8.199   1.852   0.500  1.2925  2.0877 -1.6928
   99GLOH   H07 9564   8.291   1.819   0.649 -3.9888 -1.5573  2.3987
   99GLOH    O3 9565   8.345   1.983   0.548 -0.4652 -0.7236  0.2317
   99GLOH   H01 9566   8.395   1.938   0.478 -3.5879 -0.9072 -1.9972
  100GLOH   H03 9567   8.643   7.369   1.249  0.8062  0.8466 -3.3919
  100GLOH    O1 9568   8.652   7.281   1.209 -0.0586 -0.8803 -0.0286
  100GLOH    C1 9569   8.649   7.301   1.069  0.5035 -0.0506  0.2377
  100GLOH   H02 9570   8.710   7.225   1.021  1.8874  1.1572  0.0307
  100GLOH   H08 9571   8.688   7.400   1.044 -0.0854  0.5881  1.7755
  100GLOH    C2 9572   8.512   7.297   1.004  0.0648 -0.3564  0.3290
  100GLOH   H04 9573   8.455   7.366   1.069 -0.6010 -0.3385 -0.2643
  100GLOH    O2 9574   8.504   7.349   0.867  0.5792 -0.7232  0.0573
  100GLOH   H05 9575   8.564   7.297   0.811 -1.6390  0.5552 -3.6820
  100GLOH    C3 9576   8.448   7.163   1.026  0.0051  0.0855 -0.7237
  100GLOH   H06 9577   8.353   7.166   0.973 -1.0285 -2.8108  0.8715
  100GLOH   H07 9578   8.425   7.155   1.132 -3.2125  1.2172 -1.2751
  100GLOH    O3 9579   8.528   7.051   0.982  0.1087 -0.8755  0.0709
  100GLOH   H01 9580   8.553   7.081   0.893 -0.6805  0.7253  0.3665
  101GLOH   H03 9581   2.738   6.628   2.742  1.6679 -0.5577 -0.4008
  101GLOH    O1 9582   2.733   6.594   2.651  0.8583  0.1547 -0.6302
  101GLOH    C1 9583   2.687   6.704   2.572  0.2092  0.4099  0.3803
  101GLOH   H02 9584   2.605   6.759   2.619  0.1732 -0.6392  1.5723
  101GLOH   H08 9585   2.659   6.669   2.473 -0.0669  0.1997  0.5350
  101GLOH    C2 9586   2.804   6.802   2.556 -0.3833 -0.0208 -0.1525
  101GLOH   H04 9587   2.772   6.881   2.487 -0.1602  1.4729  1.4274
  101GLOH    O2 9588   2.842   6.864   2.682 -0.3943  0.2617  0.2155
  101GLOH   H05 9589   2.826   6.806   2.758 -1.2092  0.1925  0.0054
  101GLOH    C3 9590   2.934   6.741   2.501  0.2056 -0.3181  0.3459
  101GLOH   H06 9591   2.978   6.672   2.573 -1.4844 -2.4476 -0.6007
  101GLOH   H07 9592   3.008   6.819   2.480  3.9775 -3.9914 -0.6269
  101GLOH    O3 9593   2.909   6.679   2.368 -0.1543 -0.2525  0.0323
  101GLOH   H01 9594   2.954   6.593   2.374  1.8252  0.6940 -1.0164
  102GLOH   H03 9595   4.281   1.014   0.597 -0.0004  2.2327 -1.4605
  102GLOH    O1 9596   4.304   0.980   0.508 -0.2132  0.0275 -0.7003
  102GLOH    C1 9597   4.278   0.841   0.504  0.2183 -0.2110 -0.6760
  102GLOH   H02 9598   4.257   0.819   0.608 -0.2339  3.6305  0.0875
  102GLOH   H08 9599   4.368   0.782   0.485  0.3260 -0.5130  0.7225
  102GLOH    C2 9600   4.163   0.798   0.414 -0.7531 -0.3709 -0.6626
  102GLOH   H04 9601   4.161   0.873   0.333  1.4551 -0.1081 -0.4862
  102GLOH    O2 9602   4.188   0.665   0.361 -0.5151 -0.0568 -0.8886
  102GLOH   H05 9603   4.194   0.605   0.436  1.1692  1.4776  0.2537
  102GLOH    C3 9604   4.034   0.801   0.492  0.3842 -0.0527  0.3585
  102GLOH   H06 9605   4.016   0.905   0.521 -0.6133  0.2053 -1.1077
  102GLOH   H07 9606   4.035   0.751   0.588 -0.2914 -0.3735  0.2019
  102GLOH    O3 9607   3.913   0.762   0.428  0.4003 -0.0519  0.3812
  102GLOH   H01 9608   3.907   0.666   0.408  1.2390  0.1647 -0.9285
  103GLOH   H03 9609   3.014   1.861   0.664  0.3696  3.3170 -1.7675
  103GLOH    O1 9610   2.945   1.834   0.600  0.2769  0.2183 -0.4493
  103GLOH    C1 9611   2.976   1.876   0.464 -0.0249  0.0604  0.1957
  103GLOH   H02 9612   3.074   1.840   0.432  1.7673 -0.3008  5.5209
  103GLOH   H08 9613   2.986   1.985   0.461  1.2748 -0.0922 -1.7715
  103GLOH    C2 9614   2.861   1.847   0.372  0.0904  0.2993 -0.0357
  103GLOH   H04 9615   2.770   1.890   0.417 -0.9918 -0.8144 -1.1009
  103GLOH    O2 9616   2.878   1.906   0.242  0.0152 -0.0369  0.0151
  103GLOH   H05 9617   2.941   1.858   0.186 -1.6448  1.1618 -3.0184
  103GLOH    C3 9618   2.834   1.694   0.353  0.2641 -0.3785  0.9418
  103GLOH   H06 9619   2.820   1.652   0.453  1.3527  1.8737  2.0743
  103GLOH   H07 9620   2.925   1.646   0.318  0.3492 -2.2354  3.6197
  103GLOH    O3 9621   2.716   1.682   0.266  0.1450  0.2632  0.7086
  103GLOH   H01 9622   2.632   1.691   0.316 -2.0514 -3.1691 -2.0309
  104GLOH   H03 9623   1.772   8.991   2.016 -0.1342 -0.1214 -0.0434
  104GLOH    O1 9624   1.726   8.935   1.951 -0.0768 -0.1627 -0.0489
  104GLOH    C1 9625   1.751   8.800   1.999 -0.3364  0.5154  0.2564
  104GLOH   H02 9626   1.854   8.776   1.975 -0.5626  0.2233 -0.4165
  104GLOH   H08 9627   1.688   8.721   1.958  0.3421  0.3397 -0.4347
  104GLOH    C2 9628   1.740   8.799   2.155  0.0496  0.2326  0.3018
  104GLOH   H04 9629   1.634   8.817   2.178  0.0310  0.4618  0.0375
  104GLOH    O2 9630   1.776   8.669   2.209  0.1117  0.1806  0.4478
  104GLOH   H05 9631   1.770   8.600   2.141  2.0074  0.0787  0.3473
  104GLOH    C3 9632   1.829   8.907   2.211  1.0880 -0.6255  0.8151
  104GLOH   H06 9633   1.931   8.889   2.176  1.7410  2.8292  0.7211
  104GLOH   H07 9634   1.836   8.895   2.319  1.0873 -2.2393  0.6413
  104GLOH    O3 9635   1.802   9.045   2.173  0.0737 -0.0780  0.1248
  104GLOH   H01 9636   1.769   9.089   2.254 -3.9369  1.9426 -2.4010
  105GLOH   H03 9637   3.148   8.265   1.508  0.3345 -0.4386  1.1275
  105GLOH    O1 9638   3.206   8.191   1.481 -0.0049 -0.4889  0.5341
  105GLOH    C1 9639   3.133   8.069   1.472  0.2035 -0.3820 -0.0630
  105GLOH   H02 9640   3.087   8.065   1.373 -1.3567  1.7978  0.5324
  105GLOH   H08 9641   3.052   8.074   1.546 -1.9002 -0.0175 -2.3142
  105GLOH    C2 9642   3.214   7.946   1.507 -0.2330 -0.3269  0.5025
  105GLOH   H04 9643   3.309   7.955   1.452  0.7936  1.4173  2.4647
  105GLOH    O2 9644   3.237   7.921   1.648  0.1283  0.0209  0.4321
  105GLOH   H05 9645   3.295   7.842   1.656 -0.7516 -0.9767 -2.4671
  105GLOH    C3 9646   3.135   7.824   1.457 -1.2792 -0.6059  0.1577
  105GLOH   H06 9647   3.034   7.832   1.499 -1.1506  2.8653 -0.0666
  105GLOH   H07 9648   3.174   7.731   1.499  1.2753 -0.2399 -1.3248
  105GLOH    O3 9649   3.108   7.811   1.316 -0.0903 -0.1141 -0.0617
  105GLOH   H01 9650   3.011   7.822   1.314 -0.3352 -1.4813  2.1841
  106GLOH   H03 9651   3.068   5.483   1.037 -2.7127 -0.6045  0.8323
  106GLOH    O1 9652   3.013   5.510   0.961 -0.6850  0.3205 -0.3405
  106GLOH    C1 9653   2.887   5.440   0.978 -0.4269 -1.4442 -0.3876
  106GLOH   H02 9654   2.804   5.511   0.981 -1.1151 -2.2649  0.6880
  106GLOH   H08 9655   2.882   5.392   1.076  0.0148  2.9005  1.9137
  106GLOH    C2 9656   2.862   5.334   0.875 -0.1061 -0.5974 -0.0678
  106GLOH   H04 9657   2.776   5.271   0.902 -0.3881  0.6993  2.1874
  106GLOH    O2 9658   2.831   5.403   0.750 -0.7947 -0.3813 -0.1306
  106GLOH   H05 9659   2.772   5.478   0.771 -0.3691 -0.1247  0.1437
  106GLOH    C3 9660   2.981   5.239   0.861 -0.6443 -0.3710 -0.2051
  106GLOH   H06 9661   3.051   5.296   0.800  0.1118 -0.4337  0.5901
  106GLOH   H07 9662   2.943   5.150   0.812 -3.9305 -0.2241  1.8911
  106GLOH    O3 9663   3.038   5.204   0.990  0.2129 -0.7463  0.8350
  106GLOH   H01 9664   3.115   5.259   1.012 -1.3124  2.2582 -0.8399
  107GLOH   H03 9665   7.977   1.007   2.639 -0.2374  1.2778 -0.4987
  107GLOH    O1 9666   8.055   0.998   2.582  0.2876  0.1269  0.3801
  107GLOH    C1 9667   8.011   1.029   2.452  0.2929 -0.3499  0.1534
  107GLOH   H02 9668   8.097   1.071   2.399  0.0898  0.8181  0.7235
  107GLOH   H08 9669   7.926   1.097   2.455  1.5748  1.3209 -0.2813
  107GLOH    C2 9670   7.953   0.910   2.382 -0.4531 -0.1546 -0.1562
  107GLOH   H04 9671   7.865   0.866   2.432  0.0248 -0.9499 -0.0143
  107GLOH    O2 9672   7.908   0.955   2.253 -0.1166 -0.5239 -0.3393
  107GLOH   H05 9673   7.866   0.885   2.200 -1.6680 -0.5102  0.8546
  107GLOH    C3 9674   8.054   0.791   2.361  0.1676 -0.2060 -0.0850
  107GLOH   H06 9675   8.134   0.832   2.300 -0.9933 -0.4082 -1.8108
  107GLOH   H07 9676   8.012   0.711   2.299 -0.2132  0.0063 -0.1021
  107GLOH    O3 9677   8.100   0.734   2.482  0.0655 -0.2406 -0.0789
  107GLOH   H01 9678   8.153   0.804   2.524 -0.2049 -0.3290  0.4050
  108GLOH   H03 9679   2.459   8.486   2.447  0.5931 -0.8908  1.5620
  108GLOH    O1 9680   2.541   8.532   2.471  0.1074  0.7148  0.2347
  108GLOH    C1 9681   2.540   8.643   2.376 -1.0852 -0.6060 -0.3764
  108GLOH   H02 9682   2.612   8.720   2.402  1.4057 -2.5651 -1.2728
  108GLOH   H08 9683   2.446   8.699   2.368 -0.7890 -0.0568 -0.0634
  108GLOH    C2 9684   2.567   8.604   2.227 -0.0066 -0.0982 -0.7151
  108GLOH   H04 9685   2.496   8.525   2.199 -2.0317 -0.0132  3.8937
  108GLOH    O2 9686   2.561   8.727   2.146  0.0917 -0.2376 -0.6312
  108GLOH   H05 9687   2.542   8.696   2.055 -0.3296 -0.9013 -0.3242
  108GLOH    C3 9688   2.713   8.554   2.223 -0.2273  0.8168 -0.8763
  108GLOH   H06 9689   2.771   8.629   2.276  0.8962  1.0662 -2.4185
  108GLOH   H07 9690   2.756   8.546   2.124  1.2978 -0.6268 -0.1363
  108GLOH    O3 9691   2.732   8.428   2.287  0.4320  0.4276 -0.1923
  108GLOH   H01 9692   2.786   8.440   2.367  0.3389  0.5855 -0.1523
  109GLOH   H03 9693   4.849   4.073   2.411 -2.2911 -0.7207  1.4097
  109GLOH    O1 9694   4.893   4.097   2.494  0.3911  0.1952 -0.2226
  109GLOH    C1 9695   4.795   4.163   2.578  0.3719 -0.3066  0.0333
  109GLOH   H02 9696   4.825   4.268   2.577  0.5166 -0.3342 -1.8374
  109GLOH   H08 9697   4.803   4.123   2.679 -0.8764 -1.7070 -0.4054
  109GLOH    C2 9698   4.648   4.157   2.517 -0.1308  0.3492 -0.3768
  109GLOH   H04 9699   4.611   4.056   2.539 -2.7104  1.2355 -0.4116
  109GLOH    O2 9700   4.569   4.256   2.592 -0.2449 -0.0583  0.3698
  109GLOH   H05 9701   4.476   4.256   2.563  0.2149  3.1166 -1.3099
  109GLOH    C3 9702   4.659   4.197   2.369 -0.2894  0.3499  0.1543
  109GLOH   H06 9703   4.722   4.286   2.369 -0.7307  0.6803  2.3427
  109GLOH   H07 9704   4.562   4.219   2.326 -0.6398  0.9247  1.2263
  109GLOH    O3 9705   4.728   4.100   2.286  0.7679 -0.6963  0.7717
  109GLOH   H01 9706   4.711   4.097   2.190  0.6471 -0.0892  0.7719
  110GLOH   H03 9707   8.291   2.711   0.774  0.3051  0.9560 -0.2680
  110GLOH    O1 9708   8.284   2.722   0.871  0.2711 -0.3720 -0.1158
  110GLOH    C1 9709   8.301   2.594   0.938 -0.3743  0.4040  0.1489
  110GLOH   H02 9710   8.207   2.539   0.936 -1.0620  1.5485  0.3860
  110GLOH   H08 9711   8.335   2.606   1.041  1.1422  1.0026 -0.3990
  110GLOH    C2 9712   8.420   2.526   0.861  0.8775 -0.4179 -0.4632
  110GLOH   H04 9713   8.495   2.607   0.851 -0.0583  0.7977  1.9499
  110GLOH    O2 9714   8.479   2.419   0.940  0.0516 -0.4450  0.4877
  110GLOH   H05 9715   8.525   2.442   1.022  1.0596 -0.5997 -0.0301
  110GLOH    C3 9716   8.368   2.485   0.721  0.5006 -0.6534 -0.3120
  110GLOH   H06 9717   8.273   2.431   0.720 -0.9885  1.8640 -0.8891
  110GLOH   H07 9718   8.438   2.418   0.671  2.1320  0.4248  0.4828
  110GLOH    O3 9719   8.344   2.615   0.652  0.0393 -0.5468 -0.4064
  110GLOH   H01 9720   8.375   2.610   0.559  0.5575  1.2810 -0.3464
  111GLOH   H03 9721   0.249   0.103   0.882 -2.4777  0.1794  0.8641
  111GLOH    O1 9722   0.259   0.114   0.979 -0.1313 -0.0132  0.6582
  111GLOH    C1 9723   0.316   0.246   0.994  0.0089  0.0453 -0.2065
  111GLOH   H02 9724   0.328   0.304   0.903 -0.7979 -0.1680 -0.4489
  111GLOH   H08 9725   0.417   0.235   1.036  0.3046  3.2458 -0.0064
  111GLOH    C2 9726   0.241   0.331   1.101 -0.1922  0.3172 -0.1930
  111GLOH   H04 9727   0.261   0.267   1.188  1.1970 -2.4528 -2.4769
  111GLOH    O2 9728   0.294   0.470   1.119 -0.7870  0.4808 -0.1240
  111GLOH   H05 9729   0.293   0.511   1.031  0.3746 -0.4679 -0.5962
  111GLOH    C3 9730   0.090   0.338   1.067  0.7125 -0.1575  0.7075
  111GLOH   H06 9731   0.048   0.396   1.150 -2.4784  0.0141 -0.9542
  111GLOH   H07 9732   0.050   0.238   1.085 -0.0687  0.0872  0.3499
  111GLOH    O3 9733   0.047   0.395   0.942 -0.4879 -0.2983 -0.1077
  111GLOH   H01 9734   0.016   0.482   0.974  0.5402 -0.7643  2.3025
  112GLOH   H03 9735   8.579   2.952   1.296  0.2088 -0.3960  0.5319
  112GLOH    O1 9736   8.667   2.937   1.255 -0.1483 -0.7695 -0.1092
  112GLOH    C1 9737   8.654   2.947   1.113 -0.7084 -0.8121  0.2119
  112GLOH   H02 9738   8.603   2.859   1.074  2.2309 -2.7342  0.5765
  112GLOH   H08 9739   8.755   2.944   1.073 -0.5235 -0.7135  0.6708
  112GLOH    C2 9740   8.580   3.072   1.061 -0.0863  1.0714 -0.2998
  112GLOH   H04 9741   8.620   3.162   1.110  0.4204  1.1000 -0.7559
  112GLOH    O2 9742   8.602   3.084   0.927  0.8971  0.3830  0.2543
  112GLOH   H05 9743   8.689   3.118   0.901  0.5153  0.4884 -0.9503
  112GLOH    C3 9744   8.437   3.071   1.101  0.4729 -0.0277 -0.0912
  112GLOH   H06 9745   8.393   2.987   1.046  2.5932 -0.7617 -0.7172
  112GLOH   H07 9746   8.397   3.163   1.059  0.9134 -0.2703 -1.0510
  112GLOH    O3 9747   8.421   3.065   1.242 -0.3012  0.0234  0.2892
  112GLOH   H01 9748   8.370   2.985   1.263  0.2946 -0.2725  0.6294
  113GLOH   H03 9749   0.729   3.747   2.340  1.0639  0.9764  0.4486
  113GLOH    O1 9750   0.746   3.700   2.424 -0.2804  0.1437  0.2905
  113GLOH    C1 9751   0.678   3.760   2.533  0.7611 -0.3966 -0.1079
  113GLOH   H02 9752   0.669   3.687   2.614 -2.1379  2.3934  2.2064
  113GLOH   H08 9753   0.583   3.800   2.499  1.0165  0.1218 -0.2287
  113GLOH    C2 9754   0.752   3.880   2.590 -0.0634  0.1448  0.8388
  113GLOH   H04 9755   0.797   3.948   2.517 -0.8695 -0.6785 -0.4449
  113GLOH    O2 9756   0.661   3.952   2.667 -0.4542  0.0708 -0.2796
  113GLOH   H05 9757   0.593   3.898   2.710 -0.0715 -1.2864 -1.3401
  113GLOH    C3 9758   0.865   3.833   2.688 -0.1833 -0.5139  0.0843
  113GLOH   H06 9759   0.933   3.755   2.653  0.8715  0.0451  0.8623
  113GLOH   H07 9760   0.816   3.799   2.779 -0.1979  1.2091  0.7429
  113GLOH    O3 9761   0.943   3.946   2.718  0.0469 -0.1361  0.5384
  113GLOH   H01 9762   0.882   4.002   2.769  0.5410  0.5892  0.3349
  114GLOH   H03 9763   9.619   2.746   0.492 -0.0611 -0.7123  0.0944
  114GLOH    O1 9764   9.525   2.728   0.508 -0.3472  0.2868 -0.4849
  114GLOH    C1 9765   9.489   2.589   0.511 -0.0426  0.1063  0.0475
  114GLOH   H02 9766   9.521   2.539   0.602 -0.5759 -0.9324 -0.3239
  114GLOH   H08 9767   9.538   2.552   0.421 -0.6991  0.2111 -0.3600
  114GLOH    C2 9768   9.338   2.568   0.499 -0.6559 -0.0518 -0.4662
  114GLOH   H04 9769   9.304   2.648   0.431  0.1193  0.9967  0.3462
  114GLOH    O2 9770   9.310   2.440   0.452 -0.0682  0.1760  0.2237
  114GLOH   H05 9771   9.340   2.426   0.361  0.2985 -2.2657  0.7037
  114GLOH    C3 9772   9.278   2.600   0.637  0.3034  0.4875  0.3882
  114GLOH   H06 9773   9.338   2.681   0.677  0.5753  1.2472 -1.4987
  114GLOH   H07 9774   9.300   2.511   0.697  1.6702 -0.7144 -1.8285
  114GLOH    O3 9775   9.139   2.632   0.636 -0.3758  0.6386 -0.0465
  114GLOH   H01 9776   9.093   2.557   0.678  1.1194 -1.1511 -1.4817
  115GLOH   H03 9777   8.532   8.103   2.061  1.0885  0.3607  2.1424
  115GLOH    O1 9778   8.598   8.153   2.010 -0.0031 -0.2243  0.0866
  115GLOH    C1 9779   8.665   8.225   2.119  0.1005 -0.1747  0.5866
  115GLOH   H02 9780   8.758   8.175   2.143 -0.1516 -0.6446  0.5807
  115GLOH   H08 9781   8.600   8.228   2.206  0.5137 -1.6490  0.9468
  115GLOH    C2 9782   8.693   8.368   2.065 -0.1269  0.4030 -0.4378
  115GLOH   H04 9783   8.725   8.426   2.153  1.3530  0.6615 -1.1211
  115GLOH    O2 9784   8.790   8.368   1.966  0.8429 -0.1235  0.2197
  115GLOH   H05 9785   8.871   8.384   2.017  0.4166 -0.3485  0.9647
  115GLOH    C3 9786   8.563   8.442   2.019 -0.3627 -0.6570 -0.5721
  115GLOH   H06 9787   8.529   8.398   1.925  0.3326 -1.7207 -0.3395
  115GLOH   H07 9788   8.584   8.545   1.990  0.3099 -0.4957  0.4698
  115GLOH    O3 9789   8.467   8.440   2.121  0.2443  0.2656  0.2338
  115GLOH   H01 9790   8.384   8.392   2.103 -0.1529  1.1954 -0.4472
  116GLOH   H03 9791   2.422   6.431   0.608 -2.2999  0.4532 -1.3069
  116GLOH    O1 9792   2.472   6.515   0.606 -0.3866 -0.6062 -0.0919
  116GLOH    C1 9793   2.404   6.593   0.503 -0.2180 -0.4528 -0.8367
  116GLOH   H02 9794   2.380   6.690   0.546  0.9585 -0.3710 -0.3395
  116GLOH   H08 9795   2.321   6.534   0.465  0.4428 -1.1520 -1.1952
  116GLOH    C2 9796   2.495   6.614   0.379  1.1063 -0.3199 -0.3530
  116GLOH   H04 9797   2.517   6.519   0.329  3.5572 -0.1225  0.2972
  116GLOH    O2 9798   2.420   6.703   0.285 -0.2894  0.5162  0.2640
  116GLOH   H05 9799   2.400   6.656   0.202 -1.7735 -0.0264  0.9015
  116GLOH    C3 9800   2.636   6.667   0.415  0.0387 -0.2460  0.0393
  116GLOH   H06 9801   2.667   6.609   0.503 -1.3785 -1.1593 -0.0482
  116GLOH   H07 9802   2.613   6.769   0.449  1.8875  0.2590 -0.1904
  116GLOH    O3 9803   2.734   6.674   0.314  0.3421 -0.5751 -0.1842
  116GLOH   H01 9804   2.805   6.727   0.354 -0.2093  1.4566 -1.8173
  117GLOH   H03 9805   0.124   6.203   1.635  0.8209  0.7741 -3.0657
  117GLOH    O1 9806   0.096   6.113   1.610  0.0512 -0.0304  0.5026
  117GLOH    C1 9807   0.067   6.120   1.469  0.2952  0.1346 -0.6027
  117GLOH   H02 9808   0.030   6.221   1.456  0.9019  0.6537  1.4523
  117GLOH   H08 9809  -0.011   6.047   1.449  0.5420 -0.2713 -0.1027
  117GLOH    C2 9810   0.176   6.080   1.367 -0.7653 -0.7778  0.1058
  117GLOH   H04 9811   0.270   6.119   1.408 -0.5448 -2.0843  0.8853
  117GLOH    O2 9812   0.197   5.931   1.359 -0.0324 -0.7029  0.3227
  117GLOH   H05 9813   0.275   5.901   1.410 -0.1443  0.3427  1.1407
  117GLOH    C3 9814   0.154   6.141   1.226  0.0005  0.3017 -0.1621
  117GLOH   H06 9815   0.220   6.091   1.155 -0.5005 -0.0439 -0.3887
  117GLOH   H07 9816   0.184   6.245   1.237 -3.1296  1.0364  1.7961
  117GLOH    O3 9817   0.015   6.133   1.184 -0.0339  0.0661 -0.0293
  117GLOH   H01 9818  -0.013   6.042   1.166 -2.1183  1.2614 -3.3680
  118GLOH   H03 9819   4.691   4.154   1.482  2.5836  1.0360  1.0863
  118GLOH    O1 9820   4.711   4.194   1.395  0.0884 -0.3326 -0.1556
  118GLOH    C1 9821   4.598   4.263   1.330  0.0266  0.0722  0.3456
  118GLOH   H02 9822   4.561   4.354   1.378 -1.0012 -0.0558 -0.2025
  118GLOH   H08 9823   4.512   4.196   1.331 -0.3125  0.5047  0.4452
  118GLOH    C2 9824   4.623   4.314   1.188  0.1789  0.0344 -0.8208
  118GLOH   H04 9825   4.659   4.236   1.119 -0.6297 -2.8011  1.8159
  118GLOH    O2 9826   4.506   4.363   1.128 -0.0630 -0.1918 -0.9892
  118GLOH   H05 9827   4.499   4.356   1.031 -1.9940  0.7313 -0.9463
  118GLOH    C3 9828   4.736   4.408   1.199 -0.1131 -0.2173  0.3414
  118GLOH   H06 9829   4.708   4.486   1.270  1.2294  1.0035 -0.4574
  118GLOH   H07 9830   4.756   4.455   1.103  1.3756  0.6649  1.0682
  118GLOH    O3 9831   4.857   4.346   1.235 -0.3625  0.3529 -0.5928
  118GLOH   H01 9832   4.832   4.294   1.313 -1.9691  4.4203  1.7358
  119GLOH   H03 9833   1.967   7.537   1.569 -0.3270 -0.1733  0.0253
  119GLOH    O1 9834   1.937   7.546   1.661  0.1052  0.3304  0.1217
  119GLOH    C1 9835   1.856   7.665   1.676  0.6784  0.0271  0.7541
  119GLOH   H02 9836   1.832   7.720   1.585  0.9489 -0.1635  0.5654
  119GLOH   H08 9837   1.906   7.730   1.747  1.6225 -0.0832  0.1920
  119GLOH    C2 9838   1.721   7.624   1.736  0.3390 -0.2315  0.5599
  119GLOH   H04 9839   1.734   7.582   1.837 -2.9745 -1.4482  0.5397
  119GLOH    O2 9840   1.639   7.741   1.737 -0.4930  1.0612 -0.0341
  119GLOH   H05 9841   1.603   7.742   1.827  1.0315 -0.8532  0.6361
  119GLOH    C3 9842   1.655   7.512   1.650 -0.0353 -0.0837  0.4560
  119GLOH   H06 9843   1.656   7.536   1.543  1.2723 -0.3692  0.3972
  119GLOH   H07 9844   1.549   7.491   1.667 -0.3988 -1.1165 -2.7570
  119GLOH    O3 9845   1.732   7.393   1.657 -0.1263 -0.2035 -0.4185
  119GLOH   H01 9846   1.825   7.420   1.648 -0.3807  1.0105  0.5617
  120GLOH   H03 9847   3.516   0.710   1.285 -0.0105  1.4154 -1.3001
  120GLOH    O1 9848   3.490   0.777   1.350 -0.1081  0.5617 -0.4497
  120GLOH    C1 9849   3.414   0.705   1.453 -0.0657  0.3963 -0.2648
  120GLOH   H02 9850   3.484   0.665   1.526 -0.4120  1.5515  0.7144
  120GLOH   H08 9851   3.351   0.624   1.417  0.6615 -0.9878  1.5041
  120GLOH    C2 9852   3.318   0.803   1.520  0.3156 -0.5852 -0.7025
  120GLOH   H04 9853   3.247   0.742   1.579  0.0142  0.3673 -0.0747
  120GLOH    O2 9854   3.393   0.883   1.615 -0.0727 -0.3775  0.7856
  120GLOH   H05 9855   3.431   0.958   1.566  1.5172 -1.9760 -0.4857
  120GLOH    C3 9856   3.236   0.888   1.418 -0.0397 -0.2080 -0.0452
  120GLOH   H06 9857   3.301   0.921   1.336  0.0331  1.2033  0.5629
  120GLOH   H07 9858   3.204   0.974   1.476 -2.9191 -1.8969  0.9746
  120GLOH    O3 9859   3.127   0.813   1.362 -0.0626  0.0625  0.7260
  120GLOH   H01 9860   3.056   0.798   1.426 -0.1327 -3.0194 -0.0098
  122ACOH    H4 9861   3.688   8.216   1.715  2.1758 -0.2434 -2.1670
  122ACOH    O2 9862   3.648   8.132   1.688  0.9178 -0.2527 -0.3917
  122ACOH    C2 9863   3.678   8.104   1.561 -0.0117  0.0156  0.0392
  122ACOH    O1 9864   3.757   8.166   1.491  0.1133 -0.1819 -0.4379
  122ACOH    C1 9865   3.608   7.986   1.506 -0.6123  0.7869 -0.1911
  122ACOH    H1 9866   3.540   7.932   1.572  0.9953  0.1852  0.9914
  122ACOH    H2 9867   3.691   7.920   1.479  0.0793  0.8032  1.8030
  122ACOH    H3 9868   3.556   8.020   1.416 -0.3159 -0.9735 -1.0421
  123ACOH    H4 9869   1.898   3.441   0.446 -1.2722 -1.5082 -0.2177
  123ACOH    O2 9870   1.971   3.377   0.449  0.4713  0.4153  0.1128
  123ACOH    C2 9871   2.051   3.418   0.345  0.0019  0.7434  0.0791
  123ACOH    O1 9872   2.016   3.490   0.252  0.3989 -0.4389 -0.2008
  123ACOH    C1 9873   2.175   3.337   0.337  0.1366  0.0917 -0.0144
  123ACOH    H1 9874   2.229   3.351   0.430 -0.8030 -3.4457  1.1677
  123ACOH    H2 9875   2.240   3.371   0.256  1.7159 -2.3307  0.1962
  123ACOH    H3 9876   2.144   3.234   0.319 -0.8152  0.5767 -1.2966
  124ACOH    H4 9877   4.316   1.195   1.652  1.7033  0.9876 -1.0556
  124ACOH    O2 9878   4.338   1.217   1.744  0.6553 -0.5250 -0.4223
  124ACOH    C2 9879   4.390   1.341   1.743 -0.4192 -0.3955  0.6190
  124ACOH    O1 9880   4.405   1.411   1.646 -0.3990  0.4162  0.2187
  124ACOH    C1 9881   4.384   1.401   1.880 -0.0882 -1.2599 -0.5076
  124ACOH    H1 9882   4.365   1.508   1.870 -1.3090 -0.8669  4.4533
  124ACOH    H2 9883   4.485   1.396   1.921  0.1892  0.2860 -0.9746
  124ACOH    H3 9884   4.311   1.357   1.948 -1.0023  0.0750 -0.5941
  125ACOH    H4 9885   8.532   2.836   0.574 -1.5892 -1.2093  0.2331
  125ACOH    O2 9886   8.532   2.868   0.482  0.1073 -0.4515  0.4756
  125ACOH    C2 9887   8.530   2.756   0.399  0.2329 -0.5341  0.6034
  125ACOH    O1 9888   8.524   2.637   0.427 -0.2929  0.0909  0.1396
  125ACOH    C1 9889   8.498   2.802   0.263 -0.2017  0.2483  0.0603
  125ACOH    H1 9890   8.413   2.870   0.258 -0.9128 -0.6026  0.4515
  125ACOH    H2 9891   8.473   2.711   0.208 -0.6321 -0.0485  0.7411
  125ACOH    H3 9892   8.581   2.840   0.204 -1.3778 -1.4517 -2.7987
  126ACOH    H4 9893   8.518   6.811   1.940 -0.8321 -0.3581  0.1457
  126ACOH    O2 9894   8.444   6.874   1.934 -0.2610  0.3474  0.4367
  126ACOH    C2 9895   8.482   6.995   1.883  0.1315  0.1161 -0.7169
  126ACOH    O1 9896   8.597   7.018   1.843 -0.3960  0.1367  0.3526
  126ACOH    C1 9897   8.377   7.095   1.878 -0.0156  0.3655  0.2571
  126ACOH    H1 9898   8.368   7.126   1.774 -0.3911 -1.5888 -0.3215
  126ACOH    H2 9899   8.409   7.170   1.950  4.3610 -0.1993 -0.9140
  126ACOH    H3 9900   8.288   7.045   1.916  0.9315 -0.6390  1.1983
  127ACOH    H4 9901   3.863   5.238   1.861  0.8205  0.3307 -0.4884
  127ACOH    O2 9902   3.843   5.262   1.768 -0.4682  0.2318 -0.2427
  127ACOH    C2 9903   3.716   5.306   1.758  0.6894 -0.6177 -0.7316
  127ACOH    O1 9904   3.637   5.323   1.849  0.6692  0.7741  0.0915
  127ACOH    C1 9905   3.674   5.314   1.617 -0.1920  0.3764  0.9490
  127ACOH    H1 9906   3.749   5.273   1.549 -2.7940 -1.9733 -0.5999
  127ACOH    H2 9907   3.640   5.413   1.589 -0.1209  0.3898  0.9119
  127ACOH    H3 9908   3.584   5.253   1.606 -0.3414  0.4828  1.5819
  128ACOH    H4 9909   8.733   5.967   0.644 -0.7550  2.4714 -0.7434
  128ACOH    O2 9910   8.656   5.908   0.638  0.3550  0.9386 -0.3172
  128ACOH    C2 9911   8.572   5.977   0.563 -0.7466  0.2936  0.5880
  128ACOH    O1 9912   8.581   6.084   0.501  0.1739  0.0118  0.5418
  128ACOH    C1 9913   8.459   5.885   0.542 -0.1739  0.2354  0.1518
  128ACOH    H1 9914   8.480   5.816   0.460 -0.7235  0.5242 -0.2379
  128ACOH    H2 9915   8.377   5.945   0.503  0.9532  1.0156 -1.0564
  128ACOH    H3 9916   8.426   5.833   0.632 -1.7744 -1.0796 -1.1653
  129ACOH    H4 9917   2.993   7.007   1.204 -0.3230  0.2193 -0.1670
  129ACOH    O2 9918   2.991   6.944   1.278 -0.0927  0.0477 -0.3061
  129ACOH    C2 9919   2.962   7.012   1.393 -0.1717 -1.3239 -0.4335
  129ACOH    O1 9920   2.966   7.134   1.405  0.4809 -0.8417  0.2244
  129ACOH    C1 9921   2.924   6.921   1.504  0.4767  0.0940 -0.5994
  129ACOH    H1 9922   3.001   6.927   1.580 -0.3423  1.2347  0.1525
  129ACOH    H2 9923   2.901   6.820   1.470 -2.6841  1.1517 -1.8139
  129ACOH    H3 9924   2.838   6.961   1.558  0.7364 -0.6154  0.3465
  130ACOH    H4 9925   9.440   7.955   2.226 -0.1570  0.5481 -0.4282
  130ACOH    O2 9926   9.400   7.933   2.312  0.7961 -0.0557 -0.1267
  130ACOH    C2 9927   9.371   8.042   2.387 -0.7550  0.2680 -0.1255
  130ACOH    O1 9928   9.365   8.157   2.339 -0.4730  0.5731 -0.2857
  130ACOH    C1 9929   9.356   8.014   2.531  0.1534 -0.5100 -0.6942
  130ACOH    H1 9930   9.337   8.097   2.599 -0.8867 -2.4546  1.4663
  130ACOH    H2 9931   9.446   7.960   2.560 -0.0641 -0.1758  0.6381
  130ACOH    H3 9932   9.272   7.945   2.541 -0.6947  0.2716 -2.2495
  131ACOH    H4 9933   8.266   7.473   1.509 -0.0836  0.2836 -0.9374
  131ACOH    O2 9934   8.298   7.411   1.441  0.2572 -0.4161 -0.1447
  131ACOH    C2 9935   8.278   7.282   1.489  0.4968 -0.7241  0.0225
  131ACOH    O1 9936   8.220   7.248   1.590  0.5197 -1.0097  0.2491
  131ACOH    C1 9937   8.328   7.194   1.387 -0.1537  0.1694 -0.2400
  131ACOH    H1 9938   8.436   7.199   1.396 -0.1145 -0.8496 -0.0969
  131ACOH    H2 9939   8.290   7.230   1.292 -0.6443 -0.1355 -0.1636
  131ACOH    H3 9940   8.280   7.097   1.401 -0.3665  0.5415  1.7371
  132ACOH    H4 9941   5.335   9.397   1.583  0.0379  3.1445 -1.0707
  132ACOH    O2 9942   5.426   9.380   1.554 -0.2664 -0.2942 -0.1871
  132ACOH    C2 9943   5.481   9.333   1.666  0.6367  0.0686  0.4182
  132ACOH    O1 9944   5.425   9.300   1.771 -0.5759 -0.1742  0.9100
  132ACOH    C1 9945   5.628   9.337   1.663  0.4309 -0.9334  0.5769
  132ACOH    H1 9946   5.674   9.245   1.699 -0.5701 -2.2900 -1.4951
  132ACOH    H2 9947   5.663   9.420   1.725 -0.3378  0.2882 -0.5891
  132ACOH    H3 9948   5.658   9.352   1.560  1.5245 -0.8286  0.8986
  133ACOH    H4 9949   2.970   9.281   2.352  0.4506  1.2919  0.5709
  133ACOH    O2 9950   2.889   9.321   2.317  0.3352  0.0960 -0.5091
  133ACOH    C2 9951   2.837   9.223   2.244  0.1160  0.4839 -0.6625
  133ACOH    O1 9952   2.894   9.119   2.208 -0.2489  0.1361  0.3430
  133ACOH    C1 9953   2.697   9.248   2.215 -0.3046  0.6218  0.2812
  133ACOH    H1 9954   2.661   9.173   2.145  0.8990 -0.6654  1.0086
  133ACOH    H2 9955   2.685   9.344   2.164  1.8933  0.1766 -1.1078
  133ACOH    H3 9956   2.637   9.249   2.307  1.0941  3.3308  1.2313
  134ACOH    H4 9957   8.722   4.352   1.749 -1.5472  0.7963  1.5075
  134ACOH    O2 9958   8.691   4.417   1.683 -0.4722 -0.4300 -0.2443
  134ACOH    C2 9959   8.786   4.451   1.591  0.1803  0.1126 -0.0956
  134ACOH    O1 9960   8.900   4.418   1.595 -0.1744  0.6042  0.2494
  134ACOH    C1 9961   8.731   4.538   1.484 -0.2381  0.6720  0.2356
  134ACOH    H1 9962   8.629   4.571   1.503 -0.4731  0.2775 -0.3225
  134ACOH    H2 9963   8.727   4.461   1.407 -0.7986  0.4258  0.5117
  134ACOH    H3 9964   8.792   4.624   1.455 -0.7439  1.1421  0.5434
  135ACOH    H4 9965   7.273   0.862   1.088 -1.4723  2.0274  2.6332
  135ACOH    O2 9966   7.323   0.944   1.073 -0.1231  0.7468 -0.2305
  135ACOH    C2 9967   7.442   0.933   1.135  0.7557 -0.7451  0.0365
  135ACOH    O1 9968   7.475   0.846   1.215 -0.7985 -0.3940 -0.2246
  135ACOH    C1 9969   7.518   1.059   1.125  0.1888  0.5911  0.1026
  135ACOH    H1 9970   7.598   1.058   1.199 -2.0135 -0.4696  2.5519
  135ACOH    H2 9971   7.447   1.137   1.153 -1.2214 -0.7234  0.2773
  135ACOH    H3 9972   7.551   1.078   1.023 -0.6531  2.3001  0.1309
  136ACOH    H4 9973   3.957   1.282   2.505  1.0809  1.8178 -1.5831
  136ACOH    O2 9974   3.901   1.256   2.431 -0.6402 -0.2387  0.3621
  136ACOH    C2 9975   3.931   1.130   2.410 -1.2343  0.8993  0.6336
  136ACOH    O1 9976   4.016   1.063   2.467 -0.0255  0.1321 -0.2156
  136ACOH    C1 9977   3.858   1.070   2.297  0.0065 -0.1833 -0.2355
  136ACOH    H1 9978   3.882   1.103   2.196  0.0711 -1.0940 -0.5308
  136ACOH    H2 9979   3.754   1.099   2.308 -0.5721 -1.9734 -0.7966
  136ACOH    H3 9980   3.859   0.961   2.288 -0.6351 -0.0850 -1.6527
  137ACOH    H4 9981   7.927   8.302   1.803 -0.7085  0.1162  0.3213
  137ACOH    O2 9982   7.891   8.321   1.891 -0.0854  0.4027  0.5180
  137ACOH    C2 9983   7.801   8.421   1.889  0.4136 -0.3584 -0.9624
  137ACOH    O1 9984   7.753   8.478   1.791 -0.1229  0.8380 -0.4310
  137ACOH    C1 9985   7.761   8.445   2.032 -0.7550  0.2056 -0.0826
  137ACOH    H1 9986   7.674   8.510   2.038 -0.7205  0.2878 -0.4980
  137ACOH    H2 9987   7.841   8.479   2.097 -2.3099  2.2061  0.8509
  137ACOH    H3 9988   7.733   8.347   2.071  1.7081 -0.7822 -0.7380
  138ACOH    H4 9989   4.504   0.363   2.454 -1.4327 -2.9488  0.3782
  138ACOH    O2 9990   4.594   0.339   2.426 -0.2364  0.8196  0.7949
  138ACOH    C2 9991   4.579   0.250   2.329  0.6059  0.4159 -0.7669
  138ACOH    O1 9992   4.479   0.186   2.299  0.1277 -0.1271 -0.0596
  138ACOH    C1 9993   4.712   0.213   2.268 -0.4005  0.6077  0.3299
  138ACOH    H1 9994   4.787   0.288   2.294 -0.7004  0.7724  0.7313
  138ACOH    H2 9995   4.707   0.213   2.160 -0.3141  1.7700  0.3259
  138ACOH    H3 9996   4.734   0.113   2.308 -0.2780  0.4511 -0.1321
  140ACOH    H4 9997   5.085   3.645   1.274  1.5496  1.1366  0.1541
  140ACOH    O2 9998   5.135   3.571   1.236 -0.4102 -0.1225 -0.0711
  140ACOH    C2 9999   5.252   3.573   1.292 -0.1008 -0.1772 -0.4161
  140ACOH    O110000   5.275   3.631   1.393  0.0866 -0.6016  0.3697
  140ACOH    C110001   5.338   3.460   1.240  0.1226 -1.4974 -0.6125
  140ACOH    H110002   5.443   3.468   1.269  0.1327  1.1518 -1.2292
  140ACOH    H210003   5.344   3.462   1.131  0.3690  0.1488 -0.5836
  140ACOH    H310004   5.300   3.363   1.272 -2.4037 -0.0512  0.8458
  141ACOH    H410005   2.930   2.169   1.897 -1.4258  0.7793 -0.2202
  141ACOH    O210006   2.924   2.131   1.808  0.5011 -0.2820  0.0853
  141ACOH    C210007   2.931   1.996   1.810  0.7675  0.0395  0.2877
  141ACOH    O110008   2.927   1.921   1.906 -0.1953  0.5306 -0.2129
  141ACOH    C110009   2.910   1.932   1.678  0.0474  0.1286 -0.2575
  141ACOH    H110010   2.911   2.011   1.604  1.3242  1.2287  0.9105
  141ACOH    H210011   2.812   1.882   1.674  0.4115 -0.5126 -1.5121
  141ACOH    H310012   2.979   1.851   1.653  1.2558  1.3987 -1.0599
  143ACOH    H410013   7.517   0.004   2.091 -0.1374 -1.1918 -0.4648
  143ACOH    O210014   7.470  -0.046   2.160 -0.1965  0.2003  0.5142
  143ACOH    C210015   7.508   0.004   2.272  0.0377  0.1715  0.1187
  143ACOH    O110016   7.579   0.102   2.290  0.0609 -0.1424 -0.3501
  143ACOH    C110017   7.454  -0.078   2.382  0.0867  0.1561 -1.0820
  143ACOH    H110018   7.489  -0.058   2.483 -0.9897 -1.5849 -0.3229
  143ACOH    H210019   7.473  -0.185   2.371 -0.0532 -0.4088  3.2826
  143ACOH    H310020   7.345  -0.071   2.383 -0.1509 -2.7144 -0.9324
  145ACOH    H410021   8.933   0.947   1.673 -1.2162  0.7432 -1.1508
  145ACOH    O210022   8.991   0.880   1.633 -0.6827  0.2339  0.4335
  145ACOH    C210023   8.906   0.781   1.599  0.1650 -1.0935 -0.7821
  145ACOH    O110024   8.785   0.787   1.603 -0.0592 -0.5096 -0.1577
  145ACOH    C110025   8.973   0.653   1.583  0.2912 -0.5438  0.5134
  145ACOH    H110026   8.901   0.571   1.575  2.3229 -2.3173 -0.0393
  145ACOH    H210027   9.048   0.638   1.661 -1.2712 -1.8147  1.8130
  145ACOH    H310028   9.030   0.670   1.492  0.9471  0.7143  1.1548
  146ACOH    H410029   4.951   8.222   1.214 -0.0944  0.1493 -0.2648
  146ACOH    O210030   4.953   8.126   1.234 -0.2532  0.2296  0.1304
  146ACOH    C210031   4.982   8.108   1.364  0.2998  0.1280  0.5007
  146ACOH    O110032   4.980   8.199   1.446 -0.0397  0.4066 -0.0954
  146ACOH    C110033   4.956   7.966   1.410  0.2375  0.0457 -0.1900
  146ACOH    H110034   4.883   7.926   1.339 -0.7798 -0.5953  1.2128
  146ACOH    H210035   4.917   7.946   1.510 -2.5026 -1.2785 -1.4576
  146ACOH    H310036   5.053   7.917   1.404 -0.3114 -1.2343  1.1536
  147ACOH    H410037   5.068   3.841   0.529  1.7817 -0.4155 -1.7216
  147ACOH    O210038   5.093   3.935   0.539 -0.3404 -0.0067  0.3034
  147ACOH    C210039   5.220   3.966   0.497 -0.2048 -0.2403 -0.1492
  147ACOH    O110040   5.295   3.883   0.450  0.1735 -0.2551  0.3248
  147ACOH    C110041   5.244   4.111   0.507  0.2290  0.2308 -0.2566
  147ACOH    H110042   5.341   4.123   0.459  0.9169 -1.2595  0.7295
  147ACOH    H210043   5.251   4.156   0.606 -0.9305 -0.1095 -0.0108
  147ACOH    H310044   5.164   4.165   0.457  0.4788  0.6971 -0.1581
  148ACOH    H410045   4.631   1.126   1.076 -0.2358 -1.4136  1.5568
  148ACOH    O210046   4.717   1.163   1.100 -0.2837 -0.1157 -0.2293
  148ACOH    C210047   4.703   1.283   1.163  0.0711  0.3607  0.7405
  148ACOH    O110048   4.600   1.339   1.189  0.9996 -0.5257  0.3938
  148ACOH    C110049   4.832   1.354   1.188  0.7807 -0.3656 -0.0237
  148ACOH    H110050   4.916   1.285   1.172  2.0853  0.7736  1.7118
  148ACOH    H210051   4.839   1.406   1.283  1.0649 -1.9448  0.8452
  148ACOH    H310052   4.831   1.426   1.107  2.4707  0.4432  0.6370
  150ACOH    H410053   3.297   7.520   1.658 -0.5944  0.0654 -0.2764
  150ACOH    O210054   3.386   7.506   1.621 -0.4840  0.4234 -0.1496
  150ACOH    C210055   3.463   7.602   1.666  0.4069 -0.6450 -0.6079
  150ACOH    O110056   3.422   7.714   1.698 -0.4706  0.5470 -0.0466
  150ACOH    C110057   3.604   7.580   1.637  0.1268 -0.1152  0.3943
  150ACOH    H110058   3.661   7.603   1.727  1.3108 -1.7642  0.0816
  150ACOH    H210059   3.644   7.631   1.549  1.8100 -0.9382  0.6716
  150ACOH    H310060   3.613   7.473   1.620 -0.4157 -0.0188 -0.5880
  151ACOH    H410061   4.894   2.764   1.808 -0.1394 -1.1615 -0.3344
  151ACOH    O210062   4.957   2.745   1.880 -0.7602  0.2595  0.6077
  151ACOH    C210063   4.923   2.630   1.937  0.3107 -0.1864 -0.0257
  151ACOH    O110064   4.812   2.584   1.933  0.0499  0.1579  0.1296
  151ACOH    C110065   5.026   2.607   2.042  0.5883  0.0773  0.2503
  151ACOH    H110066   5.112   2.672   2.029  0.5954 -0.0132 -0.1724
  151ACOH    H210067   5.054   2.502   2.055  0.7770  0.2015  0.8645
  151ACOH    H310068   4.985   2.624   2.142  2.3983 -2.6514  1.5031
  152ACOH    H410069   7.008   9.631   2.657 -0.6744  0.1886 -0.4866
  152ACOH    O210070   6.993   9.713   2.707  0.0725 -0.0638  0.1588
  152ACOH    C210071   6.909   9.679   2.810 -0.9819  0.4802 -0.1128
  152ACOH    O110072   6.838   9.582   2.823  0.5142  0.1261  0.0453
  152ACOH    C110073   6.910   9.789   2.905 -0.3973  0.5828 -0.1213
  152ACOH    H110074   6.852   9.869   2.860 -1.9885 -0.7536 -0.4890
  152ACOH    H210075   7.011   9.825   2.924 -0.8766  1.0753  1.5425
  152ACOH    H310076   6.861   9.774   3.002  0.2966 -1.0094 -0.0032
  153ACOH    H410077   8.464   6.895   0.926  2.8871  0.0882 -1.4478
  153ACOH    O210078   8.430   6.806   0.909 -0.2913  1.0216 -0.3049
  153ACOH    C210079   8.529   6.723   0.947  0.5896  0.0366  0.0829
  153ACOH    O110080   8.633   6.753   1.003 -0.1900  0.1074  0.5040
  153ACOH    C110081   8.486   6.583   0.936 -0.5780  0.8742  0.7035
  153ACOH    H110082   8.472   6.554   0.832 -1.3189  1.0406  0.7591
  153ACOH    H210083   8.389   6.580   0.984 -0.3990  1.1892  1.0919
  153ACOH    H310084   8.555   6.518   0.990  0.9165  0.0069 -2.1663
  154ACOH    H410085   4.386   0.823   1.876  1.4952  0.8667 -0.0102
  154ACOH    O210086   4.429   0.736   1.879 -0.4189 -0.1017  0.3762
  154ACOH    C210087   4.348   0.634   1.869 -0.2635 -0.0300 -0.6417
  154ACOH    O110088   4.229   0.639   1.856  0.0967  0.4703 -0.5564
  154ACOH    C110089   4.425   0.513   1.857 -0.1033  0.5423 -0.5367
  154ACOH    H110090   4.468   0.489   1.954 -0.0651 -0.9313 -0.9151
  154ACOH    H210091   4.503   0.526   1.782  0.6658 -1.8119 -0.1636
  154ACOH    H310092   4.363   0.427   1.830 -3.8224  2.8187  0.3193
  155ACOH    H410093   3.276   9.066   2.342  1.7519 -1.4108  0.0279
  155ACOH    O210094   3.343   9.128   2.373 -0.4634  0.7346  0.7107
  155ACOH    C210095   3.310   9.255   2.349 -0.5049 -0.6031  0.4302
  155ACOH    O110096   3.203   9.290   2.297 -0.0862  0.4556  0.5589
  155ACOH    C110097   3.414   9.364   2.366 -0.1822  0.3605  0.1890
  155ACOH    H110098   3.506   9.328   2.412 -0.0974  2.2779  1.5727
  155ACOH    H210099   3.367   9.443   2.425  0.1907  1.1595 -0.5730
  155ACOH    H310100   3.428   9.404   2.266 -3.9596  1.7439  0.1173
  156ACOH    H410101   4.212   9.466   0.949 -0.0656  0.8297  0.1196
  156ACOH    O210102   4.291   9.414   0.928 -0.2809  0.4433  0.2684
  156ACOH    C210103   4.393   9.501   0.897  1.0868 -0.0572  0.2096
  156ACOH    O110104   4.378   9.622   0.885  0.5050 -0.4891 -0.1790
  156ACOH    C110105   4.523   9.429   0.874 -0.2931 -0.3718 -0.0409
  156ACOH    H110106   4.505   9.349   0.803 -2.3833 -0.6439  0.7561
  156ACOH    H210107   4.552   9.384   0.969  0.2001 -2.5133 -1.1849
  156ACOH    H310108   4.597   9.495   0.829 -0.2527  0.9077  1.8375
  157ACOH    H410109   4.467   1.025   2.262 -1.5745  0.4877 -2.4667
  157ACOH    O210110   4.532   0.966   2.220 -0.5941 -0.1606 -0.0960
  157ACOH    C210111   4.581   1.029   2.114 -0.6192 -0.0163  0.1740
  157ACOH    O110112   4.561   1.140   2.066  0.1163 -0.0099  0.3084
  157ACOH    C110113   4.688   0.947   2.039 -0.4143 -0.1952  0.6387
  157ACOH    H110114   4.756   1.009   1.980 -1.7979 -0.0938 -0.9202
  157ACOH    H210115   4.632   0.887   1.967  2.2633 -1.0951 -0.7331
  157ACOH    H310116   4.740   0.880   2.107  0.1670 -0.3199  0.0733
  158ACOH    H410117   3.657   7.766   0.727 -0.1275  0.6599 -0.8322
  158ACOH    O210118   3.734   7.721   0.689 -0.2152  0.0432 -0.2870
  158ACOH    C210119   3.713   7.583   0.677 -0.0191 -1.5408 -0.5782
  158ACOH    O110120   3.608   7.528   0.705 -0.1685  0.1184 -0.3537
  158ACOH    C110121   3.818   7.512   0.602  0.5714  0.5235 -0.6351
  158ACOH    H110122   3.908   7.500   0.663 -0.3537 -3.3816  0.0807
  158ACOH    H210123   3.845   7.577   0.518 -0.9810  4.6443  1.8928
  158ACOH    H310124   3.784   7.412   0.578  0.4659  0.7565 -1.4604
  159ACOH    H410125   3.269   5.833   2.409 -0.1705 -4.1680  0.2224
  159ACOH    O210126   3.193   5.832   2.348 -0.3004  0.0301  0.1925
  159ACOH    C210127   3.210   5.727   2.271 -0.4064  1.0905  0.1141
  159ACOH    O110128   3.305   5.646   2.273  0.7217  0.1052 -0.3057
  159ACOH    C110129   3.074   5.698   2.213  0.2190  0.4549  0.0196
  159ACOH    H110130   3.028   5.796   2.207 -0.4082  0.1405 -0.4334
  159ACOH    H210131   3.021   5.645   2.293  0.7998  0.0797  0.1637
  159ACOH    H310132   3.097   5.642   2.122  1.5394  1.1519 -0.0854
  161ACOH    H410133   3.761   5.466   1.254 -2.0705  2.4064  1.3972
  161ACOH    O210134   3.843   5.518   1.254 -0.1862 -0.4512  0.7818
  161ACOH    C210135   3.941   5.470   1.169  0.6816 -0.1787 -0.5518
  161ACOH    O110136   3.927   5.374   1.098 -0.2059 -0.1436  0.0456
  161ACOH    C110137   4.042   5.568   1.139 -0.5409 -0.3766 -0.5588
  161ACOH    H110138   4.005   5.670   1.153 -1.4348 -0.9271  1.1664
  161ACOH    H210139   4.079   5.556   1.037  1.3593  2.8637 -0.3226
  161ACOH    H310140   4.120   5.542   1.209 -1.5869 -1.6754  0.1519
  163ACOH    H410141   3.827   7.709   2.854  0.1689  0.1551 -0.3767
  163ACOH    O210142   3.901   7.737   2.910 -0.1797 -0.0147  0.1761
  163ACOH    C210143   3.913   7.866   2.880 -0.2859  0.8819  0.2819
  163ACOH    O110144   3.912   7.910   2.763 -0.4551  0.0263 -0.5199
  163ACOH    C110145   3.979   7.934   2.989  0.3638  0.0391  0.0423
  163ACOH    H110146   4.073   7.883   3.014 -0.8429 -1.7597  1.0043
  163ACOH    H210147   3.914   7.932   3.076  0.0544 -1.5521 -0.2157
  163ACOH    H310148   4.007   8.038   2.970  0.2998  0.3219  1.4488
  164ACOH    H410149   8.485   2.553   2.398 -1.5880  1.8476  0.9493
  164ACOH    O210150   8.408   2.505   2.363  0.1599 -0.5791  0.2382
  164ACOH    C210151   8.439   2.378   2.399  0.4081  0.2110 -0.1760
  164ACOH    O110152   8.551   2.336   2.430 -0.1200 -0.0514 -0.0910
  164ACOH    C110153   8.319   2.292   2.376  0.9080  0.2942 -0.0821
  164ACOH    H110154   8.297   2.230   2.463 -1.1912 -0.0903 -0.8353
  164ACOH    H210155   8.352   2.233   2.291  0.3458 -1.4268  0.8575
  164ACOH    H310156   8.230   2.354   2.363  1.0956  0.6827  0.4901
  165ACOH    H410157   7.775   8.107   2.300 -1.9873 -1.2882  0.5845
  165ACOH    O210158   7.742   8.094   2.209 -0.0754  0.2296 -0.3573
  165ACOH    C210159   7.832   8.008   2.150 -0.0617 -0.2899 -0.2971
  165ACOH    O110160   7.921   7.948   2.208  0.1931 -0.3189  0.2225
  165ACOH    C110161   7.818   8.005   2.000  0.1359  0.6178  0.3943
  165ACOH    H110162   7.733   8.066   1.968 -0.7542 -0.8983 -0.2019
  165ACOH    H210163   7.802   7.899   1.980  2.0440 -0.0819  2.3978
  165ACOH    H310164   7.907   8.034   1.944  1.8090 -4.4829  0.1432
  167ACOH    H410165   8.229   6.858   2.938  0.4158 -0.9477 -1.2029
  167ACOH    O210166   8.139   6.866   2.904 -0.2004 -0.7522  0.3917
  167ACOH    C210167   8.121   6.948   2.802  0.4128  0.2670 -0.8389
  167ACOH    O110168   8.201   7.029   2.759  0.2873  0.6348 -0.6251
  167ACOH    C110169   7.975   6.940   2.769 -0.0168  0.3923  0.2077
  167ACOH    H110170   7.924   6.960   2.863  0.1691 -2.2196  0.9046
  167ACOH    H210171   7.955   6.839   2.735 -0.8960  1.2917 -2.0596
  167ACOH    H310172   7.931   7.004   2.692 -1.6243 -0.1613  0.6421
  168ACOH    H410173   3.611   4.960   1.606 -1.5180  1.6468  1.8443
  168ACOH    O210174   3.668   4.918   1.672 -0.3451 -0.1303 -0.2314
  168ACOH    C210175   3.606   4.924   1.789 -0.1030 -0.0019  0.0965
  168ACOH    O110176   3.501   4.971   1.811  0.0636  0.2847 -0.3580
  168ACOH    C110177   3.683   4.849   1.894 -0.5019  0.3261 -0.6762
  168ACOH    H110178   3.713   4.749   1.861  0.9315  0.0532  1.3499
  168ACOH    H210179   3.618   4.828   1.979 -0.9805  2.0043 -0.6090
  168ACOH    H310180   3.766   4.905   1.938 -1.6135  1.5943 -0.1843
  169ACOH    H410181   4.256   4.920   1.407 -0.4204 -1.1147  0.3694
  169ACOH    O210182   4.189   4.913   1.338 -0.0124 -0.4533 -0.0996
  169ACOH    C210183   4.249   4.852   1.228 -0.4772 -0.5023 -0.8088
  169ACOH    O110184   4.364   4.816   1.209  0.0769  0.5706 -0.0077
  169ACOH    C110185   4.150   4.839   1.114 -0.4108  0.5736  0.2045
  169ACOH    H110186   4.189   4.794   1.023 -1.0535  0.2137  0.1025
  169ACOH    H210187   4.118   4.937   1.077  2.6149  1.7514  0.5980
  169ACOH    H310188   4.064   4.784   1.152 -0.6945 -1.0665 -2.6634
  170ACOH    H410189   8.440   2.626   1.457 -0.4278 -0.9425 -1.7321
  170ACOH    O210190   8.355   2.652   1.496  0.1249 -0.4099 -0.8569
  170ACOH    C210191   8.340   2.782   1.475  0.5904 -0.1881  0.2178
  170ACOH    O110192   8.354   2.839   1.366 -0.3058 -0.3881 -0.0810
  170ACOH    C110193   8.274   2.844   1.593  0.1819 -0.2022  0.5190
  170ACOH    H110194   8.205   2.913   1.545 -1.5638 -0.9337  1.9355
  170ACOH    H210195   8.344   2.897   1.657  1.2266 -1.4997  0.4750
  170ACOH    H310196   8.223   2.771   1.655  0.7446  1.4339  2.9710
  171ACOH    H410197   4.512   0.157   1.286  1.2670 -0.8333 -0.7970
  171ACOH    O210198   4.570   0.169   1.362  0.2160  0.4947 -0.1887
  171ACOH    C210199   4.508   0.264   1.439 -0.0016 -0.6233  0.3340
  171ACOH    O110200   4.430   0.349   1.394  0.2925 -0.3672  0.6870
  171ACOH    C110201   4.567   0.268   1.571 -0.0830 -0.2665  0.8550
  171ACOH    H110202   4.503   0.237   1.653  0.5069 -0.0890  1.3859
  171ACOH    H210203   4.586   0.373   1.590  0.0689  0.1055 -1.1973
  171ACOH    H310204   4.661   0.213   1.579  1.0618  1.3493 -0.9936
  172ACOH    H410205   4.851   2.627   1.192 -0.2207  0.1066 -0.9836
  172ACOH    O210206   4.844   2.537   1.228 -0.4165  0.4746 -0.1013
  172ACOH    C210207   4.785   2.466   1.132 -0.0309 -0.5299 -0.2851
  172ACOH    O110208   4.718   2.506   1.039  0.4516  0.5286  0.7683
  172ACOH    C110209   4.803   2.322   1.151  0.6554  0.1118 -0.0042
  172ACOH    H110210   4.837   2.298   1.251  1.6226 -1.0492 -0.6007
  172ACOH    H210211   4.878   2.284   1.081 -0.2928  1.5808 -1.8973
  172ACOH    H310212   4.706   2.277   1.130  0.1667  1.4177 -0.5715
  173ACOH    H410213   8.006   2.585   1.276  0.1710 -0.9545 -0.8296
  173ACOH    O210214   7.975   2.533   1.352  0.0598  0.0999 -0.1364
  173ACOH    C210215   8.068   2.450   1.389  0.6111  0.6839  0.1082
  173ACOH    O110216   8.175   2.436   1.331  0.1366 -0.4554  0.3930
  173ACOH    C110217   8.017   2.363   1.501  1.5525  0.0612 -0.2004
  173ACOH    H110218   8.101   2.348   1.569  2.4434 -1.1852 -1.5310
  173ACOH    H210219   7.986   2.268   1.458  3.8911 -0.7341 -0.1934
  173ACOH    H310220   7.932   2.404   1.555 -0.1816 -2.9137 -0.5577
  174ACOH    H410221   4.192   8.184   0.952  0.2108 -0.2139 -0.1919
  174ACOH    O210222   4.247   8.130   0.893  0.6459 -0.0093  0.0235
  174ACOH    C210223   4.265   8.198   0.779 -0.3665 -0.4084  0.2575
  174ACOH    O110224   4.226   8.305   0.747 -0.0024 -0.3370 -0.0077
  174ACOH    C110225   4.319   8.108   0.669  0.1596 -0.6365  0.2039
  174ACOH    H110226   4.357   8.163   0.583 -1.9344  1.4052  0.5362
  174ACOH    H210227   4.229   8.060   0.630 -0.5414 -0.4250  1.5427
  174ACOH    H310228   4.389   8.029   0.697  0.4832 -0.5136 -0.2478
  175ACOH    H410229   4.118   1.666   1.690 -0.6083  2.3135 -0.7615
  175ACOH    O210230   4.184   1.669   1.618 -0.2243  0.1957 -0.5312
  175ACOH    C210231   4.186   1.797   1.572 -0.4858 -0.0746  0.2392
  175ACOH    O110232   4.111   1.886   1.602 -0.0829  0.1441 -0.5161
  175ACOH    C110233   4.298   1.817   1.474  0.6614  0.1640  0.1640
  175ACOH    H110234   4.304   1.916   1.428 -2.2116 -0.1028 -0.8399
  175ACOH    H210235   4.279   1.754   1.387  2.0988  1.2785 -0.9938
  175ACOH    H310236   4.392   1.788   1.521  0.2069  0.2913  1.1503
  176ACOH    H410237   7.370   9.104   1.140 -0.8707  0.5772  2.1146
  176ACOH    O210238   7.284   9.061   1.151 -0.3833 -1.0218  0.0127
  176ACOH    C210239   7.233   9.064   1.025  0.0751 -0.5790  0.2641
  176ACOH    O110240   7.277   9.131   0.935  0.4287 -0.0592  0.4958
  176ACOH    C110241   7.098   8.988   1.032  0.8488 -0.1196 -0.1600
  176ACOH    H110242   7.111   8.904   0.964 -1.4277 -3.0010  2.8122
  176ACOH    H210243   7.015   9.047   0.994 -0.1899 -2.1857 -1.1731
  176ACOH    H310244   7.074   8.946   1.130 -2.3911  1.9224 -0.0005
  177ACOH    H410245   2.786   6.837   2.038  1.1104 -4.5720 -1.5694
  177ACOH    O210246   2.778   6.878   1.950 -0.3042  0.3728  0.6400
  177ACOH    C210247   2.819   7.008   1.973  0.3941  0.3891 -0.2729
  177ACOH    O110248   2.837   7.065   2.084 -0.3009 -0.2508  0.4803
  177ACOH    C110249   2.816   7.088   1.844  0.2593  0.1682  0.1657
  177ACOH    H110250   2.794   7.193   1.864 -0.1704  0.4755 -1.8568
  177ACOH    H210251   2.739   7.044   1.781  1.9532 -0.7031 -1.3617
  177ACOH    H310252   2.918   7.080   1.804 -0.4535  0.2353 -1.6977
  178ACOH    H410253   2.978   0.373   0.893 -3.1653  5.0011 -0.7969
  178ACOH    O210254   3.023   0.418   0.967 -0.5002 -0.2504  0.9779
  178ACOH    C210255   2.951   0.402   1.085 -0.1564 -0.5462 -0.3656
  178ACOH    O110256   2.862   0.322   1.103 -0.4004  0.4343  0.7493
  178ACOH    C110257   3.014   0.496   1.188 -0.2033  0.1228  0.0483
  178ACOH    H110258   3.001   0.601   1.159  0.5464  0.2859  0.2825
  178ACOH    H210259   3.121   0.476   1.187 -0.2296 -0.0165  0.1235
  178ACOH    H310260   2.974   0.473   1.287 -1.3732 -2.5025 -0.9929
  179ACOH    H410261   1.468   5.731   0.687 -0.1349 -0.4403  1.3149
  179ACOH    O210262   1.557   5.693   0.676 -0.0954  0.0679 -0.2125
  179ACOH    C210263   1.637   5.792   0.712  0.1208  0.7226 -0.4440
  179ACOH    O110264   1.619   5.883   0.791 -0.3127 -0.0687  0.3381
  179ACOH    C110265   1.777   5.761   0.672 -0.0228  0.4148 -0.1639
  179ACOH    H110266   1.840   5.733   0.757 -0.0429  1.5860  0.2397
  179ACOH    H210267   1.827   5.845   0.626 -0.2441  0.9156  0.4964
  179ACOH    H310268   1.773   5.688   0.591 -1.3661  1.2020 -0.8282
  180ACOH    H410269   8.165   2.805   0.975 -0.5526  0.8010 -2.3929
  180ACOH    O210270   8.136   2.885   1.022  0.1950 -0.1585 -0.2666
  180ACOH    C210271   8.084   2.833   1.138  0.9716 -0.5868 -0.3048
  180ACOH    O110272   8.061   2.713   1.157  0.3249  0.4870 -0.2908
  180ACOH    C110273   8.041   2.942   1.234 -0.0036  0.2623 -0.1182
  180ACOH    H110274   8.129   2.983   1.282 -0.3853  0.0881  0.7434
  180ACOH    H210275   7.972   2.903   1.309  0.8073  0.1310  0.5657
  180ACOH    H310276   8.006   3.023   1.170  0.0244  0.2646 -0.1298
  181ACOH    H410277   3.789   8.090   2.179 -0.2227 -0.5520 -0.3467
  181ACOH    O210278   3.861   8.087   2.114 -0.0515  0.0333 -0.1850
  181ACOH    C210279   3.861   8.205   2.051 -0.4430  0.4113  0.3515
  181ACOH    O110280   3.772   8.287   2.049  0.4358 -0.5474 -0.6517
  181ACOH    C110281   3.970   8.224   1.957 -0.4261 -0.2369  0.0825
  181ACOH    H110282   4.061   8.186   2.003 -0.8512 -0.8087  0.4575
  181ACOH    H210283   3.978   8.330   1.933 -0.4621  0.1817  1.8764
  181ACOH    H310284   3.952   8.165   1.867  1.4573 -1.3446  0.4192
  183ACOH    H410285   8.540   4.431   1.757  0.3205  1.2392  0.0931
  183ACOH    O210286   8.449   4.450   1.787  0.0088 -0.0598 -0.0047
  183ACOH    C210287   8.443   4.425   1.920  0.3484  0.4698  0.5665
  183ACOH    O110288   8.546   4.416   1.987  0.8390 -0.0503 -0.0416
  183ACOH    C110289   8.314   4.464   1.978  0.8570 -0.0434 -0.3959
  183ACOH    H110290   8.233   4.446   1.907 -1.1516 -2.0216  2.2928
  183ACOH    H210291   8.306   4.567   2.012  3.3099  0.1686 -0.3820
  183ACOH    H310292   8.290   4.394   2.058  1.8962 -0.4496 -0.4286
  184ACOH    H410293   3.528   0.845   0.760 -2.0997 -0.9251  2.8450
  184ACOH    O210294   3.574   0.916   0.807 -0.4394  0.4864 -0.6860
  184ACOH    C210295   3.539   1.033   0.751 -0.2663 -0.0870  0.0847
  184ACOH    O110296   3.434   1.060   0.695  0.1649 -0.0513 -0.2289
  184ACOH    C110297   3.624   1.145   0.799 -0.0531  0.2541 -0.9541
  184ACOH    H110298   3.575   1.185   0.888 -0.9511 -2.4421 -0.1811
  184ACOH    H210299   3.623   1.223   0.723 -0.0717 -0.5147 -1.7363
  184ACOH    H310300   3.719   1.104   0.831 -0.7999 -0.7815 -0.0110
  185ACOH    H410301   4.942   2.392   0.668  0.5787  1.7642  0.0502
  185ACOH    O210302   5.025   2.373   0.621  0.1765  0.4111 -0.1225
  185ACOH    C210303   5.017   2.461   0.515 -0.9125  0.5477  0.2767
  185ACOH    O110304   4.936   2.552   0.511  0.4724  0.1744  0.1745
  185ACOH    C110305   5.131   2.443   0.416  0.7801 -0.6862  0.0643
  185ACOH    H110306   5.148   2.532   0.355  1.0932 -0.1082  0.9955
  185ACOH    H210307   5.102   2.361   0.349  3.1021  0.5313 -2.5146
  185ACOH    H310308   5.219   2.413   0.472 -0.9839 -3.4715  1.5118
  186ACOH    H410309   4.967   4.330   1.118  0.7542  1.8777  1.6379
  186ACOH    O210310   5.040   4.332   1.054 -0.4486  0.1371  0.1512
  186ACOH    C210311   5.040   4.217   0.981  0.2435  0.2537 -0.4338
  186ACOH    O110312   4.978   4.110   0.992 -0.5051 -0.2448 -1.1272
  186ACOH    C110313   5.144   4.233   0.876  0.3234  0.0976  0.1055
  186ACOH    H110314   5.164   4.135   0.833 -0.7866  0.4730 -1.3054
  186ACOH    H210315   5.239   4.282   0.899  0.6212  0.5782 -1.9918
  186ACOH    H310316   5.084   4.291   0.806  0.8620 -0.7305 -1.0594
  188ACOH    H410317   4.312   0.518   2.210 -1.0273  2.3633 -2.1090
  188ACOH    O210318   4.406   0.533   2.188 -0.1233  0.3043  0.1898
  188ACOH    C210319   4.456   0.638   2.255  0.2212 -0.0311  0.4947
  188ACOH    O110320   4.398   0.710   2.334 -0.2074 -0.3500  0.0657
  188ACOH    C110321   4.595   0.658   2.216 -0.2881 -0.4085 -0.9505
  188ACOH    H110322   4.646   0.564   2.238  0.8001  0.4332  0.2057
  188ACOH    H210323   4.643   0.736   2.275  0.6450 -1.7711  0.1510
  188ACOH    H310324   4.600   0.690   2.112  1.4551 -0.5942 -0.9436
  189ACOH    H410325   7.646   8.337   0.312 -2.5382 -0.0763 -2.1120
  189ACOH    O210326   7.587   8.354   0.387 -0.0444 -0.1199 -0.0731
  189ACOH    C210327   7.596   8.485   0.405  0.3251 -0.0400 -0.1177
  189ACOH    O110328   7.637   8.569   0.326 -0.1365 -0.4325 -0.0041
  189ACOH    C110329   7.563   8.524   0.542  0.9028 -0.3395 -0.4404
  189ACOH    H110330   7.633   8.480   0.612  0.0827 -1.2595 -0.1751
  189ACOH    H210331   7.464   8.484   0.565 -0.8172  2.2923 -2.9231
  189ACOH    H310332   7.565   8.632   0.554 -1.6742 -0.2197 -0.7603
  190ACOH    H410333   3.214   7.708   1.287  1.5083  1.7125  1.3996
  190ACOH    O210334   3.279   7.635   1.284 -0.3959  0.0145 -0.0259
  190ACOH    C210335   3.369   7.677   1.199 -0.7625 -0.4849  0.5844
  190ACOH    O110336   3.390   7.792   1.176  0.1678 -0.0448  0.6467
  190ACOH    C110337   3.477   7.575   1.178  1.4993 -0.4251 -0.1558
  190ACOH    H110338   3.527   7.584   1.082  0.2543 -0.1503 -0.7987
  190ACOH    H210339   3.443   7.475   1.204  0.6963  0.6764  3.4204
  190ACOH    H310340   3.551   7.601   1.254 -1.3847  0.1509  2.6114
  191ACOH    H410341   8.079   2.108   1.802  0.4019 -1.4420  0.2547
  191ACOH    O210342   8.020   2.093   1.725  0.0114  0.1643  0.2144
  191ACOH    C210343   8.097   2.028   1.629  0.0370 -0.3175 -0.5397
  191ACOH    O110344   8.220   2.033   1.615  0.4212 -0.2394 -0.4506
  191ACOH    C110345   8.011   1.955   1.535  0.4286 -0.6541 -0.3013
  191ACOH    H110346   7.903   1.965   1.548  0.4237  0.0872 -0.8326
  191ACOH    H210347   8.038   1.850   1.525  3.7400 -0.0837  1.9050
  191ACOH    H310348   8.029   2.003   1.438  0.6841  1.4255  0.7524
  192ACOH    H410349   4.231   9.849   1.880  1.4912 -1.2130 -0.4043
  192ACOH    O210350   4.254   9.884   1.792  0.3936  0.1863 -0.1399
  192ACOH    C210351   4.188   9.800   1.711 -0.0233 -0.3991 -0.2132
  192ACOH    O110352   4.132   9.695   1.735 -0.5726  0.1177 -0.1315
  192ACOH    C110353   4.208   9.839   1.574 -0.3511  0.7489 -0.0595
  192ACOH    H110354   4.115   9.843   1.518 -0.3080 -1.1892 -0.3014
  192ACOH    H210355   4.277   9.766   1.531  2.1539  1.2151  2.9658
  192ACOH    H310356   4.261   9.933   1.560  3.0650 -0.8452  1.3992
  193ACOH    H410357   4.549   8.857   0.812 -2.0045  2.6912  1.0804
  193ACOH    O210358   4.608   8.888   0.883 -0.2156  0.2101  0.7460
  193ACOH    C210359   4.648   9.015   0.845  0.6332  0.4331  0.0014
  193ACOH    O110360   4.594   9.076   0.753 -0.7978 -0.1447  0.1038
  193ACOH    C110361   4.751   9.073   0.929  0.3518 -0.3622  0.0688
  193ACOH    H110362   4.813   8.992   0.966  0.6881  0.2817  0.9420
  193ACOH    H210363   4.685   9.121   1.001 -0.1519  1.3568 -1.5094
  193ACOH    H310364   4.801   9.148   0.868 -2.2004  0.7278 -0.7219
  194ACOH    H410365   3.295   5.157   2.129  2.0081 -0.0405 -0.3446
  194ACOH    O210366   3.311   5.141   2.035  0.2930  0.1933 -0.6932
  194ACOH    C210367   3.286   5.257   1.970  0.1487  0.3767  0.0793
  194ACOH    O110368   3.227   5.350   2.020 -0.2288  0.1594  0.3380
  194ACOH    C110369   3.311   5.252   1.819 -0.2166  0.2680 -0.3967
  194ACOH    H110370   3.236   5.191   1.767 -1.6250  0.9688  0.7687
  194ACOH    H210371   3.410   5.214   1.794 -0.2666 -0.5470  0.6275
  194ACOH    H310372   3.295   5.351   1.776  1.4067  0.7235  0.0358
  195ACOH    H410373   4.969   2.753   2.388 -0.2336 -2.7870 -2.1421
  195ACOH    O210374   4.953   2.694   2.464  0.3063 -0.2062  0.0374
  195ACOH    C210375   4.881   2.586   2.435  0.3477  0.7052 -0.5908
  195ACOH    O110376   4.790   2.595   2.358 -0.4727  0.0280 -0.2894
  195ACOH    C110377   4.868   2.487   2.543  0.1157  0.8749  0.1816
  195ACOH    H110378   4.771   2.514   2.584 -1.5112 -1.2971 -2.1270
  195ACOH    H210379   4.947   2.487   2.619 -0.6358 -0.0894  0.9702
  195ACOH    H310380   4.862   2.387   2.502  0.3756  0.2007  1.7694
  196ACOH    H410381   2.857   6.550   0.640 -1.1868 -1.0492 -0.4837
  196ACOH    O210382   2.928   6.536   0.575 -0.6595 -0.0697 -0.1330
  196ACOH    C210383   2.924   6.409   0.545 -0.0701  0.9106  0.2145
  196ACOH    O110384   2.828   6.334   0.560 -0.7989  0.2064  0.1174
  196ACOH    C110385   3.042   6.357   0.470 -0.2819  0.5823  0.1502
  196ACOH    H110386   3.020   6.279   0.397 -1.2338  0.5759  0.4310
  196ACOH    H210387   3.121   6.326   0.538 -0.0782  0.8822  0.0523
  196ACOH    H310388   3.080   6.441   0.411 -0.1401  0.3043 -0.1568
  197ACOH    H410389   3.005   5.666   0.934  0.5450  0.4679 -0.3243
  197ACOH    O210390   3.007   5.762   0.924  0.4998  0.4714 -0.2958
  197ACOH    C210391   3.093   5.824   1.006  0.2222  0.0913  0.0500
  197ACOH    O110392   3.178   5.767   1.068  0.5262 -0.1778  0.1781
  197ACOH    C110393   3.088   5.975   0.994  0.2967 -0.3731  0.4279
  197ACOH    H110394   3.182   6.011   0.951 -1.7516  1.9698 -2.3350
  197ACOH    H210395   3.072   6.020   1.092 -0.0363 -1.4721  0.8860
  197ACOH    H310396   3.011   6.007   0.924  0.2225 -0.7885  0.3208
  198ACOH    H410397   4.497   2.781   2.160 -0.4474  1.7890  1.6366
  198ACOH    O210398   4.485   2.814   2.070  0.0065 -0.1400  0.8264
  198ACOH    C210399   4.408   2.729   2.001  0.1848  0.4664  0.3560
  198ACOH    O110400   4.344   2.758   1.899  0.3874 -0.6931  0.2075
  198ACOH    C110401   4.358   2.607   2.079 -0.3517 -0.8398  0.6684
  198ACOH    H110402   4.450   2.549   2.089 -0.4334 -0.7719  1.8447
  198ACOH    H210403   4.282   2.561   2.016  0.0604  0.6286 -0.9452
  198ACOH    H310404   4.320   2.641   2.175 -1.5930  1.8077 -0.6820
  199ACOH    H410405   7.816   1.236   0.949 -0.3797  0.0393 -3.6003
  199ACOH    O210406   7.730   1.281   0.959 -0.1670 -0.3155  0.1713
  199ACOH    C210407   7.744   1.348   1.077 -0.3001 -0.2765 -0.8026
  199ACOH    O110408   7.813   1.334   1.175  0.6717 -0.1917 -0.7748
  199ACOH    C110409   7.620   1.430   1.084 -0.2620 -0.3079  0.2034
  199ACOH    H110410   7.550   1.370   1.141  0.4208 -1.3076  0.0021
  199ACOH    H210411   7.580   1.459   0.987 -2.3117  0.4599  1.2500
  199ACOH    H310412   7.646   1.526   1.130  1.1721 -0.2928 -0.5840
  200ACOH    H410413   4.687   4.264   0.825 -0.2185  1.5016  0.3998
  200ACOH    O210414   4.771   4.273   0.777 -0.3278  1.1035  0.1322
  200ACOH    C210415   4.737   4.314   0.652 -0.1710 -0.0525 -0.0165
  200ACOH    O110416   4.634   4.366   0.614 -0.2198  0.2414 -0.0719
  200ACOH    C110417   4.852   4.300   0.565  0.6315  0.1831  0.4492
  200ACOH    H110418   4.886   4.400   0.540  1.4413 -0.0692  0.5359
  200ACOH    H210419   4.817   4.253   0.473 -1.0320  1.1488  0.5646
  200ACOH    H310420   4.930   4.240   0.611  1.9203  0.4462 -1.3376
  201ACOH    H410421   4.593   4.401   2.652  0.5574  0.4295 -1.6422
  201ACOH    O210422   4.636   4.454   2.721 -0.0620 -0.4175 -0.5849
  201ACOH    C210423   4.528   4.491   2.793  0.3333 -0.7288 -0.5202
  201ACOH    O110424   4.406   4.487   2.765 -0.3999  0.1579  0.3372
  201ACOH    C110425   4.575   4.556   2.915  0.2167 -0.1255 -0.8761
  201ACOH    H110426   4.621   4.649   2.883 -3.1631  2.1706  0.6106
  201ACOH    H210427   4.650   4.492   2.962 -0.2569 -1.9988 -2.5888
  201ACOH    H310428   4.498   4.588   2.986 -0.5133  1.0186 -2.1793
  202ACOH    H410429   3.854   5.365   0.651  0.5717 -0.0807 -0.4206
  202ACOH    O210430   3.937   5.314   0.651  0.6378  0.0252 -0.0122
  202ACOH    C210431   4.028   5.406   0.672  0.2454  0.3917  0.0232
  202ACOH    O110432   4.011   5.523   0.690 -0.2296 -0.0789 -0.2034
  202ACOH    C110433   4.164   5.351   0.671 -0.7875 -0.8404 -0.2277
  202ACOH    H110434   4.189   5.352   0.565  0.1540  0.2882 -0.0099
  202ACOH    H210435   4.162   5.254   0.720 -2.8831 -1.3624 -1.2553
  202ACOH    H310436   4.235   5.413   0.726 -1.3179 -1.5410  1.2723
  203ACOH    H410437   2.382   0.137   2.278 -0.2832  0.2711  0.0879
  203ACOH    O210438   2.421   0.122   2.366  0.2621  0.8179 -0.0575
  203ACOH    C210439   2.422  -0.013   2.377 -0.3224  0.4795 -0.0734
  203ACOH    O110440   2.373  -0.099   2.308  0.6737 -0.1838  0.4466
  203ACOH    C110441   2.495  -0.054   2.503  0.6935 -0.1375  0.0062
  203ACOH    H110442   2.431  -0.029   2.587 -0.1243  2.6612 -1.3977
  203ACOH    H210443   2.587   0.004   2.506  1.7420 -1.6364 -1.7173
  203ACOH    H310444   2.516  -0.161   2.500 -1.7608 -0.6320 -0.5347
  204ACOH    H410445   4.306   4.813   1.727 -1.3639  0.8388  0.2537
  204ACOH    O210446   4.330   4.899   1.765  0.0461  0.6472 -0.1662
  204ACOH    C210447   4.389   4.967   1.673 -0.5448 -0.0771  0.3497
  204ACOH    O110448   4.359   4.958   1.555 -0.1183 -0.2713  0.1901
  204ACOH    C110449   4.453   5.084   1.730 -0.2119 -0.4312 -0.7017
  204ACOH    H110450   4.394   5.107   1.819 -0.7473  0.3294 -1.2517
  204ACOH    H210451   4.444   5.166   1.659  0.8572  0.2193 -0.0868
  204ACOH    H310452   4.555   5.064   1.761 -0.4267 -1.4825 -0.6377
  205ACOH    H410453   3.100   4.873   2.195  2.3262  1.7471  1.3708
  205ACOH    O210454   3.026   4.930   2.222 -0.4050 -1.0567  0.1077
  205ACOH    C210455   3.022   5.019   2.122  0.2247  0.0158  0.8145
  205ACOH    O110456   3.045   4.997   2.008  0.4016  0.2512  0.1279
  205ACOH    C110457   2.951   5.144   2.154 -0.5453  0.5581  0.5587
  205ACOH    H110458   2.848   5.123   2.123  0.6079 -0.5461 -2.7846
  205ACOH    H210459   2.991   5.227   2.096  1.0752  0.7916  1.9742
  205ACOH    H310460   2.962   5.161   2.261 -1.3998 -2.5216  1.1882
  206ACOH    H410461   4.357   3.561   1.893 -0.1176 -1.7240 -1.7778
  206ACOH    O210462   4.269   3.591   1.867 -0.3263 -0.3046  0.4473
  206ACOH    C210463   4.270   3.584   1.737  0.0158  0.8838  0.7119
  206ACOH    O110464   4.362   3.583   1.656 -0.0994 -0.0616 -0.3651
  206ACOH    C110465   4.135   3.600   1.690 -0.5480  0.0214  0.0630
  206ACOH    H110466   4.095   3.511   1.642  3.3778  1.3822 -6.3598
  206ACOH    H210467   4.134   3.677   1.613  0.7488  0.1671  0.1797
  206ACOH    H310468   4.067   3.639   1.766  0.3561  2.9840 -0.5939
  207ACOH    H410469   8.900   3.973   1.133  0.4738  0.1624 -1.3349
  207ACOH    O210470   8.818   3.966   1.082 -0.3509  0.3073 -0.0457
  207ACOH    C210471   8.727   3.911   1.169 -0.2322 -0.0784  0.2768
  207ACOH    O110472   8.745   3.895   1.289 -0.4253 -0.0533  0.3949
  207ACOH    C110473   8.601   3.918   1.098  0.5929  0.4686 -0.5604
  207ACOH    H110474   8.575   4.023   1.086  1.5437  1.0069  1.7181
  207ACOH    H210475   8.520   3.860   1.141  0.5001  0.9256 -0.1046
  207ACOH    H310476   8.622   3.877   1.000 -1.4175 -0.7685 -0.4895
  208ACOH    H410477   3.206   7.419   0.945 -1.3793 -0.8193 -0.8187
  208ACOH    O210478   3.158   7.383   1.022  0.5037  0.2645  0.8995
  208ACOH    C210479   3.088   7.469   1.091  0.8272 -0.3102  0.5100
  208ACOH    O110480   3.085   7.587   1.069  0.1892  0.2299  0.0328
  208ACOH    C110481   3.023   7.417   1.214 -0.0196  0.0358  0.0395
  208ACOH    H110482   2.943   7.488   1.235 -0.1049  0.6519 -2.2407
  208ACOH    H210483   3.097   7.427   1.294 -1.6619  0.9037  1.4656
  208ACOH    H310484   2.981   7.318   1.197 -1.5987  0.9284 -1.4412
  209ACOH    H410485   1.339   1.119   1.732 -2.6373 -0.1702  0.7769
  209ACOH    O210486   1.362   1.159   1.818  0.5836 -0.2976  0.0264
  209ACOH    C210487   1.489   1.194   1.801  0.2903 -0.7269  0.1500
  209ACOH    O110488   1.560   1.188   1.700 -0.0034 -0.1092  0.6265
  209ACOH    C110489   1.528   1.254   1.929 -0.3930  0.1839  0.6495
  209ACOH    H110490   1.534   1.190   2.017 -2.5226 -1.5242 -0.4125
  209ACOH    H210491   1.453   1.331   1.950 -1.5011 -0.9397  0.8621
  209ACOH    H310492   1.622   1.310   1.926  0.2251 -0.8929 -0.6252
  210ACOH    H410493   5.365   3.281   2.014 -0.3194  1.4653 -2.4489
  210ACOH    O210494   5.430   3.338   2.058 -0.5338  0.2954 -0.5755
  210ACOH    C210495   5.380   3.377   2.175  0.7102 -0.2489 -0.0329
  210ACOH    O110496   5.308   3.313   2.252  0.1893 -0.4252 -0.3489
  210ACOH    C110497   5.445   3.508   2.224 -0.2851 -0.1729 -0.1442
  210ACOH    H110498   5.529   3.527   2.157 -0.4794 -0.0500 -0.3533
  210ACOH    H210499   5.483   3.483   2.323 -0.8079  1.0208  0.3668
  210ACOH    H310500   5.369   3.585   2.235 -0.4422 -0.1626 -1.2140
  212ACOH    H410501   3.622   5.172   2.246 -2.2072  0.3509 -0.0251
  212ACOH    O210502   3.623   5.163   2.342 -0.5462 -0.3267 -0.0893
  212ACOH    C210503   3.743   5.097   2.357  0.2390 -0.0668 -0.8616
  212ACOH    O110504   3.840   5.099   2.283  0.0597  0.2371  0.7866
  212ACOH    C110505   3.765   5.075   2.502  0.4492  0.0703  0.1813
  212ACOH    H110506   3.872   5.081   2.522  0.8483  1.2539 -2.2105
  212ACOH    H210507   3.731   4.973   2.522 -0.1017  0.0989 -0.5769
  212ACOH    H310508   3.708   5.141   2.568 -1.0226 -0.2952 -0.6940
  213ACOH    H410509   5.157   3.762   0.856  4.3155 -0.5730 -1.6337
  213ACOH    O210510   5.190   3.811   0.934 -0.2010 -0.1277  0.1741
  213ACOH    C210511   5.306   3.742   0.963  0.5979 -0.0160 -0.7071
  213ACOH    O110512   5.333   3.635   0.914 -0.4740  0.9455  0.7494
  213ACOH    C110513   5.383   3.797   1.079 -0.1443  0.3422  0.3640
  213ACOH    H110514   5.446   3.879   1.045 -0.4606  0.4083 -0.0675
  213ACOH    H210515   5.452   3.718   1.109 -1.2928 -0.5719  0.6553
  213ACOH    H310516   5.323   3.826   1.164 -0.0799  0.5397  0.3427
  214ACOH    H410517   7.988   2.205   0.630 -0.9146 -0.8017  3.0036
  214ACOH    O210518   7.956   2.295   0.646 -0.1999  0.0781 -0.0230
  214ACOH    C210519   8.025   2.354   0.746 -0.3467  0.4357  0.8705
  214ACOH    O110520   8.089   2.308   0.838  0.3496  0.2226 -0.2108
  214ACOH    C110521   7.967   2.490   0.760  0.8221  0.2279 -0.2013
  214ACOH    H110522   7.981   2.561   0.679  0.0273  1.0006  0.3258
  214ACOH    H210523   8.002   2.530   0.855  1.2241  0.4226 -0.4307
  214ACOH    H310524   7.862   2.464   0.774  0.5450  0.5174 -1.7311
  215ACOH    H410525   4.032   8.092   1.167 -0.9248 -1.6495  0.9276
  215ACOH    O210526   4.115   8.046   1.149  0.0452  0.5630 -0.4360
  215ACOH    C210527   4.077   7.936   1.075 -0.6821 -0.3240 -0.4799
  215ACOH    O110528   3.965   7.892   1.050 -0.3045 -0.9982 -0.2918
  215ACOH    C110529   4.205   7.862   1.041 -0.1873 -0.5531  0.3344
  215ACOH    H110530   4.284   7.912   1.098  0.1141 -1.5202  0.7677
  215ACOH    H210531   4.232   7.863   0.936  0.1839 -3.6392  0.3636
  215ACOH    H310532   4.198   7.759   1.075  1.1878  0.1384  2.9259
  216ACOH    H410533   1.191   3.790   2.203 -0.4766 -0.0698 -2.7664
  216ACOH    O210534   1.137   3.711   2.220  0.3842 -0.0756  0.2607
  216ACOH    C210535   1.154   3.692   2.356  0.4613  0.4300 -0.5561
  216ACOH    O110536   1.214   3.758   2.441  0.1036 -0.1580  0.4616
  216ACOH    C110537   1.066   3.579   2.397  0.6250  0.0214  0.1915
  216ACOH    H110538   1.085   3.554   2.501  2.3148  0.5666  0.0380
  216ACOH    H210539   1.083   3.488   2.340  0.3091 -0.0997  0.2920
  216ACOH    H310540   0.962   3.611   2.399  0.0014 -1.9605  3.3160
  217ACOH    H410541   9.015   3.043   0.243  1.3349  0.8114 -0.8337
  217ACOH    O210542   9.002   3.079   0.333 -0.9160 -0.1069 -0.7575
  217ACOH    C210543   8.896   3.014   0.386 -0.3997  0.3989  0.7243
  217ACOH    O110544   8.841   2.917   0.334 -0.9185  0.4286  0.6288
  217ACOH    C110545   8.847   3.057   0.516  0.4744 -0.8065  0.3439
  217ACOH    H110546   8.746   3.093   0.500  0.6631  0.4256  1.7841
  217ACOH    H210547   8.913   3.127   0.568  1.2861 -2.1270  1.1459
  217ACOH    H310548   8.830   2.967   0.575  0.3362  0.0265  1.5875
  218ACOH    H410549   1.507   3.601   1.857 -0.2789 -1.3129  0.1810
  218ACOH    O210550   1.539   3.595   1.949 -0.7118 -0.2742  0.4056
  218ACOH    C210551   1.490   3.713   1.995  0.4098 -1.1294 -0.7642
  218ACOH    O110552   1.419   3.794   1.943  0.1295  0.5233  0.6795
  218ACOH    C110553   1.560   3.754   2.116  0.1693 -0.3192  0.1064
  218ACOH    H110554   1.641   3.684   2.134  0.7852  0.3686  0.0395
  218ACOH    H210555   1.500   3.757   2.207  0.0667  1.5336  0.0012
  218ACOH    H310556   1.600   3.855   2.104  0.7069 -0.6182 -0.6820
  220ACOH    H410557   4.295   9.650   2.300 -1.0608 -0.3217  1.0452
  220ACOH    O210558   4.374   9.679   2.349  0.3212 -0.5365 -0.9818
  220ACOH    C210559   4.430   9.568   2.402 -0.7966  0.2828 -0.3491
  220ACOH    O110560   4.394   9.452   2.387  0.1133 -0.0324 -0.3762
  220ACOH    C110561   4.562   9.598   2.466  0.5467 -0.0630 -0.6511
  220ACOH    H110562   4.564   9.551   2.565 -2.4114 -1.2891 -1.1206
  220ACOH    H210563   4.570   9.704   2.488  1.0674 -0.3559  0.6185
  220ACOH    H310564   4.643   9.568   2.399  0.6248 -1.9228  0.2306
  221ACOH    H410565   9.474   0.634   1.433 -0.2231 -2.0046 -2.2763
  221ACOH    O210566   9.428   0.715   1.406  0.4932 -0.9906 -0.6018
  221ACOH    C210567   9.386   0.687   1.280  0.2441  0.8706 -1.0479
  221ACOH    O110568   9.440   0.614   1.206 -0.3932 -0.2604  0.2198
  221ACOH    C110569   9.276   0.777   1.241  0.2470 -0.7469  0.1454
  221ACOH    H110570   9.306   0.878   1.271  1.4063 -1.8342  2.8264
  221ACOH    H210571   9.190   0.753   1.302 -1.3607  0.2068 -1.6926
  221ACOH    H310572   9.250   0.785   1.136 -2.9113  1.0849  1.0060
  222ACOH    H410573   7.601   1.322   0.762  1.3084  3.5500  2.8010
  222ACOH    O210574   7.515   1.314   0.806  0.1112  0.0830  0.1247
  222ACOH    C210575   7.468   1.188   0.797  0.6989 -0.0096  0.4353
  222ACOH    O110576   7.542   1.090   0.791  0.4221  0.0242  0.2758
  222ACOH    C110577   7.324   1.180   0.837  0.4448 -0.4666 -0.2581
  222ACOH    H110578   7.317   1.236   0.930  1.6516  1.8085 -1.5024
  222ACOH    H210579   7.280   1.080   0.850 -0.7463  0.2846  1.7493
  222ACOH    H310580   7.274   1.244   0.765 -0.2354 -0.0280  0.5991
  223ACOH    H410581   2.112   4.727   1.954 -0.3677  1.1418 -0.2173
  223ACOH    O210582   2.181   4.777   2.002  0.0354  0.2547  0.1343
  223ACOH    C210583   2.129   4.886   2.053  0.0687 -0.3880  0.3507
  223ACOH    O110584   2.008   4.912   2.046 -0.7339 -0.4437 -0.8863
  223ACOH    C110585   2.229   4.955   2.137  0.2880  0.3182  0.0306
  223ACOH    H110586   2.223   4.907   2.235  0.3613  0.9618  0.3520
  223ACOH    H210587   2.209   5.062   2.135  0.9833  0.4460 -0.9613
  223ACOH    H310588   2.328   4.942   2.092  0.3680  1.7984 -0.2518
  225ACOH    H410589   8.606   6.514   1.313 -1.4288 -2.4433  0.5210
  225ACOH    O210590   8.531   6.571   1.336  0.3608  0.4248 -0.4889
  225ACOH    C210591   8.569   6.670   1.415 -0.8580 -0.0543  0.0116
  225ACOH    O110592   8.671   6.676   1.481  0.0071  0.0752 -0.4695
  225ACOH    C110593   8.462   6.762   1.441 -0.0204  0.0722  0.6320
  225ACOH    H110594   8.489   6.860   1.401  1.2533 -0.5569 -0.0721
  225ACOH    H210595   8.439   6.764   1.547 -2.7016 -1.4404  0.1244
  225ACOH    H310596   8.371   6.726   1.393 -0.7914  1.0381  1.3487
  226ACOH    H410597   4.193   4.464   2.287  1.2297  2.2374  0.8215
  226ACOH    O210598   4.120   4.523   2.309 -0.5134  0.4212  0.0205
  226ACOH    C210599   4.047   4.470   2.410 -0.1204 -0.2573 -0.8920
  226ACOH    O110600   4.026   4.351   2.437  0.1260  0.1672  0.3850
  226ACOH    C110601   3.974   4.579   2.487  0.2281  0.6838 -0.0021
  226ACOH    H110602   4.035   4.669   2.480 -0.3596  1.0255 -0.9121
  226ACOH    H210603   3.955   4.551   2.590 -1.0081  1.2035 -0.0816
  226ACOH    H310604   3.890   4.604   2.422  0.7448  0.2013 -0.8774
  227ACOH    H410605   7.315   0.101   0.918 -0.7322 -0.1946  0.9299
  227ACOH    O210606   7.238   0.081   0.862 -0.2634  0.1295  0.1719
  227ACOH    C210607   7.136   0.075   0.945 -0.5333  1.2643  0.2568
  227ACOH    O110608   7.126   0.118   1.055  0.6204 -0.2770  0.0678
  227ACOH    C110609   7.025   0.019   0.862  0.4457  0.1466 -0.2907
  227ACOH    H110610   6.934   0.066   0.899 -0.1107  0.3875 -1.9296
  227ACOH    H210611   7.017  -0.089   0.866  0.0054  0.2081  0.5851
  227ACOH    H310612   7.039   0.049   0.758 -1.8768 -0.7502 -0.8900
  228ACOH    H410613   4.996   8.384   1.411  3.0405  1.1516  1.3880
  228ACOH    O210614   4.995   8.479   1.390 -0.1261  0.7647 -0.5367
  228ACOH    C210615   4.980   8.489   1.257  0.5434  0.6657  0.0616
  228ACOH    O110616   4.963   8.395   1.184 -0.1878 -0.0525 -0.0204
  228ACOH    C110617   4.959   8.628   1.221  0.0795  0.3881 -0.0637
  228ACOH    H110618   5.054   8.682   1.229 -0.2402  0.7076  1.8755
  228ACOH    H210619   4.882   8.670   1.286  0.6236  0.9978  0.1941
  228ACOH    H310620   4.931   8.640   1.116  1.4955  2.1438 -0.2730
  229ACOH    H410621   8.665   4.587   0.717  0.0015  0.2323  0.6657
  229ACOH    O210622   8.574   4.584   0.753 -0.2718 -0.1597 -0.0434
  229ACOH    C210623   8.562   4.692   0.830  0.4345 -0.2261 -0.5138
  229ACOH    O110624   8.652   4.771   0.850 -1.1957  0.4147  0.4061
  229ACOH    C110625   8.427   4.715   0.879  0.4543 -0.2365  0.0165
  229ACOH    H110626   8.390   4.810   0.841 -0.6687 -0.2913  0.9101
  229ACOH    H210627   8.428   4.714   0.988  1.1486  0.5387  0.0191
  229ACOH    H310628   8.364   4.639   0.832  0.4218 -0.9090  1.1334
  230ACOH    H410629   1.091   2.777   2.099  0.3105 -0.7427 -3.5502
  230ACOH    O210630   1.183   2.806   2.083  0.6672  0.2874 -0.1770
  230ACOH    C210631   1.241   2.716   2.000  0.0938  0.0836  0.1560
  230ACOH    O110632   1.184   2.616   1.960 -0.3757 -0.0846  0.1831
  230ACOH    C110633   1.377   2.755   1.955 -0.2130  0.5212  0.1679
  230ACOH    H110634   1.367   2.770   1.848 -0.2717  1.5772  0.3156
  230ACOH    H210635   1.440   2.668   1.969 -0.2692  0.6753  1.4220
  230ACOH    H310636   1.423   2.844   1.999 -0.8226  1.7190 -1.5345
  231ACOH    H410637   5.126   3.609   2.031  3.1254  0.9074  1.6734
  231ACOH    O210638   5.181   3.545   1.983  0.4213 -0.2116 -0.0345
  231ACOH    C210639   5.131   3.549   1.859 -0.2326  0.2295  0.2979
  231ACOH    O110640   5.026   3.608   1.826 -0.3953  0.5281 -0.1867
  231ACOH    C110641   5.197   3.458   1.773 -0.6774  0.7018  0.1822
  231ACOH    H110642   5.228   3.502   1.679  1.5643  0.4151  0.7729
  231ACOH    H210643   5.127   3.379   1.745 -1.7318  1.2812  1.1181
  231ACOH    H310644   5.279   3.405   1.821 -0.6131  0.7894  0.1697
  232ACOH    H410645   4.544   2.039   0.190  0.4152  0.0706 -0.7670
  232ACOH    O210646   4.632   2.063   0.223  0.1405  0.8649 -0.5965
  232ACOH    C210647   4.613   2.157   0.323 -0.0828  0.4411  0.8268
  232ACOH    O110648   4.512   2.206   0.364  0.1799  0.3937  0.1701
  232ACOH    C110649   4.751   2.198   0.363  0.2948  0.3285 -0.2948
  232ACOH    H110650   4.748   2.274   0.441  2.2688  2.1764 -1.9536
  232ACOH    H210651   4.806   2.241   0.279  0.5061  0.3905 -0.1237
  232ACOH    H310652   4.810   2.112   0.394 -0.3573 -1.5325 -3.9602
  233ACOH    H410653   9.059   0.867   0.453 -0.3181  0.5150 -0.0941
  233ACOH    O210654   9.153   0.849   0.472 -0.4586 -0.5215 -0.3608
  233ACOH    C210655   9.160   0.715   0.475 -0.7334 -0.0987  0.8417
  233ACOH    O110656   9.101   0.635   0.406  0.3409  0.2997  0.3666
  233ACOH    C110657   9.286   0.683   0.544 -0.4905  0.4657 -0.2664
  233ACOH    H110658   9.262   0.678   0.651 -1.4616 -1.7683 -0.5509
  233ACOH    H210659   9.372   0.749   0.537  0.3693 -0.6199 -0.1795
  233ACOH    H310660   9.309   0.581   0.514  1.1502  0.1633  1.8996
  234ACOH    H410661   2.828   6.588   1.202  1.6192  0.7113  0.1397
  234ACOH    O210662   2.857   6.525   1.134 -0.7262 -1.0055  0.6591
  234ACOH    C210663   2.814   6.403   1.171 -0.3102 -0.4019 -0.0301
  234ACOH    O110664   2.734   6.378   1.258 -0.2723 -0.4191  0.2478
  234ACOH    C110665   2.859   6.302   1.070 -0.0903 -0.0324  1.1706
  234ACOH    H110666   2.815   6.331   0.975 -0.6231 -0.9789  1.1188
  234ACOH    H210667   2.810   6.206   1.087  1.9936 -1.4287 -0.3760
  234ACOH    H310668   2.968   6.294   1.059 -0.2431 -0.1050 -0.4367
  235ACOH    H410669   9.026   5.721   0.514  0.6202 -0.7565  1.5950
  235ACOH    O210670   8.930   5.721   0.529  0.4475  0.1113  0.5918
  235ACOH    C210671   8.910   5.678   0.658 -0.0135  0.5146  0.5148
  235ACOH    O110672   8.983   5.714   0.746  0.0367  0.3943 -0.6034
  235ACOH    C110673   8.787   5.601   0.686  0.3925  0.5066  0.1364
  235ACOH    H110674   8.748   5.615   0.787  2.6808  1.2803  0.9195
  235ACOH    H210675   8.787   5.492   0.677  1.8571  0.5870 -0.9716
  235ACOH    H310676   8.712   5.636   0.615  0.0268  0.7889  0.6569
  236ACOH    H410677   4.504   4.792   1.314  0.6765 -0.7698  0.3802
  236ACOH    O210678   4.592   4.806   1.353  0.6840 -0.2428  0.1762
  236ACOH    C210679   4.622   4.729   1.457  0.7635  0.6304 -0.1389
  236ACOH    O110680   4.561   4.625   1.487 -0.1431  0.4565 -0.1353
  236ACOH    C110681   4.730   4.788   1.534 -0.5876  0.3631 -0.0142
  236ACOH    H110682   4.777   4.871   1.481 -2.0193 -0.1342 -2.1307
  236ACOH    H210683   4.802   4.708   1.549 -1.0957 -0.2171 -0.6280
  236ACOH    H310684   4.701   4.825   1.632  0.9382  1.5834 -0.0000
  237ACOH    H410685   5.562   3.761   0.780 -0.7712 -2.1184  2.0888
  237ACOH    O210686   5.636   3.780   0.841  0.1694 -0.2744  0.4237
  237ACOH    C210687   5.660   3.916   0.838 -0.3612 -0.2073  0.4998
  237ACOH    O110688   5.584   3.998   0.786 -0.1450  0.0689  0.6946
  237ACOH    C110689   5.773   3.958   0.930 -0.4888  0.8596  0.0602
  237ACOH    H110690   5.863   3.899   0.915 -2.3457 -1.9499 -0.5831
  237ACOH    H210691   5.733   3.932   1.028 -2.7606 -0.5264 -1.1734
  237ACOH    H310692   5.792   4.065   0.936  2.3327  0.4465 -0.7475
  238ACOH    H410693   2.173   3.854   0.561  0.3706  0.8321  0.4220
  238ACOH    O210694   2.093   3.873   0.510  0.2778 -0.0752  0.2240
  238ACOH    C210695   2.112   3.810   0.394  0.3954  0.2762 -0.2346
  238ACOH    O110696   2.201   3.739   0.356 -0.4640 -0.2004 -0.2050
  238ACOH    C110697   2.002   3.846   0.305 -0.3200  0.2924 -0.4771
  238ACOH    H110698   1.980   3.787   0.216  2.8704 -1.3366 -0.2504
  238ACOH    H210699   2.013   3.948   0.267  2.4822 -0.9581 -3.1390
  238ACOH    H310700   1.908   3.839   0.360 -0.9621 -3.3222 -1.9164
  239ACOH    H410701   4.048   8.343   0.968 -0.0286  1.2203  0.3214
  239ACOH    O210702   4.115   8.320   1.034 -0.2806  0.3481  0.2688
  239ACOH    C210703   4.102   8.412   1.134 -0.6893 -0.1608  0.8743
  239ACOH    O110704   4.081   8.526   1.111  0.6155 -0.3874 -0.0529
  239ACOH    C110705   4.170   8.367   1.256 -0.2589 -0.3246 -0.2846
  239ACOH    H110706   4.266   8.319   1.234 -0.0630  0.2670 -0.7015
  239ACOH    H210707   4.108   8.300   1.317 -1.1379  0.9934  0.2863
  239ACOH    H310708   4.188   8.457   1.314 -0.1360 -0.5107 -0.0309
  240ACOH    H410709   4.551   1.606   0.918  0.0982  0.1730 -0.2217
  240ACOH    O210710   4.594   1.647   0.841  0.0645  0.5370 -0.0508
  240ACOH    C210711   4.530   1.763   0.803 -0.1284  0.0267 -0.0337
  240ACOH    O110712   4.486   1.840   0.884 -0.1644  0.1887  0.2611
  240ACOH    C110713   4.558   1.791   0.661  0.2398 -0.2219  0.5872
  240ACOH    H110714   4.485   1.750   0.590  0.4965 -1.1190  0.8357
  240ACOH    H210715   4.651   1.740   0.638  0.4520  1.1187 -1.5914
  240ACOH    H310716   4.560   1.898   0.645  1.2833 -0.3022  0.1666
  241ACOH    H410717   3.526   7.451   0.535 -0.0801 -0.1175  0.2661
  241ACOH    O210718   3.454   7.423   0.477  0.1464 -0.0386 -0.0573
  241ACOH    C210719   3.481   7.416   0.343  0.5630  0.2404 -0.4182
  241ACOH    O110720   3.581   7.454   0.288  0.0551  0.7890  0.0519
  241ACOH    C110721   3.361   7.364   0.264 -0.3209 -0.0444 -0.8630
  241ACOH    H110722   3.392   7.261   0.249  0.5745 -0.0957  1.0771
  241ACOH    H210723   3.338   7.420   0.174 -0.5396  1.2067 -0.0487
  241ACOH    H310724   3.275   7.373   0.330  0.6180 -1.6685  0.6326
  243SOL     OW10725   2.028   9.664   2.055 -0.6340 -0.0028  0.4426
  243SOL    HW110726   1.987   9.573   2.063 -0.2019 -0.0333  2.4090
  243SOL    HW210727   2.120   9.656   2.017 -1.3312 -0.1886 -1.2600
  244SOL     OW10728   1.312   5.812   0.717  0.1237 -0.0519 -0.1443
  244SOL    HW110729   1.238   5.751   0.745  0.9289 -0.9878 -0.0174
  244SOL    HW210730   1.280   5.907   0.717 -1.0428 -0.4462 -0.0142
  245SOL     OW10731   1.765   8.488   2.013 -0.0116 -0.6855  0.2089
  245SOL    HW110732   1.674   8.454   1.992 -1.2133  1.1863  2.1389
  245SOL    HW210733   1.815   8.505   1.928 -0.9711 -2.9674 -0.8428
  246SOL     OW10734   0.392   3.886   0.609 -0.0358 -0.1502 -0.0892
  246SOL    HW110735   0.351   3.959   0.664 -0.0139 -0.1917 -0.0173
  246SOL    HW210736   0.491   3.899   0.607 -0.2079  1.0294 -1.8090
  247SOL     OW10737   1.573   9.394   1.355 -0.2552  0.3554 -0.2645
  247SOL    HW110738   1.546   9.298   1.358  1.0056 -0.0215 -0.3807
  247SOL    HW210739   1.523   9.446   1.424 -2.3135 -0.0099 -1.4356
  248SOL     OW10740   0.968   4.103   1.737 -0.0472  0.3537  0.0701
  248SOL    HW110741   0.950   4.034   1.668 -1.2533 -0.0175  0.7520
  248SOL    HW210742   1.022   4.177   1.696 -2.8390  1.3512 -1.9513
  249SOL     OW10743   0.348   0.729   0.522 -0.4575  0.1804  1.3505
  249SOL    HW110744   0.386   0.821   0.535  1.3484 -0.2526 -0.5581
  249SOL    HW210745   0.418   0.661   0.541 -1.4019 -0.7675  1.4572
  250SOL     OW10746   1.919   4.159   1.319  0.0740  0.3715  0.0640
  250SOL    HW110747   1.891   4.126   1.409  0.1883 -2.8195 -0.9975
  250SOL    HW210748   1.905   4.086   1.252  1.6884  2.0906 -2.1836
  251SOL     OW10749   2.775   6.139   0.342 -0.0142 -0.2705  0.3172
  251SOL    HW110750   2.852   6.124   0.280 -0.3828  2.9824 -1.0141
  251SOL    HW210751   2.804   6.196   0.419 -0.7764 -0.1828  0.5496
  252SOL     OW10752   3.266   0.491   1.647  0.5076  0.1553  0.2317
  252SOL    HW110753   3.198   0.451   1.586 -0.2423  0.2205  1.0179
  252SOL    HW210754   3.358   0.469   1.613  0.1173 -1.8307  0.3867
  253SOL     OW10755   9.906   8.211   0.363  0.0093 -0.2178 -0.6873
  253SOL    HW110756   9.909   8.293   0.419  0.8424 -0.5449 -0.2517
  253SOL    HW210757   9.995   8.166   0.363 -1.2170 -2.8513  1.6657
  254SOL     OW10758   2.334   9.761   1.658 -0.0506  0.1490  0.5164
  254SOL    HW110759   2.363   9.734   1.750 -2.1155 -3.0663  0.3221
  254SOL    HW210760   2.284   9.847   1.663  1.3172  0.8770  2.1471
  256SOL     OW10761   9.187   4.086   1.843 -0.0273  0.3248  0.1904
  256SOL    HW110762   9.171   4.079   1.942  0.5279  0.2174  0.2759
  256SOL    HW210763   9.134   4.016   1.796  0.7218 -0.4692  0.5261
  257SOL     OW10764   9.507   1.649   2.107  0.1942  0.1194 -0.0127
  257SOL    HW110765   9.438   1.578   2.091 -0.4909  0.7370  0.1290
  257SOL    HW210766   9.465   1.723   2.160  0.8685  0.6822 -0.2659
  258SOL     OW10767   9.600   6.034   1.671 -0.0967 -0.5161  0.0641
  258SOL    HW110768   9.528   6.091   1.710  1.3036  1.6365 -0.3929
  258SOL    HW210769   9.689   6.067   1.704  0.7885 -1.8929 -0.9123
  260SOL     OW10770   1.603   7.722   0.940 -0.3007  0.1146 -0.4089
  260SOL    HW110771   1.523   7.662   0.927  0.5615 -1.4571  1.2161
  260SOL    HW210772   1.582   7.790   1.010 -0.4687  0.1795 -0.5221
  261SOL     OW10773   3.310   3.133   2.265  0.1295 -0.1328  0.2306
  261SOL    HW110774   3.381   3.197   2.294  1.6901 -2.2445  1.1877
  261SOL    HW210775   3.318   3.048   2.317 -2.3325 -0.8741 -0.5332
  263SOL     OW10776   0.180   6.736   2.189  0.3681  0.5066  0.1667
  263SOL    HW110777   0.256   6.709   2.247  0.0488 -1.6350 -0.3702
  263SOL    HW210778   0.128   6.809   2.234  2.0116  1.1211  1.0778
  264SOL     OW10779   0.992   0.111   0.753  0.3800 -0.5950  0.6952
  264SOL    HW110780   0.985   0.036   0.687 -1.0923 -1.6173  1.9719
  264SOL    HW210781   0.908   0.165   0.750  0.9110  0.2248  0.6902
  266SOL     OW10782   2.396   2.624   1.321  0.5878  0.0535  0.2685
  266SOL    HW110783   2.341   2.557   1.271  2.9042 -0.3981 -1.7875
  266SOL    HW210784   2.451   2.578   1.390  0.6562  0.0875  0.2378
  267SOL     OW10785  -0.035   9.239   1.273  0.2758 -0.0964 -0.0561
  267SOL    HW110786  -0.065   9.319   1.325 -0.4044  0.4878 -1.3077
  267SOL    HW210787  -0.115   9.192   1.236  0.5911 -2.1824  1.8338
  268SOL     OW10788   8.569   8.137   1.748  0.7405 -0.0213 -0.1556
  268SOL    HW110789   8.599   8.043   1.731 -0.2958 -0.6803  1.5558
  268SOL    HW210790   8.544   8.147   1.844  0.3093  1.8737 -0.4431
  269SOL     OW10791   0.577   3.530   1.382  0.6230  0.1287 -0.3221
  269SOL    HW110792   0.675   3.544   1.375  0.2922  2.0576 -1.6129
  269SOL    HW210793   0.545   3.480   1.301  0.5598 -0.5566  0.1286
  270SOL     OW10794   0.277   8.378   0.952  0.3699 -0.1150 -0.4171
  270SOL    HW110795   0.315   8.471   0.957  1.7236 -0.7223  1.6460
  270SOL    HW210796   0.323   8.327   0.879  1.5177  0.0574  0.1582
  271SOL     OW10797   9.050   6.017   1.511  0.4898  0.2403 -0.2577
  271SOL    HW110798   8.996   6.087   1.463  2.4022  0.0319 -2.8653
  271SOL    HW210799   9.130   6.060   1.553 -0.2526  0.1483  1.2566
  274SOL     OW10800   2.331   6.031   1.418 -0.3078  0.0450 -0.1503
  274SOL    HW110801   2.313   6.109   1.358  1.9429  0.3014 -0.5284
  274SOL    HW210802   2.429   6.025   1.436 -0.7553 -1.0978  2.0664
  275SOL     OW10803   8.868   8.383   1.034 -0.1717  0.4662  0.1371
  275SOL    HW110804   8.886   8.299   1.085  2.7312  1.7527  1.3573
  275SOL    HW210805   8.848   8.457   1.098  0.2022  1.3565 -0.7599
  277SOL     OW10806   8.765   2.312   1.759  0.7375 -0.7446 -0.6853
  277SOL    HW110807   8.828   2.263   1.818  0.6710 -1.4210 -1.1679
  277SOL    HW210808   8.687   2.254   1.738 -0.7438  0.5483  1.0212
  278SOL     OW10809   2.725   9.876   1.304 -0.0382 -0.1052 -0.0676
  278SOL    HW110810   2.675   9.795   1.275 -0.1799 -0.0466  0.0130
  278SOL    HW210811   2.707   9.894   1.401  0.8863 -0.6245  0.2056
  279SOL     OW10812   2.095   4.055   1.066 -0.4133  0.7120 -0.2002
  279SOL    HW110813   2.077   3.968   1.021 -0.3578  1.1878 -1.1471
  279SOL    HW210814   2.080   4.130   1.002 -0.8329  1.4290  0.7131
  281SOL     OW10815   8.019   7.984   1.134 -0.5777  0.3910 -0.0601
  281SOL    HW110816   8.112   8.012   1.158  1.0725 -2.6465 -2.5212
  281SOL    HW210817   7.997   8.015   1.042 -1.2233 -0.6038 -0.2546
  282SOL     OW10818   3.928   4.987   0.568 -0.0467 -0.7491  0.1176
  282SOL    HW110819   3.914   5.086   0.572  2.5447 -0.2949 -0.9303
  282SOL    HW210820   3.855   4.945   0.514  0.4130  0.9825 -1.9033
  283SOL     OW10821   7.980   9.118   1.263 -0.6825 -0.2154  0.6429
  283SOL    HW110822   7.898   9.062   1.251 -0.3156 -0.6691  0.2164
  283SOL    HW210823   8.027   9.128   1.175 -0.4162  0.2536  0.8350
  285SOL     OW10824   1.373   3.251   0.591 -0.0186  0.1508 -0.0467
  285SOL    HW110825   1.395   3.227   0.497 -1.2955  0.2510 -0.3841
  285SOL    HW210826   1.368   3.351   0.600  1.4958  0.1829  0.4570
  286SOL     OW10827   9.020   4.289   1.048 -0.1919 -0.0604 -0.4680
  286SOL    HW110828   8.921   4.300   1.040 -0.3388 -1.6127 -0.9667
  286SOL    HW210829   9.056   4.359   1.109 -1.4242  1.2868 -1.2471
  287SOL     OW10830   0.098   0.564   1.580 -0.5921  0.3012 -0.2517
  287SOL    HW110831   0.015   0.535   1.533  1.0188  0.5530 -3.3539
  287SOL    HW210832   0.109   0.663   1.571  0.0539  0.2682  0.1259
  289SOL     OW10833   0.345   3.218   0.921 -0.3234 -0.2734  0.9401
  289SOL    HW110834   0.281   3.283   0.962  1.0106  1.7432 -0.0958
  289SOL    HW210835   0.327   3.211   0.823  1.0438  0.3585  0.6267
  290SOL     OW10836   4.630   3.768   1.707 -0.1659  0.2385 -0.4032
  290SOL    HW110837   4.612   3.755   1.805 -2.1558 -0.3323 -0.8118
  290SOL    HW210838   4.584   3.851   1.676  3.5769  2.5427 -0.1041
  291SOL     OW10839   0.755   3.459   1.685 -0.1197 -0.0778 -0.2367
  291SOL    HW110840   0.745   3.556   1.665 -1.9131  0.1339  1.5580
  291SOL    HW210841   0.840   3.425   1.644  1.0599  2.4760  0.0168
  294SOL     OW10842   2.378   2.091   0.816 -0.7131 -0.5229  0.0962
  294SOL    HW110843   2.382   2.139   0.904 -0.4394 -1.3365  0.5389
  294SOL    HW210844   2.357   1.994   0.832  0.1861 -0.8589 -0.6657
  296SOL     OW10845   1.759   2.306   0.995  0.1516  0.3218  0.3466
  296SOL    HW110846   1.779   2.294   1.093 -0.8119  0.3750  0.5549
  296SOL    HW210847   1.756   2.403   0.974  1.9877  0.3026 -0.0878
  298SOL     OW10848   3.118   0.193   0.501 -0.6341 -0.3873 -0.4118
  298SOL    HW110849   3.208   0.217   0.535 -0.7768  1.2789 -1.1540
  298SOL    HW210850   3.084   0.266   0.440 -0.7407 -2.8306 -3.4085
  301SOL     OW10851   9.610   2.075   0.444 -0.4833 -0.8577  0.2815
  301SOL    HW110852   9.522   2.113   0.416 -0.3460  0.5087  1.6648
  301SOL    HW210853   9.595   1.996   0.504 -0.7891 -0.1800  1.1120
  302SOL     OW10854   2.452   3.219   2.131  0.6179  0.1599  0.1493
  302SOL    HW110855   2.457   3.142   2.194  3.1022 -0.1690 -0.3903
  302SOL    HW210856   2.460   3.305   2.183  0.3098 -0.0383  0.5207
  303SOL     OW10857   2.633   2.427   2.199  0.0695  0.3389 -0.5283
  303SOL    HW110858   2.557   2.473   2.245  1.4054  1.5865  0.5115
  303SOL    HW210859   2.651   2.471   2.111  0.9552  1.4650  0.1947
  304SOL     OW10860   2.365   1.738   1.653  0.7475  0.0166 -0.1320
  304SOL    HW110861   2.440   1.800   1.677 -0.2291  0.5917  1.4786
  304SOL    HW210862   2.388   1.645   1.682  0.7502  0.2315  0.5674
  305SOL     OW10863   1.374   2.781   0.894  0.1990 -0.0623 -0.3677
  305SOL    HW110864   1.373   2.807   0.797 -1.2489 -1.1020 -0.6477
  305SOL    HW210865   1.442   2.709   0.908 -0.7970 -1.1536 -0.9751
  306SOL     OW10866   4.190   4.517   0.878 -0.0335  0.3236  0.0149
  306SOL    HW110867   4.255   4.554   0.812  1.1082 -3.2618 -0.9918
  306SOL    HW210868   4.231   4.520   0.970 -0.1135  1.8081  0.0184
  307SOL     OW10869   1.558   6.233   0.322 -0.3334  0.6172  0.0316
  307SOL    HW110870   1.486   6.264   0.260  0.7375  0.9675 -1.0382
  307SOL    HW210871   1.572   6.302   0.393 -1.8786  0.0089  0.9666
  308SOL     OW10872   1.469   7.766   1.524  0.1159  0.0157 -0.2834
  308SOL    HW110873   1.519   7.777   1.610  0.5006  0.1387 -0.5229
  308SOL    HW210874   1.384   7.818   1.529  1.6588  2.7511 -1.1988
  309SOL     OW10875   4.218   1.513   2.169  0.0453 -0.5470 -0.6432
  309SOL    HW110876   4.265   1.431   2.201 -0.3558 -0.3815  0.3854
  309SOL    HW210877   4.127   1.518   2.211 -0.2263  0.0221 -1.2970
  310SOL     OW10878   0.714   3.713   1.623 -0.5303 -0.8697  0.0249
  310SOL    HW110879   0.771   3.759   1.691 -0.4710 -1.5818  0.4507
  310SOL    HW210880   0.686   3.780   1.554 -0.7406 -0.1084  0.8357
  311SOL     OW10881   2.352   1.335   0.738  0.0773 -0.1941 -0.0123
  311SOL    HW110882   2.370   1.376   0.827 -1.3252 -0.6991  0.5191
  311SOL    HW210883   2.319   1.406   0.675  1.3612  0.2214 -0.2344
  312SOL     OW10884   1.334   0.999   0.665 -0.3547  0.1500  0.1699
  312SOL    HW110885   1.347   1.046   0.752 -0.5625 -1.3248  1.0103
  312SOL    HW210886   1.243   0.959   0.661 -0.4645  0.4830 -0.8601
  313SOL     OW10887   2.181   2.395   0.846 -0.1253  0.0903  0.0804
  313SOL    HW110888   2.271   2.432   0.868 -0.3213  1.6379 -1.5405
  313SOL    HW210889   2.155   2.424   0.754 -1.4092 -2.0573 -0.2702
  314SOL     OW10890   4.041   0.902   1.685  0.1438  0.4511 -0.2505
  314SOL    HW110891   4.011   0.816   1.728 -0.7699  0.1773 -1.4058
  314SOL    HW210892   4.114   0.883   1.619 -1.8038  0.1769 -2.3906
  316SOL     OW10893   1.804   8.684   1.111 -0.2436 -0.5171 -0.3712
  316SOL    HW110894   1.882   8.730   1.153 -0.6610 -0.9197  0.8723
  316SOL    HW210895   1.743   8.752   1.070  0.5806 -0.1772 -1.0217
  317SOL     OW10896   4.206   0.134   2.229  0.3939 -0.1430  0.0003
  317SOL    HW110897   4.180   0.205   2.163 -0.3802  0.6711  1.1562
  317SOL    HW210898   4.304   0.142   2.249  0.1545  1.1660  0.7536
  318SOL     OW10899   8.946   4.310   2.333  0.1729 -0.0106 -0.7446
  318SOL    HW110900   9.029   4.334   2.383  0.1350 -1.6869  0.1616
  318SOL    HW210901   8.872   4.373   2.358  0.1909 -0.7566  1.2542
  319SOL     OW10902   2.011   6.237   0.763 -0.0017  0.0650  0.3427
  319SOL    HW110903   2.010   6.147   0.807 -0.0806  0.3391  0.9028
  319SOL    HW210904   2.037   6.226   0.666  0.5241 -0.5017  0.5391
  320SOL     OW10905   0.419   4.853   1.328  0.1500 -0.2299 -0.3799
  320SOL    HW110906   0.322   4.868   1.351 -0.1346  0.0549 -1.6880
  320SOL    HW210907   0.470   4.833   1.411 -1.3884 -2.3817  0.1057
  321SOL     OW10908   9.816   8.247   1.974 -0.1428  0.0065 -0.3527
  321SOL    HW110909   9.842   8.315   1.906 -0.0604  1.1334  0.7831
  321SOL    HW210910   9.848   8.157   1.945  1.8363  0.8110 -0.7464
  322SOL     OW10911   3.206   3.746   1.368  0.4811  0.1656  0.1445
  322SOL    HW110912   3.200   3.829   1.423  1.3952  1.5210 -1.7533
  322SOL    HW210913   3.191   3.768   1.272  1.7058 -1.7015 -0.5165
  324SOL     OW10914   1.733   2.517   1.686 -0.1087 -0.2429  0.0529
  324SOL    HW110915   1.685   2.541   1.771  0.2453 -1.3053  0.5599
  324SOL    HW210916   1.831   2.519   1.703 -0.0083  0.4387 -0.5856
  325SOL     OW10917   2.936   3.817   0.612 -0.1055 -0.0437 -0.1392
  325SOL    HW110918   2.981   3.784   0.529  2.2676  0.3528  0.9427
  325SOL    HW210919   2.923   3.741   0.675 -1.4143 -0.2417 -0.6238
  326SOL     OW10920   9.865   2.912   2.018  0.9228  0.3772 -0.1329
  326SOL    HW110921   9.937   2.981   2.024  0.7289  0.5713 -0.0090
  326SOL    HW210922   9.872   2.848   2.095  0.4558  0.8954  0.3489
  327SOL     OW10923   8.761   2.212   2.287 -0.0424 -0.0639  0.5471
  327SOL    HW110924   8.680   2.237   2.340 -1.3270 -0.8560 -0.9934
  327SOL    HW210925   8.767   2.271   2.206  0.2387 -0.8187  0.0179
  329SOL     OW10926   9.357   2.153   0.346 -0.1843  0.1230 -0.0413
  329SOL    HW110927   9.334   2.234   0.401  2.0037  1.5122 -1.1421
  329SOL    HW210928   9.312   2.159   0.257  0.2125  0.2446 -0.2308
  330SOL     OW10929   3.150   4.565   1.026  0.0631 -0.4068  0.2091
  330SOL    HW110930   3.147   4.517   0.939  2.0998 -2.3726  1.1791
  330SOL    HW210931   3.169   4.662   1.011  0.7328 -0.7919 -1.4966
  331SOL     OW10932   7.774   8.963   1.751 -0.0902 -0.2170 -0.3224
  331SOL    HW110933   7.751   8.915   1.836  1.2489 -0.7624 -0.2447
  331SOL    HW210934   7.740   8.910   1.673 -1.2054  0.2164 -0.1307
  332SOL     OW10935   9.060   1.191   1.266  0.5682  0.1357 -0.3700
  332SOL    HW110936   9.068   1.092   1.259  0.4308  0.1679 -1.0113
  332SOL    HW210937   8.965   1.216   1.284  0.3601  0.2222 -1.5717
  334SOL     OW10938   8.331   7.897   1.008  0.0581 -0.3304  0.7193
  334SOL    HW110939   8.313   7.933   0.917 -0.4298 -0.1993  0.8631
  334SOL    HW210940   8.347   7.798   1.002  1.8106 -0.0297  0.2766
  335SOL     OW10941   8.877   8.385   0.767  1.0912  1.0598  0.0782
  335SOL    HW110942   8.886   8.365   0.865  3.3172 -0.2505 -0.3557
  335SOL    HW210943   8.852   8.301   0.718 -1.5484  2.0348 -0.3368
  338SOL     OW10944   9.041   2.231   2.319 -0.2351 -0.4512  0.5632
  338SOL    HW110945   8.946   2.205   2.300 -0.0987 -0.1665 -0.5703
  338SOL    HW210946   9.042   2.318   2.369 -0.5748 -0.1125  0.0016
  339SOL     OW10947   8.863   1.663   1.965  0.2483  0.5388  0.2687
  339SOL    HW110948   8.962   1.667   1.953  0.3157 -0.9059  0.2596
  339SOL    HW210949   8.822   1.747   1.930  1.5155  1.3784  0.7732
  341SOL     OW10950   2.022   6.391   1.393  0.0006  0.0434 -0.2291
  341SOL    HW110951   1.929   6.392   1.357  0.0098 -1.8432 -0.3279
  341SOL    HW210952   2.083   6.348   1.326  0.6388 -0.2804  0.5550
  342SOL     OW10953   9.017   9.634   1.313 -0.5701  0.8796 -0.1903
  342SOL    HW110954   8.934   9.603   1.265 -0.3189  1.0193 -0.7217
  342SOL    HW210955   8.998   9.640   1.411 -1.5200  1.9030 -0.4127
  343SOL     OW10956   9.314   9.152   0.465  0.3542 -0.4338 -0.8363
  343SOL    HW110957   9.237   9.136   0.403 -0.0840 -1.4971 -0.0274
  343SOL    HW210958   9.322   9.250   0.483 -0.4346 -0.2572 -1.3994
  344SOL     OW10959   9.241   1.900   0.563  0.0427  0.1084  0.5342
  344SOL    HW110960   9.307   1.864   0.497  1.0705 -0.4859  1.8735
  344SOL    HW210961   9.217   1.994   0.539 -1.7447 -1.0276 -2.3152
  345SOL     OW10962   1.364   7.935   1.710 -0.2690 -0.1690  0.7303
  345SOL    HW110963   1.398   7.915   1.802  0.1984  1.3763  0.9049
  345SOL    HW210964   1.269   7.965   1.714  0.0366  0.8095  0.8192
  346SOL     OW10965   3.106   9.823   0.652 -0.0327 -0.1293  0.3566
  346SOL    HW110966   3.106   9.748   0.718 -1.3514  0.7960  1.4396
  346SOL    HW210967   3.027   9.882   0.668  0.2301  0.7312 -1.3612
  348SOL     OW10968   9.629   4.176   2.240  0.2197  0.0951 -0.2930
  348SOL    HW110969   9.560   4.247   2.253  0.6730  0.6926 -1.1225
  348SOL    HW210970   9.597   4.109   2.173  0.4765  0.4107 -0.7303
  349SOL     OW10971   8.622   0.228   1.307 -0.8386  0.0484  0.0454
  349SOL    HW110972   8.566   0.151   1.278  0.2520  0.1412 -2.3973
  349SOL    HW210973   8.563   0.305   1.333 -1.8791 -0.8975  0.4987
  353SOL     OW10974   2.296   0.755   2.007 -0.0414 -0.3566 -0.1118
  353SOL    HW110975   2.233   0.832   2.007  0.0607 -0.2750  0.0711
  353SOL    HW210976   2.338   0.745   2.097 -2.3025 -2.4549  0.7573
  354SOL     OW10977   1.462   5.136   1.457  0.1873 -0.4384  0.1894
  354SOL    HW110978   1.507   5.174   1.538  1.2127 -0.2849 -0.4345
  354SOL    HW210979   1.520   5.153   1.377 -0.2799 -1.5889 -0.3911
  355SOL     OW10980   2.404   9.106   2.094 -0.1323 -0.0581  0.9569
  355SOL    HW110981   2.428   9.071   2.184  1.2825  1.2665  1.1176
  355SOL    HW210982   2.365   9.198   2.103  2.7485  1.3227  0.0463
  356SOL     OW10983   9.506   7.131   2.220 -0.3300  0.0067  0.0780
  356SOL    HW110984   9.448   7.159   2.296 -0.1226  2.5698 -0.6417
  356SOL    HW210985   9.564   7.055   2.248 -0.7496  0.4534  2.2562
  357SOL     OW10986   2.804   2.089   1.020 -0.1252 -0.3306 -0.1459
  357SOL    HW110987   2.788   2.066   1.116  1.5166 -0.9722 -0.0075
  357SOL    HW210988   2.884   2.039   0.987 -0.5687  0.0228 -1.8043
  358SOL     OW10989   1.627   0.886   1.216 -0.1527 -0.7105  0.0466
  358SOL    HW110990   1.554   0.823   1.242  0.3967 -0.6586  1.7784
  358SOL    HW210991   1.609   0.976   1.257  1.1906 -0.8660  0.9888
  359SOL     OW10992   3.281   3.628   0.348 -0.0079  0.1159  0.2287
  359SOL    HW110993   3.245   3.721   0.337  0.7938  0.3126 -0.7865
  359SOL    HW210994   3.253   3.572   0.270  1.7407  0.2340 -0.5089
  360SOL     OW10995   3.160   9.067   1.396  0.0737  0.0302  0.3148
  360SOL    HW110996   3.248   9.036   1.432  1.2583  3.3373  0.4385
  360SOL    HW210997   3.174   9.109   1.306 -1.0913  1.9909  1.0232
  361SOL     OW10998   2.923   0.356   1.830  0.0084  0.7370  0.3017
  361SOL    HW110999   3.007   0.318   1.791 -0.3114 -0.2389  0.5544
  361SOL    HW211000   2.896   0.302   1.909 -1.5082  0.3201 -0.4769
  362SOL     OW11001   1.356   6.171   1.676 -0.1779  0.3394 -0.0979
  362SOL    HW111002   1.302   6.101   1.722 -0.1977 -0.6607 -1.6202
  362SOL    HW211003   1.300   6.253   1.662 -0.4550  0.3022  0.7997
  363SOL     OW11004   2.627   2.733   2.275 -0.1746 -0.0138  0.6708
  363SOL    HW111005   2.633   2.649   2.329 -3.6450  1.0877  2.9885
  363SOL    HW211006   2.662   2.810   2.330  0.9852  0.4130 -0.6236
  364SOL     OW11007   0.879   5.132   2.193 -0.0274 -0.2175  0.1407
  364SOL    HW111008   0.877   5.082   2.279  0.2301  0.4593  0.5436
  364SOL    HW211009   0.794   5.116   2.143  0.0122 -0.9738  0.3092
  365SOL     OW11010   1.623   8.899   1.068 -0.1253  0.1150 -0.3255
  365SOL    HW111011   1.621   8.934   1.162  0.9017 -2.8408  0.8512
  365SOL    HW211012   1.538   8.851   1.049  0.6104 -1.3193 -0.0658
  366SOL     OW11013   9.420   7.558   0.902  0.2496  0.1797  0.3818
  366SOL    HW111014   9.358   7.589   0.973  1.2692 -0.8719  1.7651
  366SOL    HW211015   9.477   7.483   0.937  0.9737 -0.1605 -1.4408
  367SOL     OW11016   4.798   3.222   1.302 -0.1562 -0.0374 -0.5504
  367SOL    HW111017   4.823   3.280   1.224 -0.5633  0.1778 -0.5236
  367SOL    HW211018   4.711   3.253   1.339  0.0990 -0.0554  0.0722
  368SOL     OW11019   0.945   5.266   1.970  0.0620 -0.1236 -0.1744
  368SOL    HW111020   0.953   5.196   2.041  0.4061 -0.1552 -0.2464
  368SOL    HW211021   0.954   5.223   1.880 -1.5614 -0.2737 -0.2894
  369SOL     OW11022   1.265   4.783   2.096 -0.3240  0.1437  0.2635
  369SOL    HW111023   1.220   4.871   2.113 -0.1613  0.3486 -0.3644
  369SOL    HW211024   1.352   4.780   2.144  0.2229  0.7952 -0.6827
  370SOL     OW11025   2.374   1.793   0.790  0.5296  0.0001  0.2545
  370SOL    HW111026   2.294   1.735   0.771 -0.4498  0.5202  2.6937
  370SOL    HW211027   2.442   1.781   0.717 -1.3455 -1.2042 -1.3186
  371SOL     OW11028   3.954   0.578   1.843 -0.4574  0.4305 -0.0695
  371SOL    HW111029   4.050   0.601   1.860 -0.0161 -0.8109 -0.8549
  371SOL    HW211030   3.908   0.561   1.931  0.2299  0.2866  0.2656
  372SOL     OW11031   7.904   9.859   1.514 -0.5510  0.0231  0.4821
  372SOL    HW111032   7.861   9.793   1.452  1.0022 -0.3107 -0.2780
  372SOL    HW211033   7.991   9.822   1.547  0.5362  1.8432 -0.2820
  373SOL     OW11034   8.931   6.209   2.106  0.8308  0.0477 -0.5441
  373SOL    HW111035   8.883   6.287   2.068  0.8435  0.3978  0.1510
  373SOL    HW211036   8.914   6.204   2.205  2.8249  0.6285 -0.1402
  374SOL     OW11037   3.598   3.815   1.154 -0.2869 -0.4943  0.1721
  374SOL    HW111038   3.535   3.738   1.140  1.9554 -1.9506 -2.5882
  374SOL    HW211039   3.672   3.809   1.087  0.6910  3.3504  0.8085
  377SOL     OW11040   0.774   8.344   1.375  0.1578 -0.2152 -0.2100
  377SOL    HW111041   0.765   8.350   1.475 -2.0850 -1.3396 -0.3140
  377SOL    HW211042   0.710   8.408   1.332  1.4894  0.6383 -0.9279
  378SOL     OW11043   3.387   3.148   1.761  0.2780  0.1150  0.2799
  378SOL    HW111044   3.403   3.177   1.667 -1.0122  1.6773  0.5215
  378SOL    HW211045   3.321   3.209   1.804 -0.5179 -1.6652  1.6490
  379SOL     OW11046   1.840   5.483   2.232 -0.4982  0.1132 -0.0968
  379SOL    HW111047   1.773   5.410   2.214  0.0054 -0.3708 -0.0349
  379SOL    HW211048   1.929   5.455   2.195  0.2297 -0.2719  1.9153
  381SOL     OW11049   8.167   8.344   0.522  0.0155  0.5433 -0.3676
  381SOL    HW111050   8.262   8.313   0.532 -0.4288 -0.9282 -0.5439
  381SOL    HW211051   8.112   8.309   0.598 -0.4809  0.9991 -0.5150
  384SOL     OW11052   2.204   8.264   1.040 -0.3413 -0.1217  0.1848
  384SOL    HW111053   2.279   8.291   0.980  1.0487 -2.2306  0.9302
  384SOL    HW211054   2.225   8.289   1.135 -0.3142 -1.2081  0.4764
  386SOL     OW11055   2.354   8.068   1.440  0.2017  0.1299  0.2905
  386SOL    HW111056   2.451   8.072   1.417 -0.0994 -2.0657 -1.4231
  386SOL    HW211057   2.330   8.149   1.494  2.7856  1.1020  0.0555
  387SOL     OW11058   2.467   2.841   1.697 -0.5776 -0.3621  0.2970
  387SOL    HW111059   2.565   2.827   1.695 -0.4676  0.4015 -0.0022
  387SOL    HW211060   2.441   2.880   1.786 -0.7554 -1.5542  0.7734
  388SOL     OW11061   2.828   6.777   0.996 -0.6711  0.4102  0.2972
  388SOL    HW111062   2.873   6.713   1.058 -1.4258  0.4474  0.8901
  388SOL    HW211063   2.872   6.866   1.002 -0.3477  0.2474  0.3235
  390SOL     OW11064   3.598   5.171   0.850  0.2838  0.0974  0.2336
  390SOL    HW111065   3.673   5.159   0.915  0.7194 -0.8177 -0.4351
  390SOL    HW211066   3.601   5.099   0.781 -0.5644  0.6836 -0.4314
  391SOL     OW11067   0.361   6.670   0.922  0.4344  0.2293 -0.5360
  391SOL    HW111068   0.368   6.574   0.949  1.2416  0.0299 -1.4243
  391SOL    HW211069   0.294   6.679   0.848 -1.0768  0.6418  0.8387
  392SOL     OW11070   2.472   9.547   1.795  0.1281 -0.6369  0.0850
  392SOL    HW111071   2.429   9.468   1.749 -0.6347 -0.1299 -0.0875
  392SOL    HW211072   2.558   9.518   1.837  0.3282 -1.3451 -0.7918
  393SOL     OW11073   3.326   0.320   0.660 -0.1806 -0.1445 -0.5170
  393SOL    HW111074   3.368   0.381   0.592 -0.5841  1.1406  0.3680
  393SOL    HW211075   3.341   0.357   0.752  0.3769 -1.8805  0.1113
  394SOL     OW11076   2.357   0.174   2.081 -0.3360  0.4521 -0.5855
  394SOL    HW111077   2.257   0.166   2.077 -0.4328 -0.3527  2.3821
  394SOL    HW211078   2.398   0.118   2.009 -1.9887 -0.4916 -0.8198
  395SOL     OW11079   1.076   9.754   1.458 -0.6994 -0.1066  0.4972
  395SOL    HW111080   1.073   9.811   1.376 -1.5984  1.5411  1.6277
  395SOL    HW211081   1.051   9.810   1.538  1.0501 -1.4475  2.0200
  396SOL     OW11082   2.757   4.633   1.257  0.1364 -0.2192  0.1943
  396SOL    HW111083   2.741   4.725   1.295 -3.5767  0.2428 -2.1551
  396SOL    HW211084   2.697   4.568   1.303 -0.6146 -0.5900 -1.2903
  397SOL     OW11085   2.618   4.235   0.852 -0.0954  0.0832  0.1593
  397SOL    HW111086   2.617   4.292   0.934 -0.3407  0.8649 -0.3785
  397SOL    HW211087   2.582   4.145   0.874  0.4271  0.0804  1.0538
  398SOL     OW11088   2.631   7.321   0.777  0.4451 -0.2815 -0.4765
  398SOL    HW111089   2.545   7.272   0.788  0.5863 -0.4424 -0.0521
  398SOL    HW211090   2.690   7.303   0.856  0.3402  0.8886 -0.1221
  399SOL     OW11091   4.288   0.880   1.247  0.5338  0.7219  0.1563
  399SOL    HW111092   4.333   0.899   1.160 -1.6446  2.3523 -0.6575
  399SOL    HW211093   4.304   0.785   1.272  0.2163 -0.1246 -2.6274
  401SOL     OW11094   1.915   6.775   0.865  0.1991 -0.0622  0.5203
  401SOL    HW111095   1.989   6.748   0.804  0.7802 -0.9789  1.6255
  401SOL    HW211096   1.827   6.758   0.820  0.6403  0.4093 -0.5309
  403SOL     OW11097   0.825   3.254   0.853 -0.4380  0.2802 -0.4788
  403SOL    HW111098   0.834   3.322   0.926  0.9992 -1.8416  1.4245
  403SOL    HW211099   0.735   3.211   0.858 -0.2456 -0.0414  0.2106
  404SOL     OW11100   7.950   0.289   1.837 -0.1038  0.2805 -0.3587
  404SOL    HW111101   7.982   0.223   1.906 -1.2733  0.3121  0.2282
  404SOL    HW211102   7.850   0.284   1.831 -0.1333  1.4792 -0.8519
  406SOL     OW11103   8.861   2.981   1.429 -0.0383  0.4500 -0.3900
  406SOL    HW111104   8.948   2.958   1.387 -0.0336  1.4872 -0.9665
  406SOL    HW211105   8.788   2.973   1.362 -0.4260 -0.6191  0.1463
  407SOL     OW11106   9.711   2.961   0.876 -0.0340 -0.6388  0.0641
  407SOL    HW111107   9.789   3.017   0.846 -1.5229  1.3005 -0.2491
  407SOL    HW211108   9.725   2.932   0.971  1.5576 -1.2125 -0.3274
  409SOL     OW11109   8.379   0.257   1.745  0.4052  0.1981  0.0601
  409SOL    HW111110   8.406   0.170   1.705  2.2966 -0.3718  2.4584
  409SOL    HW211111   8.456   0.321   1.740  0.6758  0.1197  2.6988
  410SOL     OW11112   2.487   7.256   2.011  0.4482  0.7532 -0.0073
  410SOL    HW111113   2.472   7.182   2.076 -2.4279  0.1425 -1.2622
  410SOL    HW211114   2.406   7.315   2.009  0.8821  1.3127 -2.2961
  411SOL     OW11115   1.009   7.235   2.103 -0.0083 -0.6002 -0.1928
  411SOL    HW111116   1.097   7.272   2.072 -0.0802  0.2749  0.6476
  411SOL    HW211117   1.021   7.138   2.125  0.6329 -0.6061 -0.5406
  412SOL     OW11118   0.690   6.365   2.121 -0.0845 -0.6794 -0.1818
  412SOL    HW111119   0.661   6.454   2.157 -0.4980 -0.4432 -1.0849
  412SOL    HW211120   0.775   6.337   2.166 -0.6649 -0.4662  1.0791
  414SOL     OW11121   4.261   1.425   0.322 -0.2990  0.0450  0.5050
  414SOL    HW111122   4.282   1.329   0.304  1.3078  0.4770  0.0198
  414SOL    HW211123   4.304   1.482   0.252 -2.9023  0.9949 -0.3552
  418SOL     OW11124   8.576   9.011   0.909 -0.3689  0.0612 -0.0888
  418SOL    HW111125   8.654   8.957   0.943 -0.2619  0.0109 -0.4089
  418SOL    HW211126   8.592   9.108   0.929 -1.2918 -0.1780  1.8941
  419SOL     OW11127   2.327   2.065   1.937 -0.4968  0.0883  0.2343
  419SOL    HW111128   2.398   2.013   1.983 -0.8952 -0.8792 -0.2302
  419SOL    HW211129   2.249   2.005   1.917 -1.6473  1.2384  1.1675
  420SOL     OW11130   2.722   8.231   2.116  0.3202 -0.2834  0.2390
  420SOL    HW111131   2.722   8.294   2.194  1.2387 -1.3507  1.1100
  420SOL    HW211132   2.815   8.224   2.079  0.0680 -0.5206 -0.3471
  421SOL     OW11133   0.280   2.243   0.471  0.3775 -0.2849 -1.0932
  421SOL    HW111134   0.224   2.170   0.433 -1.5797 -0.0107  1.1240
  421SOL    HW211135   0.317   2.214   0.559 -0.3412  1.3487 -0.2341
  422SOL     OW11136   2.520   8.689   1.896  0.1266  0.5702  0.6759
  422SOL    HW111137   2.447   8.755   1.879 -1.5946 -1.6784 -0.9826
  422SOL    HW211138   2.553   8.652   1.809  2.9097  1.1687  1.4308
  424SOL     OW11139  -0.037   0.665   1.925 -0.5137  0.1826 -0.1671
  424SOL    HW111140  -0.064   0.756   1.894 -1.7639 -0.7463 -1.8725
  424SOL    HW211141  -0.119   0.610   1.941  0.2916 -1.4797 -1.6926
  425SOL     OW11142   2.829   2.474   0.350  0.6142 -0.0016 -0.4683
  425SOL    HW111143   2.786   2.396   0.397  0.7460  0.3719  0.2800
  425SOL    HW211144   2.919   2.448   0.318 -0.6043 -1.1574 -3.0703
  426SOL     OW11145   0.722   1.513   1.378  0.0916 -0.4880  0.0449
  426SOL    HW111146   0.750   1.609   1.385  1.2249 -0.9014  1.3704
  426SOL    HW211147   0.776   1.458   1.442 -0.6131 -1.9977 -0.6441
  427SOL     OW11148   9.386   3.617   0.503  0.0024 -0.6944 -0.4717
  427SOL    HW111149   9.377   3.668   0.417  2.1216  0.6487  0.0658
  427SOL    HW211150   9.401   3.681   0.578 -0.0183 -1.9666  0.6321
  429SOL     OW11151   3.660   0.932   1.880  0.1602 -0.9702  0.5067
  429SOL    HW111152   3.663   0.892   1.789  0.7254 -2.2726  1.0767
  429SOL    HW211153   3.748   0.977   1.899 -0.8575  1.4942 -0.5410
  431SOL     OW11154   0.112   2.812   1.704  0.0826  0.2985  0.2623
  431SOL    HW111155   0.160   2.754   1.770 -2.0563 -1.5289  0.2520
  431SOL    HW211156   0.086   2.898   1.748 -1.7000 -1.0724  1.9751
  432SOL     OW11157   8.433   2.356   1.358  0.0048  0.0912  0.6522
  432SOL    HW111158   8.343   2.386   1.391 -1.5426  0.6186 -3.7403
  432SOL    HW211159   8.447   2.260   1.383 -1.3828  0.2477  2.1355
  433SOL     OW11160   2.107   2.747   0.659  0.4356 -0.1334 -0.4354
  433SOL    HW111161   2.151   2.659   0.646  1.6941  0.1701  1.5211
  433SOL    HW211162   2.038   2.740   0.731  1.3886  0.7490  0.5817
  435SOL     OW11163   8.607   0.241   0.635 -0.4523  0.2287 -0.3134
  435SOL    HW111164   8.692   0.254   0.585 -0.5971  1.0817 -0.3453
  435SOL    HW211165   8.597   0.145   0.659 -0.0218 -0.0561 -1.2708
  438SOL     OW11166   1.219   6.789   1.660 -0.0475  0.3598 -0.1450
  438SOL    HW111167   1.261   6.768   1.749 -0.9609  0.3761  0.2933
  438SOL    HW211168   1.270   6.863   1.617 -1.3882  2.4494  1.7332
  440SOL     OW11169   0.639   3.639   0.471  0.1987  0.3647  0.2285
  440SOL    HW111170   0.656   3.718   0.530  0.1262  0.2768  0.3669
  440SOL    HW211171   0.541   3.633   0.451  0.1845  0.2186  0.3448
  442SOL     OW11172   2.903   9.869   2.031  0.3439 -0.1961  0.0933
  442SOL    HW111173   2.930   9.965   2.024  0.9748 -0.4708 -1.3925
  442SOL    HW211174   2.816   9.863   2.080  0.2128  1.1536  0.0558
  443SOL     OW11175   3.163   3.815   0.961 -0.5342 -0.3324 -0.3380
  443SOL    HW111176   3.218   3.747   0.912  0.7734  0.1394  0.4432
  443SOL    HW211177   3.068   3.785   0.964 -0.5595 -0.5694 -2.7616
  444SOL     OW11178   1.624   5.284   0.326  0.1433  0.2197  0.7159
  444SOL    HW111179   1.587   5.336   0.403 -0.1545  0.9815  0.0675
  444SOL    HW211180   1.664   5.347   0.260  0.3775 -0.4269  0.2393
  445SOL     OW11181   1.409   4.777   1.335  0.4099  0.0038 -0.2769
  445SOL    HW111182   1.459   4.808   1.416 -0.9846  0.5773  0.3787
  445SOL    HW211183   1.422   4.842   1.260  1.0557 -0.1231 -0.2803
  446SOL     OW11184   9.872   8.815   1.124 -0.5336  0.3419 -0.2382
  446SOL    HW111185   9.853   8.760   1.206 -0.1888  1.9915  0.9792
  446SOL    HW211186   9.817   8.781   1.048  0.9732 -2.8164 -0.0217
  449SOL     OW11187   1.655   3.937   1.345 -0.0014  0.5841 -0.1953
  449SOL    HW111188   1.629   4.028   1.377 -1.9695 -0.3912  1.0216
  449SOL    HW211189   1.600   3.913   1.265 -1.2245 -0.5077  0.9501
  451SOL     OW11190   0.361   6.376   0.976 -0.3205  0.4385  0.1237
  451SOL    HW111191   0.335   6.293   0.928  1.5617  0.7195 -1.4555
  451SOL    HW211192   0.346   6.364   1.074 -1.9102 -1.0282 -0.2816
  452SOL     OW11193   1.970   1.399   0.592  0.2193 -0.4445 -0.1099
  452SOL    HW111194   2.003   1.354   0.675  0.9524 -0.6037 -0.4879
  452SOL    HW211195   1.901   1.467   0.616  1.4822  0.5474  0.7656
  453SOL     OW11196   8.671   7.026   1.227 -0.6999  0.4928 -0.5640
  453SOL    HW111197   8.638   6.984   1.142 -1.3388  0.3344 -0.2443
  453SOL    HW211198   8.679   7.125   1.214 -1.5599  0.5668 -0.5747
  454SOL     OW11199   1.287   2.467   0.716 -0.0305  0.6715  0.7628
  454SOL    HW111200   1.225   2.391   0.737 -0.5780  1.1896  1.0509
  454SOL    HW211201   1.246   2.526   0.647 -0.3147  1.5609  1.6628
  455SOL     OW11202   0.908   8.877   0.911  0.1141  0.3068  0.2461
  455SOL    HW111203   0.934   8.787   0.878 -1.4385 -0.2062  0.4269
  455SOL    HW211204   0.991   8.930   0.932  1.0152 -1.3433  0.9012
  456SOL     OW11205   9.672   3.274   0.764  0.4305  0.2910  0.4329
  456SOL    HW111206   9.725   3.223   0.697 -0.4844  2.9268 -2.4168
  456SOL    HW211207   9.574   3.256   0.750  0.1009  2.6446 -0.5707
  457SOL     OW11208   9.739   4.404   1.688 -0.9217  0.1389 -0.5930
  457SOL    HW111209   9.757   4.326   1.748 -0.7542 -0.3350 -1.2475
  457SOL    HW211210   9.649   4.393   1.645 -2.1800  1.7623  1.5289
  458SOL     OW11211   8.087   8.257   1.418  0.8898 -0.1809 -0.4629
  458SOL    HW111212   8.174   8.268   1.370  1.2164  3.1084  0.7366
  458SOL    HW211213   8.013   8.251   1.352  1.7763 -0.2269 -1.4562
  459SOL     OW11214   2.167   1.040   0.469  0.7338  0.5467 -0.6500
  459SOL    HW111215   2.201   0.950   0.442  1.4412  0.7805 -0.5498
  459SOL    HW211216   2.068   1.043   0.456  0.4182 -0.8934  1.1650
  461SOL     OW11217   9.631   6.190   0.729 -0.2845  0.1309  0.1874
  461SOL    HW111218   9.566   6.132   0.779  1.0045 -1.0579  0.5046
  461SOL    HW211219   9.688   6.240   0.794  0.4423 -0.3405 -0.0801
  463SOL     OW11220   9.703  -0.084   0.566  0.1019  0.2174  0.3795
  463SOL    HW111221   9.656  -0.022   0.629 -0.2765 -0.3734  0.6761
  463SOL    HW211222   9.793  -0.106   0.604 -0.4423 -0.7772  1.1097
  464SOL     OW11223   4.284   0.164   1.755  0.0800  0.2135 -0.1172
  464SOL    HW111224   4.248   0.197   1.668 -0.7389  0.6657  0.3793
  464SOL    HW211225   4.258   0.069   1.768 -2.0077  0.8692  0.7730
  465SOL     OW11226   2.011   2.209   0.957 -0.2577 -0.1091 -0.0955
  465SOL    HW111227   1.922   2.254   0.956  0.0170  0.4513 -1.4392
  465SOL    HW211228   2.082   2.275   0.929  0.2146 -1.2342 -1.6177
  466SOL     OW11229   1.400   0.736   0.639  0.6123  0.3477  0.5120
  466SOL    HW111230   1.389   0.716   0.541 -2.4470 -0.1428  0.9157
  466SOL    HW211231   1.375   0.831   0.657 -3.2582 -0.7840  1.4598
  467SOL     OW11232   4.289   1.484   1.373  0.4658  0.0750  0.1263
  467SOL    HW111233   4.383   1.465   1.345  0.1529  0.0874 -0.9464
  467SOL    HW211234   4.290   1.542   1.455  1.3822  0.3224 -0.0525
  468SOL     OW11235   2.479   0.024   1.414  0.1692  0.2886  0.0614
  468SOL    HW111236   2.562   0.045   1.363 -0.6133  2.2830 -0.4297
  468SOL    HW211237   2.484  -0.070   1.448  1.9138 -0.1434 -1.3022
  469SOL     OW11238   9.509   5.972   2.105  0.2672 -0.2244 -0.1877
  469SOL    HW111239   9.516   5.925   2.017 -0.4445  0.7201 -0.7488
  469SOL    HW211240   9.556   6.060   2.099  1.2918 -0.6815  0.7586
  470SOL     OW11241   3.476   3.375   1.990 -1.2494 -0.2747  0.4304
  470SOL    HW111242   3.462   3.454   2.049 -1.5203 -0.5457  0.7376
  470SOL    HW211243   3.401   3.310   2.004 -0.4192 -1.1017  1.0183
  471SOL     OW11244   1.135   0.336   1.886 -0.3744 -0.0521 -0.3051
  471SOL    HW111245   1.206   0.367   1.823  1.0746 -0.4711  1.0991
  471SOL    HW211246   1.177   0.297   1.967 -2.2211  0.1474  0.7741
  474SOL     OW11247   0.929   4.676   0.402 -0.0186 -0.7852 -0.2475
  474SOL    HW111248   0.964   4.702   0.313 -0.9400 -1.9101 -0.9613
  474SOL    HW211249   0.940   4.751   0.466  0.9568 -0.0900 -1.2240
  475SOL     OW11250   1.604   7.195   0.489  0.1207  0.0555 -0.6390
  475SOL    HW111251   1.555   7.248   0.421  0.0994 -0.1601 -0.7929
  475SOL    HW211252   1.587   7.233   0.580  0.3055  0.4639 -0.7715
  476SOL     OW11253   7.457   0.078   1.026  0.3228 -0.5370 -0.3298
  476SOL    HW111254   7.421   0.116   1.111 -1.0927 -0.6746 -0.8548
  476SOL    HW211255   7.543   0.123   1.003 -1.1304  2.1185 -0.7302
  478SOL     OW11256   1.740   6.767   0.446  0.1276  0.2327  0.0600
  478SOL    HW111257   1.752   6.817   0.359  0.3869  2.0275  1.0995
  478SOL    HW211258   1.822   6.713   0.464  0.4685  0.6131 -0.3274
  479SOL     OW11259   1.401   1.639   1.777 -0.4509  0.4255  0.2361
  479SOL    HW111260   1.478   1.622   1.715  1.4402  2.2903  1.9964
  479SOL    HW211261   1.343   1.557   1.780  1.1730 -0.8542 -1.5064
  480SOL     OW11262   4.107   9.420   1.656 -0.0640  0.5669 -0.5083
  480SOL    HW111263   4.066   9.362   1.726  0.4321  0.7996 -0.0213
  480SOL    HW211264   4.102   9.516   1.684 -0.5899  0.7345 -1.1622
  481SOL     OW11265   9.136   1.636   1.957 -1.3324 -0.2799  0.3813
  481SOL    HW111266   9.181   1.551   1.984 -1.9416 -0.6354  0.2805
  481SOL    HW211267   9.138   1.701   2.034 -0.8313 -0.3704  0.4426
  482SOL     OW11268   8.799   4.636   1.185  1.2996  0.3128  0.0811
  482SOL    HW111269   8.879   4.653   1.242  0.8078  0.4347  0.7424
  482SOL    HW211270   8.792   4.708   1.116  1.3892  0.6744  0.4436
  483SOL     OW11271   0.237   3.557   0.812 -0.3944  0.9285  0.4572
  483SOL    HW111272   0.205   3.486   0.749  0.6453  0.5556  0.3377
  483SOL    HW211273   0.333   3.579   0.791 -0.3594  1.5323  1.2448
  484SOL     OW11274   1.855   4.236   0.950  0.3090 -0.2316 -0.3236
  484SOL    HW111275   1.788   4.168   0.983 -0.0404  1.2067  2.1079
  484SOL    HW211276   1.890   4.208   0.861 -1.2762 -2.5941 -0.2614
  488SOL     OW11277   9.339   4.826   0.438 -0.1883  0.4852 -1.2126
  488SOL    HW111278   9.321   4.818   0.536  0.5860 -0.4409 -1.1409
  488SOL    HW211279   9.270   4.885   0.396 -0.4108  1.0363 -0.0790
  489SOL     OW11280   0.025   3.380   1.850  0.3789  0.7676 -0.1983
  489SOL    HW111281  -0.055   3.438   1.863 -0.3569 -0.1188 -0.6760
  489SOL    HW211282   0.046   3.332   1.935 -0.4157 -0.0146 -0.4376
  491SOL     OW11283   4.436   4.208   1.676 -0.3095 -0.4445 -0.2966
  491SOL    HW111284   4.435   4.302   1.643 -0.7758 -0.5154 -0.4812
  491SOL    HW211285   4.364   4.155   1.631  2.2806 -1.8456 -2.9211
  492SOL     OW11286   9.527   8.012   0.489  0.3337 -0.4317 -0.1587
  492SOL    HW111287   9.459   7.996   0.417 -0.3641  0.6343  0.2394
  492SOL    HW211288   9.495   7.971   0.574 -1.1379  2.3618  0.6967
  493SOL     OW11289   9.292   8.798   1.225  0.0846  0.4973 -0.1847
  493SOL    HW111290   9.303   8.741   1.143 -0.5462 -0.1216  0.1583
  493SOL    HW211291   9.333   8.752   1.303 -1.1601  0.1163  0.2604
  494SOL     OW11292   2.594   5.101   1.712 -0.5963 -0.1911  0.6532
  494SOL    HW111293   2.619   5.196   1.729 -0.2919 -0.0865 -0.3833
  494SOL    HW211294   2.623   5.045   1.790 -0.1489  0.4572  0.9568
  495SOL     OW11295   3.260   9.310   0.496  0.4378 -0.4028 -0.2201
  495SOL    HW111296   3.289   9.220   0.464 -1.3984 -1.4257  0.8970
  495SOL    HW211297   3.186   9.344   0.438 -1.5394 -1.3806  1.6732
  496SOL     OW11298   3.562   5.028   1.116 -0.2790 -0.0241 -0.0520
  496SOL    HW111299   3.468   4.992   1.116  0.0393 -0.8838  0.4188
  496SOL    HW211300   3.626   4.952   1.102  0.4198  0.3055  1.3006
  497SOL     OW11301   2.618   9.763   1.574  0.0368 -0.2205 -0.2302
  497SOL    HW111302   2.526   9.740   1.605  0.6039 -0.1256  1.5802
  497SOL    HW211303   2.667   9.811   1.647  0.7627  1.7486 -1.9764
  498SOL     OW11304   0.383   2.472   1.340 -0.6140 -0.2172 -0.1169
  498SOL    HW111305   0.393   2.459   1.439 -0.5932  1.1442  0.0724
  498SOL    HW211306   0.339   2.561   1.323  2.0853  0.9003 -1.4107
  499SOL     OW11307   9.179   2.141   2.072 -0.0423 -0.1818  0.2000
  499SOL    HW111308   9.153   2.211   2.138 -2.0156  0.3821 -1.1348
  499SOL    HW211309   9.275   2.153   2.047  0.9320 -0.7635  3.3539
  502SOL     OW11310   0.880   0.636   0.779 -0.5450 -0.0072 -0.0637
  502SOL    HW111311   0.885   0.662   0.682 -1.8213 -2.3298 -0.7753
  502SOL    HW211312   0.927   0.549   0.792  1.0471  1.0938  1.7384
  503SOL     OW11313   8.471   1.756   1.257 -0.5460 -0.2125 -0.0367
  503SOL    HW111314   8.519   1.668   1.248 -1.0789 -0.6332  1.0764
  503SOL    HW211315   8.489   1.793   1.348 -2.6706 -0.5817  0.5530
  505SOL     OW11316   3.054   1.269   1.482 -0.2264  0.7069 -0.1216
  505SOL    HW111317   3.002   1.332   1.539  1.5682  1.9487  0.2073
  505SOL    HW211318   3.151   1.272   1.509  0.2880 -0.3344 -1.7754
  506SOL     OW11319   1.195   4.857   0.637 -0.1471 -0.3799 -0.2188
  506SOL    HW111320   1.103   4.871   0.602 -1.3485 -0.2961  2.7834
  506SOL    HW211321   1.252   4.936   0.615 -1.6803  0.9684  0.5483
  507SOL     OW11322   9.575   3.576   0.999  0.1326 -0.2262 -0.0650
  507SOL    HW111323   9.668   3.577   0.962  0.4918 -2.0173  0.7192
  507SOL    HW211324   9.529   3.492   0.968 -0.7253 -0.0500  0.7346
  508SOL     OW11325   9.278   9.053   1.299 -0.2674  0.2407  0.4012
  508SOL    HW111326   9.265   9.040   1.398 -1.5075 -1.2941  0.0512
  508SOL    HW211327   9.275   8.964   1.253 -1.2670  1.0989 -1.2123
  510SOL     OW11328   3.822   3.013   2.226  0.3634 -0.6127  0.3398
  510SOL    HW111329   3.824   3.106   2.190 -0.3688 -0.8610 -0.3750
  510SOL    HW211330   3.850   2.949   2.154 -0.7465 -1.0863  0.3051
  512SOL     OW11331   0.928   4.559   1.266 -0.6247  0.1450  0.0130
  512SOL    HW111332   0.829   4.554   1.256 -0.7136 -1.9258  1.5158
  512SOL    HW211333   0.971   4.490   1.208 -0.0743  0.8316 -0.4004
  515SOL     OW11334   8.557   9.433   2.208 -0.0100  0.4178  0.1505
  515SOL    HW111335   8.495   9.419   2.131 -0.3199 -1.0062  0.6376
  515SOL    HW211336   8.651   9.414   2.179  0.0176  1.0964 -0.1972
  516SOL     OW11337   2.643   4.329   0.593  0.2261 -0.4840  0.0201
  516SOL    HW111338   2.740   4.306   0.591  0.1414 -0.8394 -0.1727
  516SOL    HW211339   2.600   4.287   0.673  0.2550 -0.2362  0.1641
  517SOL     OW11340   1.680   2.613   1.957  0.6000  0.2012  0.2244
  517SOL    HW111341   1.760   2.606   2.018 -0.6858  3.9758  2.5722
  517SOL    HW211342   1.694   2.690   1.894 -1.2087  0.9976  0.7708
  518SOL     OW11343   2.259   8.491   0.693  0.6018  0.0433 -0.4036
  518SOL    HW111344   2.217   8.428   0.628  2.3567 -0.5070 -1.0230
  518SOL    HW211345   2.277   8.578   0.647  1.8871 -0.3631 -0.6728
  519SOL     OW11346   0.615   1.535   0.348 -0.3015  0.9238  0.0775
  519SOL    HW111347   0.672   1.610   0.314 -1.5002  2.2685  0.9670
  519SOL    HW211348   0.520   1.566   0.354 -0.8766 -0.8046  0.0701
  522SOL     OW11349   8.784   2.705   1.237  0.2433  0.0948  0.4196
  522SOL    HW111350   8.734   2.791   1.252 -1.2744 -0.6636 -0.1742
  522SOL    HW211351   8.865   2.723   1.181 -0.0959  1.1323  0.2490
  523SOL     OW11352   2.342   2.387   1.909  0.7002  0.1702  0.8911
  523SOL    HW111353   2.343   2.296   1.949  0.4796 -0.5828 -0.7707
  523SOL    HW211354   2.360   2.455   1.980 -2.3011 -0.9110  2.8001
  524SOL     OW11355   9.169   5.821   1.362 -0.2360 -0.2523  0.4299
  524SOL    HW111356   9.112   5.888   1.410  0.4658  0.4099  0.3444
  524SOL    HW211357   9.230   5.776   1.427  0.2675  0.1890  0.2688
  525SOL     OW11358   1.350   5.222   0.796  0.5879  0.3751  0.5400
  525SOL    HW111359   1.372   5.320   0.795  0.7187  0.3617  1.9084
  525SOL    HW211360   1.252   5.210   0.810  0.6013  0.3042  0.5710
  526SOL     OW11361   8.097  -0.039   1.965 -0.3698 -0.2016  0.4491
  526SOL    HW111362   8.109   0.053   2.002 -1.0412 -0.5213  1.4781
  526SOL    HW211363   8.177  -0.095   1.988 -0.6441 -0.3084  1.1457
  528SOL     OW11364   0.004   3.510   0.648  0.0895  0.6150  0.0418
  528SOL    HW111365   0.022   3.419   0.685 -0.1964  0.8014  0.6512
  528SOL    HW211366  -0.054   3.503   0.568 -1.5836  0.4007  1.2556
  529SOL     OW11367   3.121   8.108   0.912  0.1538 -0.1492  0.4075
  529SOL    HW111368   3.051   8.037   0.925  0.0722 -0.1896 -0.2180
  529SOL    HW211369   3.185   8.107   0.989  0.0844 -0.8272  0.4585
  530SOL     OW11370   3.387   3.748   0.578 -0.3678 -0.0544  0.2388
  530SOL    HW111371   3.387   3.846   0.557  0.4986  0.1332  1.1058
  530SOL    HW211372   3.351   3.697   0.499 -1.8402  1.0345  0.1833
  531SOL     OW11373   5.026   3.274   1.519  0.4751 -0.0022 -0.4244
  531SOL    HW111374   5.041   3.366   1.556  3.2795 -0.0704 -1.2888
  531SOL    HW211375   4.951   3.277   1.452  0.4704  1.6368 -0.3703
  532SOL     OW11376   2.320   8.989   1.282 -0.2416  0.5743 -0.1764
  532SOL    HW111377   2.370   8.965   1.365 -2.1185 -0.7117  0.6264
  532SOL    HW211378   2.364   8.947   1.203  1.3580  1.5229  0.1920
  533SOL     OW11379   8.345  -0.100   1.592  0.0855 -0.7512  0.2911
  533SOL    HW111380   8.423  -0.069   1.645  0.2670  0.4349 -0.6528
  533SOL    HW211381   8.273  -0.030   1.593 -0.8243 -1.6782  0.8557
  534SOL     OW11382   2.024   7.253   0.597  0.1692 -0.0129 -0.1259
  534SOL    HW111383   2.028   7.205   0.509 -0.5709  0.0725 -0.2090
  534SOL    HW211384   1.993   7.190   0.668  1.5961 -0.3051  0.2386
  535SOL     OW11385   8.916   6.776   0.873  0.1604  0.0232  0.2806
  535SOL    HW111386   8.990   6.843   0.866 -1.2817  1.3722 -2.9024
  535SOL    HW211387   8.830   6.823   0.891 -0.8018 -0.9704 -1.5789
  536SOL     OW11388   0.984   5.311   1.155 -0.1868 -0.0536  0.1746
  536SOL    HW111389   1.083   5.322   1.145 -0.1753 -1.5268 -1.6547
  536SOL    HW211390   0.965   5.219   1.190 -0.9142  0.3770  0.9380
  537SOL     OW11391   7.751   8.948   1.237  0.1759  0.8223 -0.2120
  537SOL    HW111392   7.732   8.903   1.325 -0.1265 -1.3563 -1.3611
  537SOL    HW211393   7.807   8.888   1.180  2.9122  3.4668 -0.3994
  538SOL     OW11394   2.584   2.253   1.295  0.9290  0.3815  0.3475
  538SOL    HW111395   2.641   2.171   1.284  1.4098  0.9357 -1.4227
  538SOL    HW211396   2.538   2.250   1.383  2.4011 -0.9026  1.0908
  539SOL     OW11397   1.195   2.161   1.441 -0.1299 -0.2427  0.0437
  539SOL    HW111398   1.233   2.242   1.397 -0.1967 -0.1203  0.2124
  539SOL    HW211399   1.265   2.089   1.443  0.0589 -0.0538  0.2608
  540SOL     OW11400   0.155   0.933   1.819 -0.0189 -0.0521  0.2005
  540SOL    HW111401   0.080   0.964   1.877  0.1083  0.1377  0.2640
  540SOL    HW211402   0.193   0.849   1.857 -0.0680 -0.0394  0.2794
  541SOL     OW11403   0.603   1.255   0.360 -0.3914  0.1934 -0.4961
  541SOL    HW111404   0.610   1.258   0.260  0.7154  1.2284 -0.4108
  541SOL    HW211405   0.561   1.340   0.393  2.1558  1.2870  0.0938
  542SOL     OW11406   9.676   6.694   2.169 -0.0262 -0.6520 -0.6972
  542SOL    HW111407   9.762   6.672   2.215  0.0457  0.1131 -0.4653
  542SOL    HW211408   9.693   6.715   2.073  0.0354 -0.5457 -0.6621
  545SOL     OW11409   9.831   8.878   0.347  0.3596 -0.1167  0.1947
  545SOL    HW111410   9.824   8.837   0.438 -0.2256  0.3519  0.3590
  545SOL    HW211411   9.867   8.971   0.356 -1.9698  0.8165  0.1692
  546SOL     OW11412   1.407   8.139   0.370 -0.2882  0.1528 -0.8523
  546SOL    HW111413   1.494   8.174   0.405  0.1941 -1.3604 -0.4785
  546SOL    HW211414   1.420   8.046   0.336 -1.9891 -0.5280  0.2452
  547SOL     OW11415   9.844   4.002   1.717  0.0705 -0.1635  0.2840
  547SOL    HW111416   9.892   3.923   1.753 -1.8365 -1.1561  0.7432
  547SOL    HW211417   9.836   4.072   1.788  0.2596 -0.2753  0.4125
  548SOL     OW11418   3.108   9.038   0.634 -0.4936  0.3426  0.2693
  548SOL    HW111419   3.041   9.097   0.589  0.4824 -0.1500 -1.8690
  548SOL    HW211420   3.199   9.054   0.595  0.1770 -0.9363  1.2605
  549SOL     OW11421   4.373   3.738   1.404  0.1168  0.2551 -0.1606
  549SOL    HW111422   4.277   3.764   1.414  0.3278  1.1072 -0.2715
  549SOL    HW211423   4.395   3.665   1.469 -0.6248 -0.0147 -0.2046
  550SOL     OW11424   7.870   9.261   0.598  0.0621 -0.2620 -0.1086
  550SOL    HW111425   7.782   9.213   0.599  0.3631 -0.8193  0.5538
  550SOL    HW211426   7.942   9.198   0.628  0.8401 -0.0904 -1.5577
  552SOL     OW11427   1.590   1.908   0.495  0.0242  0.7033  0.0176
  552SOL    HW111428   1.600   1.864   0.584  1.9192  0.3150 -0.3673
  552SOL    HW211429   1.594   1.839   0.423  1.9977  1.3860 -0.5387
  553SOL     OW11430   9.676   5.205   2.240  0.2158 -0.1325  0.1820
  553SOL    HW111431   9.687   5.171   2.333  0.4334  1.5224  0.7794
  553SOL    HW211432   9.748   5.271   2.220 -0.4409  0.2938 -0.7980
  555SOL     OW11433   3.914   4.707   0.576  0.2670 -0.5148 -0.4090
  555SOL    HW111434   3.841   4.770   0.551 -0.6229 -1.9267 -1.4483
  555SOL    HW211435   4.003   4.745   0.548 -0.3985 -0.4546 -2.5190
  556SOL     OW11436   2.516   7.773   1.544 -0.2381 -0.0476 -0.0457
  556SOL    HW111437   2.471   7.808   1.626  3.0633  1.0151  1.3813
  556SOL    HW211438   2.556   7.684   1.564 -3.5292 -2.0696 -1.9745
  557SOL     OW11439   3.616   4.208   1.561 -0.0959 -0.2337  0.2535
  557SOL    HW111440   3.652   4.235   1.472 -1.5589 -0.3074 -0.3813
  557SOL    HW211441   3.516   4.209   1.558 -0.1652 -1.7048  1.4509
  558SOL     OW11442   2.875   7.577   0.733 -0.0764 -0.3212  0.0334
  558SOL    HW111443   2.799   7.517   0.707  0.2773 -1.7244  2.1190
  558SOL    HW211444   2.838   7.662   0.771 -0.6048 -0.2685 -0.5960
  560SOL     OW11445   8.101   9.178   0.386  0.0341 -0.0257  0.0061
  560SOL    HW111446   8.047   9.262   0.391  0.3735  0.1790  0.2545
  560SOL    HW211447   8.155   9.168   0.469  0.8487  0.0960 -0.5017
  562SOL     OW11448   2.589   3.633   0.618 -0.0466  0.4302 -0.0654
  562SOL    HW111449   2.588   3.731   0.638 -1.9173  0.6356 -1.0347
  562SOL    HW211450   2.574   3.619   0.520 -1.4389 -0.8837  0.3259
  563SOL     OW11451   3.741   3.622   1.827 -1.0967 -0.2589  0.1680
  563SOL    HW111452   3.648   3.649   1.803 -0.7098  0.4840 -0.5572
  563SOL    HW211453   3.777   3.562   1.756 -0.5744  0.5089 -0.2359
  564SOL     OW11454   0.766   9.206   1.606 -0.2974 -0.1123 -0.0575
  564SOL    HW111455   0.719   9.183   1.521  0.2797 -0.4646 -0.2809
  564SOL    HW211456   0.699   9.211   1.681 -0.6574 -0.8791 -0.3233
  565SOL     OW11457   1.850   0.018   0.845  0.6932 -0.4201  0.0131
  565SOL    HW111458   1.846   0.088   0.916  2.8320 -0.7781  0.5380
  565SOL    HW211459   1.925   0.038   0.782  1.7970 -2.5115  0.5631
  566SOL     OW11460   1.521   8.572   1.562  0.2443  0.2360 -0.2023
  566SOL    HW111461   1.482   8.577   1.471 -0.2868  0.1883  0.0216
  566SOL    HW211462   1.450   8.551   1.628  0.5527  0.6526  0.2741
  568SOL     OW11463   3.686   7.911   0.959 -0.1139  0.1640 -0.5770
  568SOL    HW111464   3.627   7.952   1.028 -0.6581 -0.0904 -0.8915
  568SOL    HW211465   3.773   7.885   1.001 -1.3125 -2.1230  0.5313
  569SOL     OW11466   0.621   6.592   0.606 -0.1971 -0.4778  0.4974
  569SOL    HW111467   0.667   6.681   0.601  2.0436 -1.5585  1.4463
  569SOL    HW211468   0.603   6.570   0.702 -4.1955  0.6388  0.0911
  570SOL     OW11469   9.204   4.750   1.057  0.3756  0.0916 -0.5993
  570SOL    HW111470   9.111   4.755   1.020 -0.4380  0.8152  1.4559
  570SOL    HW211471   9.213   4.670   1.116  0.9456  0.2390 -0.4824
  571SOL     OW11472   9.458   4.396   2.269 -0.0014 -0.0434  0.6155
  571SOL    HW111473   9.428   4.413   2.363 -0.7447 -0.9917  0.5593
  571SOL    HW211474   9.378   4.392   2.209  0.3610 -0.9335  0.1915
  572SOL     OW11475   2.730   0.474   2.176 -0.2694  0.0728 -0.2492
  572SOL    HW111476   2.792   0.466   2.255 -1.8067  0.5067  1.0282
  572SOL    HW211477   2.698   0.569   2.168  1.0545  0.3822 -2.3373
  573SOL     OW11478   2.508   0.831   0.597  0.2538 -0.0899  0.3620
  573SOL    HW111479   2.512   0.734   0.620 -1.4834  0.0330  1.2274
  573SOL    HW211480   2.460   0.843   0.510 -0.8493  0.0915  0.9861
  574SOL     OW11481   1.717   6.997   2.045 -0.3198 -0.0966  0.7410
  574SOL    HW111482   1.748   7.083   2.004  0.6443  0.2352  2.1125
  574SOL    HW211483   1.727   7.003   2.145 -1.3225 -1.3811  0.9220
  575SOL     OW11484   1.453   7.775   1.939 -0.3394  0.4261 -0.2809
  575SOL    HW111485   1.424   7.680   1.931 -0.1454  0.2765  0.6878
  575SOL    HW211486   1.422   7.812   2.027 -0.1844  1.1750 -0.5355
  577SOL     OW11487   1.388   4.350   1.011 -0.1022  0.4367 -0.1951
  577SOL    HW111488   1.423   4.296   0.934  2.0201  0.3475  0.8128
  577SOL    HW211489   1.405   4.447   0.994  0.9651  0.3703  0.4345
  578SOL     OW11490   2.421   5.890   0.829  0.3422  0.3273 -0.3373
  578SOL    HW111491   2.355   5.875   0.903  0.8602  0.0670  0.0703
  578SOL    HW211492   2.415   5.814   0.764 -0.9561  1.1444 -1.2043
  579SOL     OW11493   0.384   9.224   0.800  0.1458  0.0767  0.5024
  579SOL    HW111494   0.474   9.253   0.832  0.6975  0.9990 -1.7960
  579SOL    HW211495   0.391   9.135   0.755 -0.1699 -0.0385  0.6771
  580SOL     OW11496   9.429   1.837   0.386  0.1753  0.1060  0.0414
  580SOL    HW111497   9.441   1.903   0.312 -0.9623  1.1491  0.7634
  580SOL    HW211498   9.373   1.761   0.355 -1.2432  1.0958  0.1377
  581SOL     OW11499   1.618   4.754   0.786  0.3836 -0.0241 -0.1870
  581SOL    HW111500   1.580   4.683   0.728 -0.8907 -1.2397  2.0616
  581SOL    HW211501   1.549   4.783   0.853  1.2516  2.5332 -0.3255
  582SOL     OW11502   0.819   9.168   2.139  0.2029 -0.4822 -0.5540
  582SOL    HW111503   0.860   9.172   2.230 -0.5897  1.9335 -0.2509
  582SOL    HW211504   0.730   9.123   2.144 -0.1138  0.2021 -0.0158
  583SOL     OW11505   0.557   0.866   2.233  0.3228 -0.0055 -0.1121
  583SOL    HW111506   0.592   0.835   2.321 -0.8561 -0.8063  0.0898
  583SOL    HW211507   0.533   0.787   2.177 -0.5901  0.5226 -0.4755
  584SOL     OW11508   0.403   9.056   2.302 -0.5417 -0.1970  0.0130
  584SOL    HW111509   0.349   9.138   2.283  0.5533  0.7992  1.1071
  584SOL    HW211510   0.486   9.057   2.245 -0.6973 -0.7276 -0.2257
  585SOL     OW11511   0.905   6.284   0.391  0.1004 -0.0661 -0.3022
  585SOL    HW111512   0.965   6.214   0.429  0.5726 -0.3696 -1.5934
  585SOL    HW211513   0.916   6.369   0.444  2.2047  0.0965 -0.9580
  586SOL     OW11514   3.809   0.590   1.298  0.4672  0.1315 -0.0622
  586SOL    HW111515   3.815   0.617   1.394  0.2207  0.9296 -0.2699
  586SOL    HW211516   3.714   0.577   1.273  0.4902  0.6508 -0.4043
  587SOL     OW11517   4.333   4.362   0.557 -0.8112 -0.2142 -0.3656
  587SOL    HW111518   4.429   4.390   0.564 -0.9973 -0.1125  2.1115
  587SOL    HW211519   4.325   4.283   0.496  0.6477  0.6525 -1.7142
  588SOL     OW11520   2.095   3.433   1.712  0.6379  0.4113  0.0722
  588SOL    HW111521   2.045   3.412   1.796  0.1743  1.9389  0.1916
  588SOL    HW211522   2.115   3.348   1.663 -1.6795 -0.2602  0.2365
  589SOL     OW11523   1.296   1.267   1.179 -0.1531 -0.0756  0.6116
  589SOL    HW111524   1.395   1.280   1.192 -0.1463  0.9863 -0.3333
  589SOL    HW211525   1.263   1.335   1.113 -1.3341 -1.0810  0.1620
  590SOL     OW11526   0.880   3.955   2.008 -0.7569 -0.0673 -0.5449
  590SOL    HW111527   0.791   4.001   2.005 -0.4969  0.4895  0.3634
  590SOL    HW211528   0.952   4.022   2.021  0.0439 -0.2333 -3.5901
  592SOL     OW11529   2.380   3.365   1.134 -0.2110 -0.3516  0.6260
  592SOL    HW111530   2.335   3.399   1.052 -1.8761 -3.0472  0.3547
  592SOL    HW211531   2.475   3.397   1.136 -0.4866  0.7047 -1.7478
  593SOL     OW11532   2.591   3.063   1.141  0.1301 -0.1480  0.0448
  593SOL    HW111533   2.568   2.966   1.145 -0.7857  0.0429 -0.4970
  593SOL    HW211534   2.623   3.094   1.231 -1.6841 -0.4317  0.8158
  594SOL     OW11535   1.239   1.880   0.368  0.0594  0.1147  0.0049
  594SOL    HW111536   1.206   1.906   0.459  0.6202 -1.1920  0.6004
  594SOL    HW211537   1.230   1.957   0.305  1.8942  1.8404  1.7731
  595SOL     OW11538   9.625   3.507   0.624 -0.8257  0.0084  0.1359
  595SOL    HW111539   9.615   3.428   0.685 -0.1427  0.0130  0.2511
  595SOL    HW211540   9.538   3.522   0.576 -1.0870 -0.5568  0.4186
  596SOL     OW11541   3.086   0.643   1.819 -0.0034 -0.4140 -0.3060
  596SOL    HW111542   3.146   0.723   1.825  0.6741 -1.0016  0.9098
  596SOL    HW211543   3.129   0.573   1.762 -0.1623 -0.2922 -0.5763
  598SOL     OW11544   2.583   3.911   0.670 -0.4156 -0.4857 -0.0944
  598SOL    HW111545   2.598   3.959   0.756 -0.9957 -1.5331  0.6144
  598SOL    HW211546   2.648   3.942   0.601 -0.0265  0.4442  0.6955
  599SOL     OW11547   0.774   7.742   0.735 -0.2246 -0.0543  0.0903
  599SOL    HW111548   0.778   7.702   0.643 -0.2121  0.0739  0.0349
  599SOL    HW211549   0.852   7.803   0.748 -0.0814 -0.2783  0.2836
  600SOL     OW11550   9.323   7.112   0.689 -0.1729  0.1070 -0.3450
  600SOL    HW111551   9.328   7.191   0.749 -2.1724 -0.8615  1.1900
  600SOL    HW211552   9.378   7.037   0.727 -1.3187 -0.4592  0.2208
  601SOL     OW11553   0.808   2.820   1.017 -0.2850 -0.1266 -0.2871
  601SOL    HW111554   0.905   2.803   1.033 -0.4000 -0.7761 -0.2349
  601SOL    HW211555   0.786   2.915   1.037  0.4422  0.1468 -0.7990
  602SOL     OW11556   8.845   9.183   1.397  0.1363  0.4478  0.3917
  602SOL    HW111557   8.770   9.182   1.464 -0.8876  2.6420 -0.6765
  602SOL    HW211558   8.889   9.273   1.398  2.2434 -0.5478  0.4047
  603SOL     OW11559   3.304   5.134   2.301  0.1644 -0.1517 -0.1437
  603SOL    HW111560   3.381   5.081   2.337  0.8291  0.8476 -0.0608
  603SOL    HW211561   3.284   5.210   2.364 -2.7202 -2.0241  1.2805
  604SOL     OW11562   9.577   0.897   2.027 -0.1681 -0.1487 -0.2422
  604SOL    HW111563   9.664   0.930   2.063 -0.7071  1.6902 -0.5785
  604SOL    HW211564   9.526   0.850   2.099 -0.1231  1.2369  0.7012
  605SOL     OW11565   9.466   1.290   0.687  0.3992  0.4108  0.1382
  605SOL    HW111566   9.427   1.376   0.653  0.6679  0.6463  0.4316
  605SOL    HW211567   9.543   1.264   0.629 -0.6019 -0.4024 -0.8542
  606SOL     OW11568   3.824   4.130   1.779  0.2106 -0.2383  0.5723
  606SOL    HW111569   3.780   4.052   1.736 -1.3773  1.0767 -0.2494
  606SOL    HW211570   3.767   4.212   1.768  2.5594  1.3963  0.0364
  607SOL     OW11571   7.901   0.452   0.879  0.5573  0.3486  0.4931
  607SOL    HW111572   7.962   0.511   0.931 -1.3652  1.0348  2.0229
  607SOL    HW211573   7.845   0.507   0.818  0.9218 -0.1978 -0.3367
  608SOL     OW11574   0.104   6.520   1.999 -0.0707  0.3703 -0.3571
  608SOL    HW111575   0.121   6.606   2.047  0.6805 -1.3333  2.5451
  608SOL    HW211576   0.192   6.480   1.972 -0.2251 -0.8763  0.9063
  609SOL     OW11577   3.441   4.576   0.482  0.2674 -0.0893  0.6629
  609SOL    HW111578   3.535   4.545   0.473  0.0803 -0.9188  1.5409
  609SOL    HW211579   3.417   4.587   0.578 -0.4942  0.2639  0.4459
  610SOL     OW11580   1.924   0.705   0.639 -0.1870 -0.3945  0.3527
  610SOL    HW111581   1.826   0.691   0.654 -0.1808  0.4851  1.2802
  610SOL    HW211582   1.941   0.801   0.618  0.9263  0.4311  4.4252
  611SOL     OW11583   9.618   5.470   1.905  0.2618 -0.2824 -0.1636
  611SOL    HW111584   9.559   5.476   1.825  0.4116 -0.6795 -0.3031
  611SOL    HW211585   9.568   5.427   1.980  0.8627 -2.0108 -0.7474
  613SOL     OW11586   3.610   8.752   0.360  0.9939  0.3869 -0.4662
  613SOL    HW111587   3.692   8.695   0.357  0.0753 -0.9109 -1.4536
  613SOL    HW211588   3.599   8.798   0.272 -2.2681 -3.7091 -2.3344
  614SOL     OW11589   3.606   0.548   0.385  0.0867 -0.5507  0.4155
  614SOL    HW111590   3.553   0.467   0.407 -0.6409 -0.0133  0.6543
  614SOL    HW211591   3.664   0.530   0.305 -0.2896 -1.1984  0.2901
  616SOL     OW11592   1.659   9.615   2.046 -0.2735  0.0069  0.0131
  616SOL    HW111593   1.690   9.531   2.002 -0.2970  0.4698 -0.9087
  616SOL    HW211594   1.616   9.674   1.977 -2.6945 -0.3837  1.1368
  617SOL     OW11595   8.919   0.811   2.008  0.0154 -0.4467 -0.6333
  617SOL    HW111596   8.856   0.878   2.047  1.1885  0.9316 -1.0670
  617SOL    HW211597   8.995   0.797   2.071  1.0124  0.4635 -1.6288
  618SOL     OW11598   9.690   7.943   1.871 -0.0271 -0.1924  0.1393
  618SOL    HW111599   9.735   7.878   1.932  0.1503  0.6976  0.9509
  618SOL    HW211600   9.599   7.964   1.906 -0.6863 -1.1816 -0.9453
  619SOL     OW11601   1.747   3.093   1.909  0.2799 -0.4075  0.2102
  619SOL    HW111602   1.752   3.102   2.009 -0.0705  0.5190  0.1546
  619SOL    HW211603   1.711   3.178   1.871  0.0754 -0.8979 -0.6802
  620SOL     OW11604   3.181   4.096   1.977  0.0219  0.0056  0.0796
  620SOL    HW111605   3.216   4.190   1.982 -2.6569  1.0577 -0.2016
  620SOL    HW211606   3.197   4.059   1.886 -0.2724  0.7265 -0.2641
  621SOL     OW11607   1.284   5.308   1.785  0.0967 -0.4180 -0.2825
  621SOL    HW111608   1.374   5.297   1.827  1.0020 -0.2631 -2.1205
  621SOL    HW211609   1.234   5.380   1.832  1.5163  0.5094 -0.1445
  622SOL     OW11610   1.153   5.061   2.138 -0.0079  0.2345  0.2620
  622SOL    HW111611   1.197   5.149   2.128 -0.4156  0.2818 -1.2431
  622SOL    HW211612   1.054   5.074   2.151  0.2204  0.0790  2.2327
  624SOL     OW11613   2.252   8.480   1.701  0.3439 -0.5775 -0.5710
  624SOL    HW111614   2.281   8.440   1.788 -0.6094 -1.1332 -0.4999
  624SOL    HW211615   2.332   8.493   1.642  1.0337  0.0898  0.4956
  625SOL     OW11616   9.259   6.823   0.517  0.3235  0.0053  0.4336
  625SOL    HW111617   9.259   6.775   0.604 -0.4855  0.1987  0.5470
  625SOL    HW211618   9.181   6.886   0.513  0.3140 -0.0455 -0.4478
  626SOL     OW11619   9.178   3.625   2.229 -0.6849 -0.0359  0.0140
  626SOL    HW111620   9.193   3.526   2.230 -0.0147  0.0590 -0.3970
  626SOL    HW211621   9.128   3.652   2.311 -2.3880 -0.9468 -0.7006
  627SOL     OW11622   9.259   8.627   0.977 -0.3233 -0.5812 -0.2928
  627SOL    HW111623   9.295   8.717   0.956  0.0452 -0.3815  1.1016
  627SOL    HW211624   9.330   8.558   0.962 -0.5542 -0.6252 -1.2013
  628SOL     OW11625   1.465   3.589   1.702 -0.0933  0.3603  0.3457
  628SOL    HW111626   1.525   3.597   1.623 -0.3751  0.9039  0.1891
  628SOL    HW211627   1.379   3.547   1.674 -0.3578  0.9430  0.2776
  629SOL     OW11628   0.451   8.350   2.203 -0.7391 -0.5669  0.0728
  629SOL    HW111629   0.492   8.438   2.230  0.5817 -1.9269  2.7195
  629SOL    HW211630   0.379   8.326   2.267 -0.2237 -2.0260  0.1140
  632SOL     OW11631   4.473   2.392   1.460 -0.3942 -0.2530 -0.0248
  632SOL    HW111632   4.457   2.355   1.369 -0.0501 -0.2043 -0.1059
  632SOL    HW211633   4.556   2.448   1.459 -0.2764 -0.4197  0.3661
  634SOL     OW11634   8.626   8.142   0.520 -0.2457 -0.4785  0.2798
  634SOL    HW111635   8.714   8.114   0.561 -0.0732 -0.0281  0.2136
  634SOL    HW211636   8.633   8.236   0.486 -0.4617 -0.7637 -0.5781
  635SOL     OW11637   8.180   1.267   1.189 -0.1050 -0.1831 -0.5955
  635SOL    HW111638   8.155   1.242   1.282  0.6187 -1.7909 -0.8213
  635SOL    HW211639   8.258   1.213   1.159  0.6918  1.4543 -1.5839
  636SOL     OW11640   7.973   0.421   2.149  0.0496  0.2303 -0.1551
  636SOL    HW111641   7.959   0.406   2.247 -0.5167 -2.6747 -0.6291
  636SOL    HW211642   7.886   0.448   2.107  0.4873  2.3663  0.2632
  637SOL     OW11643   1.107   5.478   1.938  0.3327 -0.2214  0.2649
  637SOL    HW111644   1.065   5.544   1.874  0.9770 -0.3449 -0.2907
  637SOL    HW211645   1.048   5.397   1.944  0.9089 -0.7710 -1.1945
  638SOL     OW11646   0.471   5.166   2.233 -0.6128 -0.2390  0.4398
  638SOL    HW111647   0.373   5.181   2.217 -0.6646 -2.3176 -1.3131
  638SOL    HW211648   0.484   5.080   2.283  0.3151  0.2971  1.1529
  639SOL     OW11649   1.036   7.965   0.376  0.2662  0.2640  0.0039
  639SOL    HW111650   1.067   8.045   0.426 -1.2893  0.7746  0.1776
  639SOL    HW211651   0.937   7.968   0.365  0.3906 -0.6434 -1.7070
  640SOL     OW11652   3.111   4.849   1.072  0.2258  0.0370 -0.6727
  640SOL    HW111653   3.119   4.915   0.997  0.6047 -1.6694 -2.1752
  640SOL    HW211654   3.030   4.792   1.057  0.8993 -1.0143 -0.3586
  641SOL     OW11655   0.090   0.322   1.724 -0.1578 -0.2991 -0.1094
  641SOL    HW111656   0.031   0.348   1.801 -1.0381 -0.6130 -0.6705
  641SOL    HW211657   0.123   0.405   1.679  0.3568 -0.1145  0.5996
  642SOL     OW11658   0.072   8.051   0.964  0.4708  0.1525 -0.0399
  642SOL    HW111659   0.046   8.076   0.871  0.4041  0.0776 -0.0409
  642SOL    HW211660   0.084   8.134   1.019  1.1985  0.2311 -0.3006
  643SOL     OW11661   0.340   6.173   0.709 -0.3172 -0.1269  0.2648
  643SOL    HW111662   0.405   6.232   0.662 -1.5417  1.3980  0.4560
  643SOL    HW211663   0.248   6.190   0.674 -0.6620 -2.0866  0.1731
  644SOL     OW11664   0.661   2.003   1.563  0.1024  0.4777 -0.1631
  644SOL    HW111665   0.717   2.022   1.643 -0.5533  0.7334  0.2372
  644SOL    HW211666   0.601   2.081   1.544  1.2190  0.9905 -1.7305
  645SOL     OW11667   8.593   2.928   1.569  0.3959 -0.2036  0.0270
  645SOL    HW111668   8.561   2.872   1.645  0.8383 -1.9550 -1.0678
  645SOL    HW211669   8.693   2.922   1.563  0.5981  1.8802  0.8006
  646SOL     OW11670   8.782   4.248   1.856  0.0587  0.6001 -0.0831
  646SOL    HW111671   8.843   4.266   1.933 -0.1035  0.1155  0.1606
  646SOL    HW211672   8.739   4.158   1.868  0.4125  0.3017 -0.9881
  648SOL     OW11673   3.439   7.960   2.250  0.3219  0.7222  0.4553
  648SOL    HW111674   3.517   8.006   2.294  0.0633 -0.4001  2.1254
  648SOL    HW211675   3.414   7.879   2.303 -1.3313  0.4907 -0.6531
  649SOL     OW11676   3.156   1.969   1.016 -0.0199 -0.2014  0.2206
  649SOL    HW111677   3.221   2.044   1.029 -2.3227  2.1399 -1.3256
  649SOL    HW211678   3.171   1.928   0.926 -0.7445  0.4265 -0.1916
  650SOL     OW11679   3.120   3.490   1.399  0.0539  0.1229  0.1719
  650SOL    HW111680   3.160   3.580   1.411  1.3205 -0.5529  1.1445
  650SOL    HW211681   3.131   3.437   1.483  1.1413 -1.6344 -1.0482
  651SOL     OW11682   7.316   0.507   1.185  0.0829  0.0994 -0.0066
  651SOL    HW111683   7.399   0.540   1.141  0.0871  0.4181  0.2313
  651SOL    HW211684   7.320   0.408   1.194 -0.5038 -0.0992 -1.8879
  652SOL     OW11685   9.765   4.894   1.869 -0.4844 -0.2129  0.2549
  652SOL    HW111686   9.859   4.909   1.840 -0.1416 -0.2004  1.3571
  652SOL    HW211687   9.746   4.796   1.875 -0.5643 -0.2158  0.0096
  653SOL     OW11688  -0.040  -0.027   0.951  0.5095 -0.4210  0.4153
  653SOL    HW111689   0.046   0.010   0.985 -0.3519  1.2508  0.8608
  653SOL    HW211690  -0.058  -0.115   0.995  1.7120 -0.5145  0.7379
  654SOL     OW11691   1.905   4.914   0.908 -0.0486 -0.3927 -0.6015
  654SOL    HW111692   1.945   4.824   0.893  2.0762  0.6686 -1.3864
  654SOL    HW211693   1.967   4.985   0.876 -1.6021  1.3875  0.1970
  656SOL     OW11694   2.266   4.220   0.700 -0.6589  0.0050  0.6978
  656SOL    HW111695   2.300   4.306   0.738 -1.0503 -0.2632  1.6678
  656SOL    HW211696   2.166   4.219   0.702 -0.7353  0.4626 -1.4228
  658SOL     OW11697   9.696   6.801   1.907 -0.1215  0.0636 -0.4174
  658SOL    HW111698   9.618   6.861   1.888 -1.4661 -1.9130 -1.2895
  658SOL    HW211699   9.763   6.809   1.834 -0.3907  0.3471 -0.6348
  660SOL     OW11700   1.072   8.244   1.735  0.0469  0.0364  0.3949
  660SOL    HW111701   0.999   8.234   1.803 -0.2435  0.3120  0.1216
  660SOL    HW211702   1.092   8.155   1.695  0.1000 -0.0982  0.7157
  661SOL     OW11703   1.994   6.200   1.099 -0.4043 -0.5387 -0.5441
  661SOL    HW111704   2.019   6.219   1.004  0.8381  0.4164 -0.0553
  661SOL    HW211705   1.898   6.220   1.114 -0.3111  0.4778 -1.3113
  662SOL     OW11706   1.486   0.723   1.667  0.8729  0.1125 -0.1283
  662SOL    HW111707   1.586   0.726   1.666  0.9242 -1.0640 -1.6861
  662SOL    HW211708   1.453   0.749   1.757  2.5042  2.3975 -0.1211
  663SOL     OW11709   0.725   2.412   0.671 -0.5793  0.2645  0.3010
  663SOL    HW111710   0.765   2.405   0.579 -0.0748  1.0497  0.4519
  663SOL    HW211711   0.628   2.435   0.663 -0.5631  0.2220 -0.0456
  664SOL     OW11712   0.204   6.338   1.696 -0.0956 -0.5740  0.3581
  664SOL    HW111713   0.265   6.361   1.620 -0.8690 -2.8911 -1.0177
  664SOL    HW211714   0.221   6.400   1.773  1.3118  1.2520 -1.3770
  665SOL     OW11715   8.836   8.159   1.218  0.5576  0.2928  0.0117
  665SOL    HW111716   8.915   8.106   1.247  0.0420 -0.9116 -0.7464
  665SOL    HW211717   8.773   8.101   1.166  0.1307  1.7139 -1.1235
  666SOL     OW11718   4.869   3.480   1.133  0.1945  0.0487 -0.0275
  666SOL    HW111719   4.915   3.519   1.213  1.0113 -1.1855  0.1220
  666SOL    HW211720   4.806   3.547   1.095  1.3369  1.4023  0.4004
  667SOL     OW11721   9.227   6.238   1.278  0.0984  0.0579  0.2311
  667SOL    HW111722   9.295   6.284   1.335  0.8309 -1.2973  0.4915
  667SOL    HW211723   9.274   6.171   1.219 -0.4923  2.1511 -2.7389
  668SOL     OW11724   9.723   0.191   1.616 -0.3504  0.2062 -0.5192
  668SOL    HW111725   9.736   0.284   1.651 -0.0609 -0.0441  0.0540
  668SOL    HW211726   9.644   0.188   1.556 -1.0298  0.5967  0.3497
  669SOL     OW11727   0.560   2.965   2.000 -0.5285 -0.6036  0.6999
  669SOL    HW111728   0.631   3.023   2.040 -1.3924  0.5947  0.5116
  669SOL    HW211729   0.575   2.956   1.902 -0.5581 -0.4582  0.6821
  671SOL     OW11730   0.491   8.588   2.315  0.3871 -0.6735  0.4791
  671SOL    HW111731   0.447   8.670   2.279 -0.3481 -1.2850 -0.0334
  671SOL    HW211732   0.559   8.614   2.384  1.3288  0.4738 -0.8530
  672SOL     OW11733   7.534   9.118   1.125 -0.2722  0.0436 -0.0522
  672SOL    HW111734   7.564   9.213   1.127 -1.0873  0.3097 -0.1117
  672SOL    HW211735   7.603   9.060   1.167  0.1965  0.6727  0.0519
  673SOL     OW11736   3.040   1.611   1.345  0.3355  0.2250 -0.3579
  673SOL    HW111737   3.032   1.573   1.437  0.2063  0.4279 -0.2834
  673SOL    HW211738   2.970   1.570   1.285  1.3266 -0.9429 -0.7275
  674SOL     OW11739   0.027   2.078   0.524  0.2539 -0.1184  0.3289
  674SOL    HW111740   0.086   2.010   0.567  0.8704  0.0213 -0.2736
  674SOL    HW211741  -0.012   2.138   0.594  0.9392 -0.1284  0.7233
  675SOL     OW11742   2.366   3.794   1.041  0.4105 -0.7621 -0.1158
  675SOL    HW111743   2.376   3.760   0.947 -1.1055  0.5016 -0.7741
  675SOL    HW211744   2.279   3.761   1.078  0.1227  0.2834  0.1455
  677SOL     OW11745   2.405   2.231   1.096 -0.1964 -0.3261  0.0806
  677SOL    HW111746   2.468   2.216   1.172 -0.7764  3.0887  1.3072
  677SOL    HW211747   2.313   2.203   1.122 -0.5542  1.6384  0.9612
  678SOL     OW11748   8.836   6.591   2.298 -0.5151  0.0046  0.0947
  678SOL    HW111749   8.789   6.655   2.359  0.7961  0.2146  0.8970
  678SOL    HW211750   8.834   6.627   2.205 -0.0347  1.0815  0.4980
  679SOL     OW11751   2.866   0.649   0.767  0.2446  0.1496 -1.3181
  679SOL    HW111752   2.797   0.577   0.777  1.7984 -1.1998  0.1148
  679SOL    HW211753   2.855   0.716   0.840  1.3999 -0.9267 -0.1177
  680SOL     OW11754   1.903   3.649   1.426  0.3075 -0.5559  0.3254
  680SOL    HW111755   1.916   3.676   1.522 -2.0672  2.6676 -0.1777
  680SOL    HW211756   1.908   3.730   1.368  1.4073 -2.4357 -2.2995
  681SOL     OW11757   3.654   1.732   1.526  0.0862  0.2165  0.2580
  681SOL    HW111758   3.655   1.825   1.491 -0.3231  0.6503  1.3709
  681SOL    HW211759   3.743   1.710   1.566  0.2837  0.0139 -0.2849
  682SOL     OW11760   0.494   1.729   1.047 -0.0002  0.1052  0.0754
  682SOL    HW111761   0.570   1.688   0.998 -1.4789 -3.4600  0.5756
  682SOL    HW211762   0.503   1.709   1.145 -1.4287 -0.1800  0.1620
  683SOL     OW11763   3.689   4.402   1.762 -0.5157 -0.3416  0.6066
  683SOL    HW111764   3.628   4.464   1.812 -0.8058  0.1107 -0.2932
  683SOL    HW211765   3.634   4.330   1.720 -0.4592  0.1977 -0.3982
  684SOL     OW11766   9.042   3.868   1.401 -0.1921  0.7957 -0.5024
  684SOL    HW111767   8.962   3.890   1.345  0.6856 -0.4950 -2.3036
  684SOL    HW211768   9.043   3.927   1.482 -3.0949  0.6529 -0.3149
  685SOL     OW11769   1.769   4.235   1.977 -0.1016 -0.2063 -0.2967
  685SOL    HW111770   1.793   4.138   1.972 -1.4603 -0.5211 -0.8427
  685SOL    HW211771   1.671   4.245   1.993 -0.2792  1.0957 -2.0056
  686SOL     OW11772   1.733   8.067   1.995  0.2942  0.3729  0.0960
  686SOL    HW111773   1.669   8.086   1.921 -0.0781  1.7560  0.7612
  686SOL    HW211774   1.827   8.069   1.960  0.0450 -0.4145 -0.6237
  687SOL     OW11775   9.783   7.052   0.765  0.1025 -0.2587  0.5407
  687SOL    HW111776   9.808   6.976   0.826  0.9128 -1.1661 -0.8911
  687SOL    HW211777   9.732   7.017   0.687 -1.8523  1.0428  1.2034
  688SOL     OW11778   4.184   2.963   1.331  0.2219  0.2255  0.2974
  688SOL    HW111779   4.202   3.047   1.281  0.7575  1.4023  2.3804
  688SOL    HW211780   4.097   2.971   1.381  0.3747 -0.3666  0.6725
  689SOL     OW11781   9.549   9.540   1.791 -0.0768 -0.3186  0.2425
  689SOL    HW111782   9.529   9.484   1.872  0.7517 -0.4485  0.3539
  689SOL    HW211783   9.470   9.539   1.730 -0.1862 -1.3338  0.4001
  691SOL     OW11784   0.464   4.455   2.218  0.3087  0.0917  0.7682
  691SOL    HW111785   0.412   4.374   2.246  0.1222 -0.7287 -1.7858
  691SOL    HW211786   0.561   4.432   2.210  0.1702 -0.0722 -0.5699
  692SOL     OW11787   5.016   3.683   0.452 -0.3531  0.3245  0.2658
  692SOL    HW111788   4.950   3.608   0.446  2.4342 -2.1642 -0.4744
  692SOL    HW211789   5.054   3.701   0.362  1.4934  0.2933  1.0126
  695SOL     OW11790   1.075   0.906   0.628  0.0526 -0.6620 -1.1763
  695SOL    HW111791   1.013   0.955   0.689 -0.7080 -1.4844 -1.2611
  695SOL    HW211792   1.035   0.816   0.606  1.4127 -1.3224 -1.0017
  696SOL     OW11793   1.376   4.433   1.632 -0.3854  0.2081 -0.0508
  696SOL    HW111794   1.365   4.508   1.698  0.1733  1.2471 -1.1082
  696SOL    HW211795   1.447   4.458   1.566 -1.9382 -0.1779 -1.9126
  697SOL     OW11796   9.081   8.616   0.522  0.2480 -0.5584  0.3294
  697SOL    HW111797   9.144   8.583   0.592 -1.5751  0.9558  2.7733
  697SOL    HW211798   8.998   8.559   0.523 -0.4939  0.5080  0.5993
  698SOL     OW11799   8.631   0.137   2.334  0.2825 -0.7361 -0.1249
  698SOL    HW111800   8.689   0.165   2.257  0.4094 -0.8796 -0.0811
  698SOL    HW211801   8.689   0.104   2.408  0.2310  0.6186  0.5287
  699SOL     OW11802   2.678   9.612   2.247 -0.1844 -0.1692  0.2439
  699SOL    HW111803   2.652   9.596   2.343 -0.6615  0.0509  0.1511
  699SOL    HW211804   2.685   9.710   2.230  0.6086 -0.2292  0.2403
  700SOL     OW11805   0.878   4.362   0.426 -0.4530  0.2304  0.3694
  700SOL    HW111806   0.825   4.356   0.512 -0.3065  1.4744  0.5517
  700SOL    HW211807   0.893   4.458   0.403 -0.3577 -0.1012 -0.9825
  701SOL     OW11808   3.937   8.532   1.676 -0.1637  0.5202  0.0537
  701SOL    HW111809   4.032   8.504   1.673 -0.2528  0.1432  0.7104
  701SOL    HW211810   3.918   8.578   1.763 -1.4419 -2.4967  1.4204
  702SOL     OW11811   9.431   7.552   1.369 -0.2254  0.4376 -0.0154
  702SOL    HW111812   9.390   7.546   1.459  0.5717 -0.4311  0.2976
  702SOL    HW211813   9.514   7.608   1.374 -0.2975  0.5684 -0.2544
  703SOL     OW11814   2.085   8.235   1.658 -0.1881  0.1339  0.6934
  703SOL    HW111815   2.053   8.249   1.564 -0.7127 -0.5101  0.7734
  703SOL    HW211816   2.142   8.313   1.685 -1.9809  1.5124  0.6785
  704SOL     OW11817   9.838   8.626   1.318 -0.0593 -0.2616 -0.1550
  704SOL    HW111818   9.918   8.610   1.377  0.7333  0.6000 -0.9900
  704SOL    HW211819   9.824   8.546   1.259  0.3364 -0.3057 -0.1920
  705SOL     OW11820   9.728   7.274   2.101  0.0938 -0.1723  0.5874
  705SOL    HW111821   9.779   7.199   2.059 -1.6112 -0.7279 -0.5492
  705SOL    HW211822   9.645   7.238   2.144  0.6545  0.7061  2.4831
  706SOL     OW11823   0.147   8.228   1.174 -0.2265 -0.1938  0.4016
  706SOL    HW111824   0.173   8.184   1.259 -1.8582  0.5238  1.2910
  706SOL    HW211825   0.229   8.253   1.122  0.7402 -1.5686  1.2691
  707SOL     OW11826   9.499   8.217   1.310  0.5812 -0.0070  0.0604
  707SOL    HW111827   9.578   8.184   1.258 -0.4003 -0.7092 -0.9858
  707SOL    HW211828   9.516   8.202   1.408  2.2198  0.8777 -0.0705
  708SOL     OW11829   8.880   6.705   0.600 -0.7490  0.5935  0.3179
  708SOL    HW111830   8.856   6.611   0.575 -0.1552  0.4597  0.2396
  708SOL    HW211831   8.886   6.712   0.700 -2.7748  1.0434  0.4243
  709SOL     OW11832   3.382   2.167   1.697  0.0901  0.3225  0.4345
  709SOL    HW111833   3.366   2.097   1.767 -1.1926  0.5638  0.4066
  709SOL    HW211834   3.480   2.174   1.677  0.5675  0.8180  2.8142
  711SOL     OW11835   2.085   2.259   0.467 -0.2368  0.1843  0.3019
  711SOL    HW111836   2.063   2.341   0.415 -0.1652 -2.1300 -3.6030
  711SOL    HW211837   2.181   2.262   0.496  0.1067  0.8907 -0.9017
  712SOL     OW11838   7.706   0.854   0.796 -0.9241 -0.0222  0.0967
  712SOL    HW111839   7.751   0.839   0.884 -0.0405  0.0783 -0.3284
  712SOL    HW211840   7.643   0.930   0.803  0.4647  1.1400  0.1817
  713SOL     OW11841   8.745   8.670   1.466  0.4939  0.3751 -0.1853
  713SOL    HW111842   8.693   8.690   1.549  1.1024 -0.6032  0.4402
  713SOL    HW211843   8.766   8.755   1.418  1.2805  1.0734  1.3519
  714SOL     OW11844   4.261   9.064   1.618 -0.6293  0.1871 -0.2941
  714SOL    HW111845   4.289   9.010   1.538  0.9421 -0.0042  0.3662
  714SOL    HW211846   4.307   9.153   1.616 -1.4983  0.6446 -0.2103
  715SOL     OW11847   9.726   1.590   1.559 -0.5472 -0.2663 -0.0256
  715SOL    HW111848   9.678   1.518   1.509  2.7759 -2.2618 -0.4745
  715SOL    HW211849   9.693   1.594   1.653 -3.1602 -0.0187 -0.9194
  716SOL     OW11850   9.919   2.624   0.968  0.1273  0.4381  0.1741
  716SOL    HW111851   9.954   2.699   1.025 -1.0931 -0.0625  1.6329
  716SOL    HW211852   9.919   2.540   1.022 -2.1082  0.1861 -0.1936
  717SOL     OW11853   1.596   4.587   1.788  0.2766  0.1514 -0.2244
  717SOL    HW111854   1.654   4.564   1.866  0.5821  1.5987  0.0012
  717SOL    HW211855   1.615   4.525   1.712  0.2589 -1.0190  0.7304
  719SOL     OW11856   3.688   8.721   2.124 -0.1218  0.1106 -0.2630
  719SOL    HW111857   3.700   8.699   2.221  0.4372  0.5861 -0.2210
  719SOL    HW211858   3.719   8.815   2.108  0.4807 -0.2221 -1.0427
  720SOL     OW11859   3.472   3.186   0.741 -0.6290 -0.2932  0.9433
  720SOL    HW111860   3.561   3.218   0.775 -0.0332 -0.1295 -0.7141
  720SOL    HW211861   3.452   3.097   0.780  0.6120 -0.6510  0.8084
  722SOL     OW11862   8.912   9.109   0.813 -0.4210  0.1867  0.2128
  722SOL    HW111863   8.998   9.154   0.789 -1.1193  1.1552 -0.5084
  722SOL    HW211864   8.930   9.015   0.841  0.8914  0.4386  0.2382
  724SOL     OW11865   9.550   4.815   2.089  0.3224  0.5275  0.0821
  724SOL    HW111866   9.539   4.757   2.008 -0.1448  0.5175  0.1522
  724SOL    HW211867   9.647   4.835   2.102  0.7137 -2.0215  1.3171
  725SOL     OW11868   0.586   0.283   0.320 -0.2363 -0.7653  0.0481
  725SOL    HW111869   0.550   0.251   0.232 -1.0978 -0.7727  0.3954
  725SOL    HW211870   0.574   0.212   0.389  0.5607 -0.8076  0.1436
  726SOL     OW11871   9.044   7.854   0.993  0.2401 -0.2799  0.8217
  726SOL    HW111872   9.046   7.930   0.929  2.1025  0.0755  1.2613
  726SOL    HW211873   9.080   7.885   1.082 -1.4196 -0.9999  1.7598
  727SOL     OW11874   9.698   7.722   0.748 -0.2899  0.4792 -0.2369
  727SOL    HW111875   9.655   7.633   0.760 -0.5952  0.5872 -0.5157
  727SOL    HW211876   9.746   7.748   0.831  0.1634 -0.1421 -0.3079
  728SOL     OW11877   0.976   8.618   0.854  0.0581  0.0773 -0.6177
  728SOL    HW111878   0.891   8.585   0.895  0.0205  0.7341 -0.1594
  728SOL    HW211879   1.011   8.549   0.790  0.7980 -1.4951  1.4560
  730SOL     OW11880   9.746   6.447   1.692  0.0497 -0.1108  0.2573
  730SOL    HW111881   9.756   6.426   1.595  0.2273  1.5128 -0.0923
  730SOL    HW211882   9.653   6.479   1.710 -0.2008 -1.1151  0.7622
  731SOL     OW11883   7.924   9.669   0.732 -0.3531 -0.0056 -0.0025
  731SOL    HW111884   7.952   9.683   0.827  0.3488 -0.8096 -0.0799
  731SOL    HW211885   7.999   9.694   0.671 -0.6600  0.1303 -0.3249
  732SOL     OW11886   1.582   1.123   1.403 -0.6112  0.4421 -0.4624
  732SOL    HW111887   1.591   1.161   1.496  0.3281 -0.7868 -0.0261
  732SOL    HW211888   1.594   1.196   1.336  1.0010  0.9610  0.3604
  734SOL     OW11889   9.473   2.222   2.237  0.1621 -0.2927 -0.2980
  734SOL    HW111890   9.427   2.308   2.258  0.8814 -0.0405  0.2639
  734SOL    HW211891   9.481   2.211   2.138  1.8666  1.2516 -0.3449
  735SOL     OW11892   3.462   4.391   1.129 -0.3832  0.0034  0.2159
  735SOL    HW111893   3.368   4.414   1.105  0.3492  2.3828 -0.5127
  735SOL    HW211894   3.496   4.322   1.065 -0.6549  1.3744 -1.4693
  736SOL     OW11895   2.679   0.747   2.143 -0.6191  0.2169  0.4676
  736SOL    HW111896   2.741   0.777   2.216 -0.2287 -3.0881  1.5780
  736SOL    HW211897   2.711   0.784   2.056  3.1106 -1.5599  0.9744
  737SOL     OW11898   3.988   1.948   0.903  0.3079 -0.5758  0.2435
  737SOL    HW111899   4.054   1.954   0.829  1.9498 -0.4448  1.7011
  737SOL    HW211900   4.028   1.898   0.980 -1.0865 -0.0071  1.3555
  738SOL     OW11901   9.193   9.326   1.765 -0.4044  0.2594 -0.3199
  738SOL    HW111902   9.143   9.402   1.805  0.1693  0.2994  0.3370
  738SOL    HW211903   9.141   9.241   1.778 -0.0456  0.2061  0.8987
  739SOL     OW11904   7.834  -0.105   2.032  0.0221 -0.0360  0.0194
  739SOL    HW111905   7.928  -0.088   2.002  0.0669  0.1877  0.2849
  739SOL    HW211906   7.833  -0.126   2.130  0.1089 -2.8058 -0.5258
  740SOL     OW11907   2.035   9.088   0.350 -0.0197 -0.1910 -0.4033
  740SOL    HW111908   1.945   9.052   0.371 -0.3938  0.4113 -0.9810
  740SOL    HW211909   2.036   9.128   0.258  1.0126 -0.8028 -0.6689
  741SOL     OW11910   9.433   3.310   0.962  0.3413  0.4426 -0.3668
  741SOL    HW111911   9.411   3.250   0.886 -0.3870  0.4466 -0.1583
  741SOL    HW211912   9.487   3.259   1.030  0.3605  0.2374 -0.5368
  742SOL     OW11913   1.002   6.621   2.128  0.2333  0.2190 -0.2398
  742SOL    HW111914   0.992   6.717   2.101  0.1214  0.3754  0.3427
  742SOL    HW211915   1.057   6.572   2.060 -0.3759  0.5106 -0.9505
  743SOL     OW11916   2.147   6.735   0.728 -0.0089  0.1059  0.1979
  743SOL    HW111917   2.186   6.826   0.720  0.1508  0.0774  0.6549
  743SOL    HW211918   2.191   6.686   0.803  1.1804 -1.0045 -1.2019
  744SOL     OW11919   8.766   0.618   0.396 -0.1357 -0.3487 -0.3420
  744SOL    HW111920   8.730   0.573   0.314 -0.9279 -0.3938  0.0267
  744SOL    HW211921   8.799   0.709   0.372 -0.7730 -0.1918 -0.6186
  745SOL     OW11922   4.614   2.596   1.730  0.4063 -0.0985 -0.3332
  745SOL    HW111923   4.657   2.570   1.644  0.0793 -1.0095 -0.2307
  745SOL    HW211924   4.684   2.602   1.802  0.3084 -2.2715 -0.0084
  746SOL     OW11925   0.257   9.847   2.038  0.2402  0.1315  0.0119
  746SOL    HW111926   0.328   9.890   1.983  0.8773 -1.2630 -0.2628
  746SOL    HW211927   0.176   9.830   1.981 -0.0464  1.0268  0.1420
  747SOL     OW11928   1.355   0.403   0.352 -0.6534 -0.5367  0.2555
  747SOL    HW111929   1.417   0.343   0.403  0.4318 -0.6796 -1.1961
  747SOL    HW211930   1.354   0.375   0.256 -0.1844  1.6974 -0.4338
  748SOL     OW11931   2.737   7.622   1.289  0.3133  0.1814 -0.7284
  748SOL    HW111932   2.767   7.709   1.249 -1.1542  0.8958 -0.3154
  748SOL    HW211933   2.763   7.619   1.385  0.3706  0.1657 -0.7446
  749SOL     OW11934   2.629   0.494   1.484  0.0871 -0.5185  0.3489
  749SOL    HW111935   2.572   0.497   1.566 -2.1887 -0.2269 -1.1910
  749SOL    HW211936   2.685   0.576   1.479  0.3427 -0.6004  1.6585
  750SOL     OW11937   9.803   1.828   1.432  0.1526 -0.4624  0.1558
  750SOL    HW111938   9.869   1.824   1.357  0.2607 -0.6167  0.2599
  750SOL    HW211939   9.817   1.750   1.493  1.1221  0.5388  1.2244
  751SOL     OW11940   1.211   1.276   1.424  0.0456  0.1694  0.2078
  751SOL    HW111941   1.151   1.205   1.461  1.4848  0.0105  2.3154
  751SOL    HW211942   1.222   1.263   1.325 -0.8023 -1.7111  0.3443
  752SOL     OW11943   4.358   2.285   1.653 -0.6374 -0.1070  0.2653
  752SOL    HW111944   4.385   2.319   1.743  0.4347 -0.2657  0.0082
  752SOL    HW211945   4.417   2.324   1.583 -1.4903  0.0392 -0.3785
  753SOL     OW11946   0.331   5.695   1.783 -0.5214  0.2585 -0.0837
  753SOL    HW111947   0.412   5.739   1.743 -0.1024 -0.8595 -0.4850
  753SOL    HW211948   0.359   5.612   1.832 -1.4324 -0.1564 -0.2556
  754SOL     OW11949   4.452   2.607   0.365 -0.2552  0.1614  0.2990
  754SOL    HW111950   4.495   2.694   0.345 -2.7673  1.6144  1.0234
  754SOL    HW211951   4.458   2.589   0.463  0.2713 -0.5140  0.1500
  755SOL     OW11952   0.141   1.842   1.439  0.2602 -0.3679 -0.0254
  755SOL    HW111953   0.217   1.869   1.497 -1.1336 -1.9480  2.6050
  755SOL    HW211954   0.066   1.807   1.495 -1.0357 -2.2466 -2.7813
  757SOL     OW11955   0.869   0.593   1.448 -0.4114 -0.3116 -0.3047
  757SOL    HW111956   0.829   0.529   1.382 -0.1704 -0.4748 -0.2933
  757SOL    HW211957   0.873   0.684   1.406  0.6571 -0.6147 -0.8918
  758SOL     OW11958   3.512   1.445   0.846  0.2411  0.2228  0.2076
  758SOL    HW111959   3.517   1.541   0.876  0.8879  0.0437  0.6771
  758SOL    HW211960   3.490   1.387   0.923  0.5623 -0.0854  0.0696
  760SOL     OW11961   4.310   4.019   0.674 -0.0455 -0.0320 -0.1821
  760SOL    HW111962   4.284   4.043   0.767  0.4691  2.3007 -0.6047
  760SOL    HW211963   4.389   3.957   0.676  0.3555  0.5038  0.9252
  761SOL     OW11964   9.407   3.056   1.784  0.4637 -0.1644  0.1552
  761SOL    HW111965   9.432   2.960   1.794  2.3140  0.0221 -2.1947
  761SOL    HW211966   9.317   3.063   1.741  0.4306 -0.8589  0.1112
  762SOL     OW11967   2.010   7.969   1.970 -0.0027  0.0776  0.3200
  762SOL    HW111968   1.982   7.879   2.002 -0.4741  0.4007  0.8312
  762SOL    HW211969   2.015   7.970   1.870  0.0805 -0.5318  0.3175
  763SOL     OW11970   2.144   5.030   1.758  0.5163 -0.0921  0.4829
  763SOL    HW111971   2.231   5.080   1.756  0.2382  0.3730 -1.0728
  763SOL    HW211972   2.158   4.938   1.722  0.0625  0.5418 -1.4065
  764SOL     OW11973   4.788   2.908   0.948 -0.4406  0.4756 -0.7381
  764SOL    HW111974   4.697   2.942   0.970 -0.5153  0.7801 -1.5121
  764SOL    HW211975   4.813   2.936   0.855 -0.2045 -0.9315 -1.1163
  765SOL     OW11976   3.069   0.694   2.241  0.2462 -0.1890  0.2596
  765SOL    HW111977   3.018   0.679   2.325  1.1479 -0.1663  0.8236
  765SOL    HW211978   3.102   0.789   2.239 -1.7710  0.5136 -1.2452
  766SOL     OW11979   2.814   7.632   0.386 -0.1608  0.4258 -0.2105
  766SOL    HW111980   2.783   7.542   0.415  0.6987 -0.5108 -2.0938
  766SOL    HW211981   2.841   7.686   0.466  0.0010 -1.2319  0.8756
  767SOL     OW11982   1.775   7.275   1.976 -0.3187  0.2852 -0.1970
  767SOL    HW111983   1.803   7.306   1.885  0.4372 -1.8772 -0.7283
  767SOL    HW211984   1.854   7.237   2.023 -1.5664 -2.4554 -0.2647
  768SOL     OW11985   5.045   3.716   0.761  0.4512  0.0949 -0.1844
  768SOL    HW111986   5.035   3.621   0.790 -1.8112  0.0764 -0.9767
  768SOL    HW211987   5.074   3.718   0.665 -0.6959  0.1955 -0.5362
  769SOL     OW11988   4.243   4.102   2.266 -0.1459  0.3960 -0.2917
  769SOL    HW111989   4.153   4.080   2.303 -0.2654 -0.1903 -0.9188
  769SOL    HW211990   4.251   4.201   2.253  0.3169  0.7305  2.3618
  770SOL     OW11991   3.639   2.162   1.625 -0.6903  0.3584  0.0216
  770SOL    HW111992   3.734   2.194   1.619 -0.9102  0.9004 -0.6585
  770SOL    HW211993   3.623   2.092   1.556 -1.0238  0.8995 -0.4584
  771SOL     OW11994   0.583   8.599   1.309 -0.1047  0.1961 -0.5940
  771SOL    HW111995   0.515   8.580   1.238  0.4864  1.3380 -1.4938
  771SOL    HW211996   0.558   8.684   1.357 -0.3744 -0.4451  0.4218
  774SOL     OW11997   0.137   8.870   1.240 -0.6705 -0.0089 -0.2306
  774SOL    HW111998   0.214   8.913   1.192 -0.7641  1.8232  1.2241
  774SOL    HW211999   0.060   8.860   1.177 -0.0596  0.3614 -1.0488
  775SOL     OW12000   2.550   1.959   1.758 -0.2918  0.1430  0.8169
  775SOL    HW112001   2.578   1.903   1.836  1.6483 -0.6918 -0.4311
  775SOL    HW212002   2.479   2.023   1.786 -1.3544 -1.7997  2.6827
  776SOL     OW12003   2.884   0.153   2.037 -0.4966 -0.1207  0.1086
  776SOL    HW112004   2.947   0.147   2.114 -0.0427 -0.2411 -0.2689
  776SOL    HW212005   2.790   0.159   2.071 -0.3852 -1.3223  0.6510
  777SOL     OW12006   9.572   1.198   1.131 -0.4562  0.4206  0.2172
  777SOL    HW112007   9.599   1.201   1.034  1.2145  1.8768  0.7082
  777SOL    HW212008   9.491   1.254   1.145 -1.3869 -0.7142 -0.5367
  778SOL     OW12009   8.110   9.110   1.763 -0.7472 -0.0788 -0.0834
  778SOL    HW112010   8.025   9.153   1.793 -0.4570 -0.6234  1.6144
  778SOL    HW212011   8.090   9.017   1.731 -1.0250  0.4039 -1.3041
  779SOL     OW12012   3.803   1.936   1.792  0.1523 -0.6604  0.3888
  779SOL    HW112013   3.729   1.990   1.751  1.2219 -0.3359 -1.1644
  779SOL    HW212014   3.870   1.998   1.833 -1.1663 -0.9982  3.1444
  780SOL     OW12015   0.051   0.233   2.143 -0.0639  0.6141 -0.3473
  780SOL    HW112016  -0.009   0.162   2.179 -1.3130  0.8326 -1.9189
  780SOL    HW212017   0.134   0.192   2.106 -1.3154 -0.1651 -2.3341
  782SOL     OW12018   0.614   4.769   2.109 -0.4864  0.0752 -0.3815
  782SOL    HW112019   0.704   4.742   2.073 -0.9193 -1.3880 -0.3850
  782SOL    HW212020   0.546   4.702   2.082 -1.5841  1.1478 -0.3137
  783SOL     OW12021   0.424   3.505   1.596 -0.6358  0.2829 -0.3509
  783SOL    HW112022   0.490   3.511   1.521  0.1542  0.0002  0.3122
  783SOL    HW212023   0.448   3.570   1.667 -1.9143  1.1909 -0.7361
  786SOL     OW12024   9.354  -0.077   0.959 -0.4392  0.2996 -0.5226
  786SOL    HW112025   9.284  -0.063   1.029 -0.6197 -0.0430 -0.6342
  786SOL    HW212026   9.316  -0.053   0.869 -0.0094  1.3604 -0.4318
  787SOL     OW12027   9.192   2.134   1.309  0.3617 -0.1273  0.0233
  787SOL    HW112028   9.151   2.068   1.246  0.5692  0.1482 -0.3973
  787SOL    HW212029   9.290   2.141   1.291 -0.0070  1.7931 -1.2587
  788SOL     OW12030   9.532   3.105   0.455  0.6159  0.4137 -0.0529
  788SOL    HW112031   9.433   3.093   0.460  0.6591  0.1755  0.2492
  788SOL    HW212032   9.555   3.167   0.381  0.3674 -1.0596 -1.3827
  789SOL     OW12033   3.639   1.994   1.392  0.4645  0.5221  0.3754
  789SOL    HW112034   3.582   1.942   1.328 -0.6315  1.2686  0.7198
  789SOL    HW212035   3.695   2.059   1.340 -0.6390  1.3355  0.1664
  790SOL     OW12036   1.698   7.413   2.298 -0.0220  0.3923  0.1297
  790SOL    HW112037   1.794   7.385   2.299  0.9653  3.5666  0.5494
  790SOL    HW212038   1.692   7.512   2.315 -3.3044  0.4045 -0.7420
  791SOL     OW12039   9.032   1.946   0.359 -0.1373  0.0097 -0.0191
  791SOL    HW112040   9.028   2.015   0.432 -0.2473 -0.1914  0.1638
  791SOL    HW212041   9.091   1.980   0.285 -2.5449  1.6275 -1.2850
  794SOL     OW12042   2.041   7.539   1.417  0.1233  0.2318  0.1069
  794SOL    HW112043   2.039   7.517   1.319  0.7706 -1.4075  0.4427
  794SOL    HW212044   2.134   7.564   1.443  0.3557 -1.2051  0.6854
  795SOL     OW12045   2.803   9.299   1.594 -0.1160 -0.1271 -0.1791
  795SOL    HW112046   2.801   9.209   1.551 -0.0981 -0.7823  1.1677
  795SOL    HW212047   2.789   9.289   1.693  0.4189  1.2963  0.0526
  796SOL     OW12048   3.511   0.133   2.121 -0.5709 -0.2570 -0.6816
  796SOL    HW112049   3.534   0.176   2.033  0.6797  3.2474  1.2291
  796SOL    HW212050   3.594   0.125   2.176 -2.0372  2.0791  1.9908
  799SOL     OW12051   1.094   1.637   0.543 -0.0392 -0.1583  0.2076
  799SOL    HW112052   1.188   1.637   0.577 -0.3845 -0.5751  1.1921
  799SOL    HW212053   1.056   1.729   0.549  0.5261  0.1574 -0.8484
  800SOL     OW12054   3.885   9.337   0.729 -0.2934 -0.0202 -0.5530
  800SOL    HW112055   3.916   9.268   0.795 -0.3068 -0.4490 -0.9963
  800SOL    HW212056   3.957   9.354   0.662 -0.1113  0.7437 -0.1715
  802SOL     OW12057   0.651   8.881   0.998 -0.6689 -0.2862  0.7064
  802SOL    HW112058   0.622   8.962   0.948 -1.5328 -1.7041 -1.1337
  802SOL    HW212059   0.751   8.884   1.010 -0.4312  0.0050 -1.2291
  803SOL     OW12060   0.066   2.857   1.070  0.2935 -0.6060  0.1439
  803SOL    HW112061   0.140   2.791   1.086  0.3198 -0.5719  0.1630
  803SOL    HW212062   0.080   2.937   1.128  0.5145 -0.3804 -0.2151
  804SOL     OW12063   1.410   5.462   1.292 -0.2720 -0.1444 -1.2270
  804SOL    HW112064   1.372   5.459   1.385 -0.5300  0.9548 -1.2943
  804SOL    HW212065   1.444   5.554   1.273  2.1779 -1.0128 -1.2607
  805SOL     OW12066   9.252   9.417   0.450 -0.0610 -0.6084  0.7310
  805SOL    HW112067   9.269   9.474   0.531  1.0311 -1.1541  0.8958
  805SOL    HW212068   9.169   9.449   0.404  0.4424  1.0211  0.9029
  806SOL     OW12069   9.265   8.460   0.688 -0.1679 -0.0456  0.4122
  806SOL    HW112070   9.259   8.363   0.664 -0.9210  0.0136  0.3734
  806SOL    HW212071   9.360   8.490   0.679 -0.1239 -0.4975 -0.6932
  807SOL     OW12072   1.918   6.918   2.312 -0.0437  0.0270 -0.1016
  807SOL    HW112073   1.902   6.820   2.325  1.7660 -0.2495  0.1668
  807SOL    HW212074   1.981   6.951   2.382  0.2476  1.1391 -0.8788
  808SOL     OW12075   3.900   2.195   1.922  0.2795  0.5382 -0.1226
  808SOL    HW112076   3.986   2.237   1.893  0.5943  0.5422  0.7942
  808SOL    HW212077   3.903   2.179   2.021 -0.9722  1.0137  0.0045
  809SOL     OW12078   3.773   5.107   1.286 -0.5671 -0.4760  0.3305
  809SOL    HW112079   3.831   5.157   1.221 -1.1890  1.7211  1.4079
  809SOL    HW212080   3.690   5.077   1.241 -0.9246  0.8994  0.0507
  810SOL     OW12081   8.883   2.784   1.973  0.0519 -0.8048  0.0375
  810SOL    HW112082   8.946   2.742   1.908 -0.9583 -1.4792 -0.5152
  810SOL    HW212083   8.887   2.735   2.060  1.0831 -0.1692  0.3647
  811SOL     OW12084   9.656   5.977   1.363 -0.7748  0.2285  0.0542
  811SOL    HW112085   9.648   6.004   1.459  0.2096 -1.1254  0.5375
  811SOL    HW212086   9.696   6.052   1.310 -0.2750  0.5813  0.9194
  812SOL     OW12087   2.922   4.062   2.014  0.1956  0.5456  0.7359
  812SOL    HW112088   3.020   4.076   2.007 -0.1984  2.0891 -2.7192
  812SOL    HW212089   2.899   3.970   1.982  0.4182  0.4315  0.8993
  813SOL     OW12090   3.336   4.864   1.221 -0.0777 -0.0302 -0.3459
  813SOL    HW112091   3.388   4.780   1.208 -1.4796 -1.2405  1.5948
  813SOL    HW212092   3.261   4.868   1.156 -1.5039 -1.5316  1.1627
  814SOL     OW12093   0.001   2.013   2.107 -0.9466  0.0025 -0.2033
  814SOL    HW112094   0.023   2.105   2.139 -0.9866 -0.6823  1.9057
  814SOL    HW212095  -0.038   2.017   2.015  0.2025  1.9670 -0.6182
  815SOL     OW12096   9.467   2.389   1.805 -0.3643  0.4186  0.1846
  815SOL    HW112097   9.534   2.374   1.732  0.9335  0.2434  1.3915
  815SOL    HW212098   9.467   2.486   1.830 -0.1623  0.3181  0.5718
  816SOL     OW12099   9.918   8.640   0.833  0.2217  0.0385 -0.4983
  816SOL    HW112100   9.934   8.587   0.916 -0.6574  0.8646  0.2052
  816SOL    HW212101   9.824   8.628   0.803  0.7051 -0.7728 -1.7604
  819SOL     OW12102   0.391   1.873   1.619 -0.1880  0.3807  0.2704
  819SOL    HW112103   0.481   1.915   1.613  0.0806 -0.0680  1.0024
  819SOL    HW212104   0.401   1.773   1.620 -0.4399  0.3376  3.5677
  820SOL     OW12105   2.749   6.911   0.659 -0.0004 -0.1141 -0.3187
  820SOL    HW112106   2.739   6.813   0.643  0.9924 -0.3091  0.2758
  820SOL    HW212107   2.721   6.933   0.752  1.8778 -0.1636  0.2649
  821SOL     OW12108   8.765   7.472   1.831  0.0660 -0.0306 -0.0006
  821SOL    HW112109   8.705   7.469   1.910 -0.0377  0.8036 -0.0414
  821SOL    HW212110   8.722   7.425   1.754  0.2244 -0.9509  0.4689
  823SOL     OW12111   8.940   7.225   1.813  0.2002 -0.4902 -0.1156
  823SOL    HW112112   8.923   7.319   1.844 -0.5562 -1.1124  1.4360
  823SOL    HW212113   8.883   7.205   1.734 -1.0759 -0.2491  0.7259
  824SOL     OW12114   3.283   3.327   0.349 -0.4998 -1.0163 -0.2458
  824SOL    HW112115   3.383   3.323   0.345 -0.4242  0.5475 -0.1952
  824SOL    HW212116   3.248   3.357   0.260 -0.8504 -0.3453  0.1161
  825SOL     OW12117   0.242   7.684   1.585  0.0664 -0.0719  0.2568
  825SOL    HW112118   0.219   7.590   1.557 -1.0240  0.4769 -0.7506
  825SOL    HW212119   0.342   7.694   1.588  0.2163 -1.6965  1.9224
  827SOL     OW12120   2.747   4.941   1.912  0.1124 -0.2319  0.1426
  827SOL    HW112121   2.819   4.972   1.850 -1.5015  0.1428 -1.5701
  827SOL    HW212122   2.735   4.842   1.903  1.9371 -0.6670  2.0877
  828SOL     OW12123  -0.031   0.628   1.335 -0.1660 -0.7111  0.3907
  828SOL    HW112124  -0.098   0.702   1.342  1.5963  0.8423  1.3881
  828SOL    HW212125   0.032   0.648   1.259  0.3489 -1.1590  0.6997
  829SOL     OW12126   9.694   8.009   0.966  0.0463  0.3338 -0.4060
  829SOL    HW112127   9.639   8.014   0.883  1.3665 -0.7137 -1.3839
  829SOL    HW212128   9.756   7.930   0.960  0.2576  0.3343  1.5122
  830SOL     OW12129   9.411   6.033   1.171  0.0475  0.1622  0.3089
  830SOL    HW112130   9.482   6.014   1.239 -1.2467  0.3905  1.7510
  830SOL    HW212131   9.452   6.038   1.080  1.6888 -0.8981  0.9828
  831SOL     OW12132   9.013   9.681   0.785 -0.4015  0.6066 -0.1019
  831SOL    HW112133   9.047   9.646   0.872 -2.4199  2.8568  1.6422
  831SOL    HW212134   9.047   9.774   0.771 -0.2964  0.3578 -1.6273
  832SOL     OW12135   0.426   8.295   1.475  0.2109 -0.2583 -0.0524
  832SOL    HW112136   0.483   8.353   1.533  0.0916  0.2085 -0.3959
  832SOL    HW212137   0.429   8.329   1.381  0.7939 -1.3039 -0.4107
  834SOL     OW12138   1.634   0.967   0.616 -0.6888 -0.0841 -0.0755
  834SOL    HW112139   1.537   0.990   0.631 -0.7679  2.2290 -3.6238
  834SOL    HW212140   1.644   0.922   0.527  1.7523  1.5601 -0.6751
  835SOL     OW12141   0.470   8.385   0.481 -0.0375  0.1883 -0.5727
  835SOL    HW112142   0.507   8.477   0.472 -2.3803  1.4385  1.8939
  835SOL    HW212143   0.384   8.379   0.430 -0.7036 -0.1465  0.5821
  836SOL     OW12144   0.848   7.372   1.926 -0.0834 -0.1717  0.0084
  836SOL    HW112145   0.915   7.349   1.997  1.3279 -1.7227 -1.7753
  836SOL    HW212146   0.784   7.296   1.915 -0.1326 -0.0539 -0.5468
  837SOL     OW12147   0.721   0.083   1.066  0.1061  0.2455 -0.0429
  837SOL    HW112148   0.714   0.140   0.984 -0.4340  0.1001 -0.1030
  837SOL    HW212149   0.794   0.118   1.125  0.4441  0.3961 -0.5479
  838SOL     OW12150   3.134   2.951   2.035 -0.0605 -0.1867  0.2857
  838SOL    HW112151   3.119   2.871   1.977  1.1140  0.0400 -0.3588
  838SOL    HW212152   3.215   2.936   2.092 -0.4388  0.1272  0.9065
  839SOL     OW12153   1.734   8.211   2.238 -0.3910 -0.4371  0.5560
  839SOL    HW112154   1.738   8.143   2.165  0.0945 -2.2750  2.2449
  839SOL    HW212155   1.817   8.266   2.237  1.3083 -2.8556  1.9192
  840SOL     OW12156   9.348   6.207   0.443 -0.5876 -0.7492  0.4799
  840SOL    HW112157   9.446   6.201   0.427 -0.6763  2.0684 -1.3940
  840SOL    HW212158   9.322   6.143   0.516  2.6095 -1.4958  1.0231
  841SOL     OW12159   7.764   9.666   1.893  0.5920 -0.1083 -0.4767
  841SOL    HW112160   7.721   9.613   1.966  1.6613  0.2204  0.4069
  841SOL    HW212161   7.807   9.747   1.931  3.0111 -1.0125 -1.1427
  843SOL     OW12162   3.106   7.497   0.587 -0.3559  0.5719 -0.2721
  843SOL    HW112163   3.034   7.535   0.645  0.9356  1.3493  0.8561
  843SOL    HW212164   3.082   7.403   0.562 -2.0583  1.0364 -0.4673
  844SOL     OW12165   1.833   8.068   1.292 -0.2019  0.1640 -0.0946
  844SOL    HW112166   1.791   8.075   1.202  0.5167  0.7336 -0.3977
  844SOL    HW212167   1.765   8.086   1.363 -0.2535  2.1342 -0.6065
  846SOL     OW12168   3.069   4.342   2.295 -0.9366 -0.4030  0.0669
  846SOL    HW112169   3.135   4.417   2.283 -1.9474  0.6688  1.1305
  846SOL    HW212170   3.022   4.326   2.208 -0.5702  0.0669 -0.2229
  847SOL     OW12171   9.056   4.955   1.227 -0.1316 -0.1019  0.9241
  847SOL    HW112172   9.063   4.941   1.128  0.2659 -0.9773  1.0709
  847SOL    HW212173   9.075   5.051   1.249 -0.8945  0.2414  0.0870
  848SOL     OW12174   0.481   3.448   1.140  0.4685  0.2666 -0.2096
  848SOL    HW112175   0.389   3.411   1.124  0.6599 -1.1465  1.7345
  848SOL    HW212176   0.517   3.486   1.055 -2.0301  1.1215 -0.9229
  849SOL     OW12177   1.389   6.828   1.151  0.3890 -0.5614  0.1757
  849SOL    HW112178   1.395   6.793   1.058  1.4472  1.9585 -0.7647
  849SOL    HW212179   1.295   6.854   1.171  0.4436  0.4589 -0.8262
  850SOL     OW12180   0.416   8.271   0.729  0.1801  0.0133  0.0924
  850SOL    HW112181   0.420   8.172   0.718 -2.0560 -0.1313  0.3901
  850SOL    HW212182   0.445   8.316   0.644 -1.7387 -0.9421 -1.1004
  851SOL     OW12183   1.888   1.892   1.578 -0.5236 -0.1958  1.1472
  851SOL    HW112184   1.873   1.917   1.674 -0.0916 -0.9012  1.4066
  851SOL    HW212185   1.896   1.792   1.571 -0.9313 -0.1769  0.3239
  852SOL     OW12186   2.577   2.797   1.225 -0.2012 -0.0556  0.2288
  852SOL    HW112187   2.638   2.746   1.164  1.1764  0.9634  0.7290
  852SOL    HW212188   2.510   2.735   1.266  0.7765 -1.2621  0.0091
  854SOL     OW12189   9.931   1.322   2.297  0.3075 -0.5266  0.2624
  854SOL    HW112190   9.848   1.311   2.243  0.5892  1.7861 -0.6963
  854SOL    HW212191   9.919   1.280   2.387 -1.8529 -0.2740  0.1014
  855SOL     OW12192   0.787   5.310   1.595  0.0628 -0.2040 -0.2593
  855SOL    HW112193   0.773   5.271   1.504  0.3512  1.0939 -0.8782
  855SOL    HW212194   0.714   5.375   1.615 -1.1508 -1.9962  1.3092
  856SOL     OW12195   3.696   8.376   1.744  0.1210 -1.2122 -0.3235
  856SOL    HW112196   3.637   8.448   1.706  0.0239 -1.5850 -0.8793
  856SOL    HW212197   3.766   8.418   1.802 -0.4380 -0.7299  0.0156
  858SOL     OW12198   3.566   0.589   1.189 -0.1104 -0.2674  0.3154
  858SOL    HW112199   3.496   0.621   1.126 -0.3966 -0.5103  0.5073
  858SOL    HW212200   3.558   0.490   1.200  0.5727 -0.3602 -0.0368
  859SOL     OW12201   9.396   1.879   1.587  0.2737  0.3009 -0.3101
  859SOL    HW112202   9.425   1.811   1.654 -0.4359 -1.1703 -1.4473
  859SOL    HW212203   9.447   1.866   1.502  1.6938  2.6235  0.1671
  860SOL     OW12204   4.129   0.346   1.305  0.3940 -0.1913  0.7168
  860SOL    HW112205   4.113   0.443   1.288 -1.2105 -0.5699 -0.0078
  860SOL    HW212206   4.225   0.324   1.289  0.4400  0.9652 -0.6633
  861SOL     OW12207   1.240   2.339   1.737 -0.4560  0.3137  0.0978
  861SOL    HW112208   1.211   2.407   1.805 -0.6430  1.2300 -0.8752
  861SOL    HW212209   1.225   2.376   1.646  0.2859 -0.6969 -0.4387
  862SOL     OW12210   0.050   7.292   2.084 -0.0613  0.3568  0.2280
  862SOL    HW112211   0.088   7.376   2.047  0.1559  0.7510  1.3271
  862SOL    HW212212  -0.049   7.299   2.089 -0.0506  0.5036  0.2185
  863SOL     OW12213   9.314   9.732   1.315  0.5517  0.2839  0.5887
  863SOL    HW112214   9.352   9.750   1.406 -0.1181  2.2021  0.5036
  863SOL    HW212215   9.252   9.806   1.289  0.6797 -0.2667 -1.4011
  864SOL     OW12216   9.853   2.513   0.541  0.3596 -0.3160 -0.2454
  864SOL    HW112217   9.942   2.474   0.565  0.4505 -1.7276 -2.7419
  864SOL    HW212218   9.784   2.441   0.539 -0.7452  0.6880  1.1482
  865SOL     OW12219   0.484   7.146   1.004  0.5318 -0.0823  0.1161
  865SOL    HW112220   0.582   7.132   0.997  0.7415  0.7250  1.2277
  865SOL    HW212221   0.465   7.213   1.076 -0.8029  0.1018 -0.3860
  866SOL     OW12222   2.977   2.832   2.332 -0.1732  0.1152  0.4052
  866SOL    HW112223   3.020   2.902   2.390  0.1803 -0.4035  0.7692
  866SOL    HW212224   2.880   2.852   2.323  0.2322  1.6443 -0.9061
  867SOL     OW12225   3.033   1.219   1.214 -0.0622 -0.6044 -0.3341
  867SOL    HW112226   3.127   1.191   1.192  1.0109  1.8362  0.9185
  867SOL    HW212227   3.025   1.236   1.312 -0.7013  3.0626 -0.9560
  868SOL     OW12228   1.738   0.057   1.374 -0.0463  0.4735 -0.2881
  868SOL    HW112229   1.730  -0.038   1.403  0.9617 -0.0748 -1.7587
  868SOL    HW212230   1.827   0.072   1.330 -1.0443  1.5537 -2.0250
  869SOL     OW12231   3.931   3.923   0.544  0.3275 -0.5966 -0.8102
  869SOL    HW112232   4.016   3.884   0.509  1.0550 -0.0105  0.2577
  869SOL    HW212233   3.952   4.003   0.600 -1.0029  0.1334 -1.3308
  870SOL     OW12234   1.763   1.000   1.721 -0.1039 -0.5004 -0.4442
  870SOL    HW112235   1.679   1.049   1.697 -0.2734 -1.0382 -0.9764
  870SOL    HW212236   1.741   0.903   1.733 -0.0303 -0.2772  1.8755
  871SOL     OW12237   0.821   0.782   1.004 -0.6223 -0.0018  0.8102
  871SOL    HW112238   0.843   0.721   0.928 -1.8943 -0.9820  1.2209
  871SOL    HW212239   0.731   0.822   0.990 -0.9970 -0.4358  1.9614
  872SOL     OW12240   1.918   0.972   0.622  0.0167  0.8151  0.6552
  872SOL    HW112241   1.819   0.987   0.615 -0.3074 -0.6350  1.9245
  872SOL    HW212242   1.955   1.031   0.694 -0.1928  0.2563  1.2297
  873SOL     OW12243   0.700   8.856   0.431  0.2053 -0.1228  0.1402
  873SOL    HW112244   0.607   8.859   0.394  0.8699  1.5697 -1.4764
  873SOL    HW212245   0.696   8.858   0.531 -1.4585  1.0161  0.0730
  874SOL     OW12246   9.391   0.315   1.251 -0.0233 -0.8003  0.2737
  874SOL    HW112247   9.396   0.414   1.238  1.6623 -0.8704  0.2508
  874SOL    HW212248   9.363   0.271   1.165 -1.0442 -0.3231  0.3635
  875SOL     OW12249  -0.023   3.391   2.251  0.1536  0.4737  0.3624
  875SOL    HW112250  -0.013   3.327   2.327  2.3462  1.2814  0.7901
  875SOL    HW212251   0.012   3.350   2.167 -0.0835  0.4543  0.2723
  876SOL     OW12252   9.796   8.392   1.196  0.0413 -0.0384  0.2118
  876SOL    HW112253   9.764   8.297   1.204  3.3274 -1.3216 -1.2089
  876SOL    HW212254   9.872   8.396   1.131  1.6556  3.1808  2.2211
  877SOL     OW12255   3.635   8.469   0.935  0.4046  0.6717 -0.1278
  877SOL    HW112256   3.682   8.507   1.015 -1.2030  0.1601  1.0887
  877SOL    HW212257   3.554   8.419   0.965 -1.0096  1.6817 -2.2010
  879SOL     OW12258   3.358   2.064   0.394 -0.8059  0.2032  0.0772
  879SOL    HW112259   3.320   2.091   0.482  2.3459 -0.0692  1.6161
  879SOL    HW212260   3.424   2.133   0.364 -3.0117  1.1162 -2.9235
  881SOL     OW12261   8.834   1.917   0.648 -0.3994  0.3631  0.0393
  881SOL    HW112262   8.910   1.883   0.593 -0.7903 -0.0867 -0.2155
  881SOL    HW212263   8.756   1.937   0.590  0.1937  2.7872  0.0179
  882SOL     OW12264   0.789   4.005   1.022  0.3353  0.4076  0.4504
  882SOL    HW112265   0.830   4.020   0.932 -0.4490 -0.5079 -0.0688
  882SOL    HW212266   0.790   4.090   1.074  0.9459  0.9030 -0.3642
  884SOL     OW12267   9.295   5.072   1.880  0.2791 -0.1676  0.3099
  884SOL    HW112268   9.211   5.125   1.868 -0.6155 -1.8081 -0.9897
  884SOL    HW212269   9.322   5.072   1.976 -1.2794  0.2907  0.7537
  885SOL     OW12270   7.751   8.815   2.302  0.2616  0.2206  0.2388
  885SOL    HW112271   7.816   8.756   2.349 -0.4912  0.0703  1.1184
  885SOL    HW212272   7.697   8.760   2.237  1.7105  0.5410 -1.2575
  886SOL     OW12273   3.888  -0.050   2.148 -0.1758  0.7009  0.1397
  886SOL    HW112274   3.911   0.036   2.102  1.9777 -0.7930 -1.6473
  886SOL    HW212275   3.855  -0.116   2.081 -1.3044 -0.0618  1.4312
  887SOL     OW12276   2.056   6.017   1.523  0.3673  0.5595  0.2366
  887SOL    HW112277   2.145   6.012   1.478  0.5037  0.0168  0.5576
  887SOL    HW212278   2.050   6.102   1.576  1.6588 -0.5188  2.1873
  888SOL     OW12279   1.804   7.382   1.011  0.3501 -0.3241  0.1181
  888SOL    HW112280   1.896   7.355   1.038 -0.2390 -0.9642  1.5392
  888SOL    HW212281   1.809   7.456   0.944  1.8750  1.0110  1.6842
  890SOL     OW12282   2.624   6.192   2.163  0.2103 -0.3049  0.6987
  890SOL    HW112283   2.713   6.172   2.121  0.5918  2.1891  0.2259
  890SOL    HW212284   2.629   6.280   2.210 -2.3540  0.4376 -0.3508
  893SOL     OW12285   8.823   8.923   1.782  0.0482 -0.0476  0.4682
  893SOL    HW112286   8.851   9.019   1.786 -0.2263  0.0231  0.6272
  893SOL    HW212287   8.885   8.868   1.837 -0.7902  0.2621  1.7231
  894SOL     OW12288   0.603   5.690   1.258  0.0814 -0.3641 -0.0127
  894SOL    HW112289   0.517   5.659   1.217  0.0449  0.9275 -0.9436
  894SOL    HW212290   0.589   5.779   1.301  1.1318  0.2379 -0.8768
  895SOL     OW12291   2.989   1.337   0.693 -0.0270 -0.0979 -0.3052
  895SOL    HW112292   2.949   1.340   0.784 -1.5002 -0.1321 -0.9336
  895SOL    HW212293   3.087   1.360   0.698 -0.5654  1.9946  1.0187
  897SOL     OW12294   8.974   0.906   0.949 -0.4206  0.3696  0.4395
  897SOL    HW112295   8.899   0.923   0.885 -1.6533 -0.2269  1.6987
  897SOL    HW212296   9.061   0.908   0.900 -1.3510 -0.2248 -1.2625
  898SOL     OW12297   8.970   2.444   0.711 -0.5491  0.0268  0.2074
  898SOL    HW112298   8.918   2.361   0.690 -2.2897  1.2377 -0.2969
  898SOL    HW212299   8.915   2.505   0.768  0.6960  0.8831  0.5065
  899SOL     OW12300   2.410   4.416   0.826 -0.3623 -0.1912  0.3699
  899SOL    HW112301   2.448   4.504   0.855  0.9101 -0.1516 -1.3667
  899SOL    HW212302   2.484   4.349   0.818 -0.9444 -0.6885 -0.9744
  900SOL     OW12303   0.931   0.224   1.222  0.0679 -0.1999  0.2451
  900SOL    HW112304   0.995   0.288   1.180  1.7105 -1.4464  0.7745
  900SOL    HW212305   0.849   0.273   1.252  0.0981  1.1613 -1.8296
  901SOL     OW12306   2.281   0.294   1.074 -0.1175 -0.1287 -0.5681
  901SOL    HW112307   2.353   0.324   1.136  1.1176 -0.3611 -1.8501
  901SOL    HW212308   2.204   0.357   1.080  0.5462  0.6290  0.1911
  902SOL     OW12309   8.398   9.196   1.196 -0.5075 -0.0615  0.1848
  902SOL    HW112310   8.451   9.155   1.270  1.7833  2.2441 -0.1079
  902SOL    HW212311   8.362   9.285   1.225  0.5145  0.9281 -1.4609
  903SOL     OW12312   0.586   3.875   1.178 -0.1611  0.2912 -0.4151
  903SOL    HW112313   0.664   3.923   1.137  0.5275 -0.2647  0.2325
  903SOL    HW212314   0.525   3.843   1.106  1.3390 -1.1997 -1.0652
  904SOL     OW12315   0.754   9.379   1.965 -0.2431  0.7680  0.7502
  904SOL    HW112316   0.759   9.289   2.009 -0.9154  0.3430 -0.0284
  904SOL    HW212317   0.666   9.422   1.986 -0.2572  0.8922  0.4339
  908SOL     OW12318   2.710   3.527   0.851 -0.0440 -0.4032  0.6236
  908SOL    HW112319   2.671   3.551   0.762  1.2503 -1.3371 -0.2151
  908SOL    HW212320   2.789   3.466   0.838  0.9770  0.5043  2.3390
  909SOL     OW12321   0.933   1.417   0.575  0.2587  0.4105  0.0049
  909SOL    HW112322   1.000   1.489   0.596 -1.3866  2.3618 -1.2352
  909SOL    HW212323   0.928   1.404   0.476 -0.9728  0.0664  0.1075
  910SOL     OW12324   2.088   0.957   2.038  0.3421 -0.0327  0.1492
  910SOL    HW112325   2.084   0.957   1.938  0.3626  1.1261  0.1412
  910SOL    HW212326   1.998   0.978   2.075  0.4035 -0.1616  0.3738
  912SOL     OW12327   7.657   8.845   0.705  0.0770 -0.0362 -0.8120
  912SOL    HW112328   7.609   8.759   0.720 -2.9888  1.6117 -0.8895
  912SOL    HW212329   7.724   8.858   0.778 -1.7570 -0.9191  1.0948
  913SOL     OW12330   8.569   0.044   1.669 -0.4809 -0.9449  0.0918
  913SOL    HW112331   8.628   0.089   1.736 -1.1935 -1.2166  0.9089
  913SOL    HW212332   8.623  -0.020   1.615  0.3032  0.0209 -0.2859
  914SOL     OW12333   9.702   4.076   0.627 -0.3091  0.5861  0.0372
  914SOL    HW112334   9.607   4.046   0.627 -0.6133  1.5245  0.3205
  914SOL    HW212335   9.705   4.176   0.628  0.6544  0.5878  3.4080
  915SOL     OW12336   0.652   3.336   1.896  0.0887 -0.4386  0.2024
  915SOL    HW112337   0.689   3.390   1.820  2.7901 -2.6083 -0.1156
  915SOL    HW212338   0.708   3.350   1.978 -1.3307 -0.0209  1.1135
  916SOL     OW12339   1.338   3.609   1.355 -0.7349  0.1615  0.0125
  916SOL    HW112340   1.436   3.601   1.376 -0.7940  0.5041  0.4493
  916SOL    HW212341   1.301   3.688   1.405 -1.5396 -0.8342  1.0070
  917SOL     OW12342   0.938   6.502   1.227 -0.6452  0.1641  0.0409
  917SOL    HW112343   0.947   6.585   1.282 -0.2990  0.2621 -0.1598
  917SOL    HW212344   0.960   6.523   1.132 -2.0401  0.1787 -0.2940
  918SOL     OW12345   3.241   1.774   1.410  0.1803  0.0383  0.0947
  918SOL    HW112346   3.156   1.727   1.386  1.0973 -0.1093 -3.0826
  918SOL    HW212347   3.304   1.710   1.454 -0.6533 -0.3119  0.7804
  919SOL     OW12348   1.190   0.217   2.160  0.4899  0.2191 -0.2213
  919SOL    HW112349   1.249   0.148   2.202  0.5935  1.3758  1.5888
  919SOL    HW212350   1.098   0.209   2.198  0.3293  0.6428 -0.5225
  920SOL     OW12351   2.213   7.092   1.514 -0.3471 -0.0309  0.4949
  920SOL    HW112352   2.115   7.079   1.528 -0.1175 -1.1344  1.1534
  920SOL    HW212353   2.263   7.027   1.571  0.7693  0.5853  0.2234
  921SOL     OW12354   1.004   4.133   0.780  0.0167  0.6726 -0.2626
  921SOL    HW112355   1.056   4.218   0.779  1.0825  0.0374  0.4364
  921SOL    HW212356   1.033   4.076   0.857 -1.7169  0.3014  0.1478
  922SOL     OW12357   9.682   5.703   2.175  0.0404  0.2642 -0.3696
  922SOL    HW112358   9.703   5.789   2.221 -0.7619 -0.1268  0.7387
  922SOL    HW212359   9.764   5.670   2.127  1.4047 -0.1879  2.1956
  923SOL     OW12360   0.856   4.102   0.342  0.1444 -0.4660 -0.0380
  923SOL    HW112361   0.869   4.194   0.379  0.6782 -0.0046 -1.3544
  923SOL    HW212362   0.871   4.035   0.415 -1.2488  0.5101  1.1799
  924SOL     OW12363   2.323   6.725   2.100  0.2125 -0.0255 -0.2928
  924SOL    HW112364   2.376   6.793   2.148 -0.3753  0.2036  0.0351
  924SOL    HW212365   2.253   6.687   2.161  0.6354 -1.0282 -0.4229
  925SOL     OW12366   3.281   1.533   1.214 -0.5372 -0.6128  0.8804
  925SOL    HW112367   3.267   1.544   1.115 -1.2682  0.4771  1.0902
  925SOL    HW212368   3.200   1.568   1.262  0.8591  1.2455  1.9604
  926SOL     OW12369   0.186   0.833   1.540 -0.0538 -0.1423 -0.2181
  926SOL    HW112370   0.193   0.856   1.637 -0.1782 -3.5038  0.6570
  926SOL    HW212371   0.248   0.890   1.487  0.3947  1.3720  1.8857
  927SOL     OW12372   3.670   1.319   1.984 -0.3485 -0.0338  0.2815
  927SOL    HW112373   3.573   1.340   1.997 -0.0195  2.1434 -0.5125
  927SOL    HW212374   3.691   1.231   2.026 -2.0500  0.8054  3.0223
  928SOL     OW12375   1.351   0.389   1.725 -0.4219 -0.1078  0.1980
  928SOL    HW112376   1.332   0.431   1.636 -1.3480 -0.6984  0.1135
  928SOL    HW212377   1.393   0.300   1.711  0.0519  0.0870  0.3651
  929SOL     OW12378   3.494   1.860   0.546 -0.3961  0.6004 -0.2152
  929SOL    HW112379   3.456   1.937   0.495  0.0532 -0.0639 -1.5867
  929SOL    HW212380   3.531   1.893   0.633 -1.6403  1.6722 -0.0708
  930SOL     OW12381   0.611   4.786   1.820 -0.9306 -0.3042  0.0179
  930SOL    HW112382   0.552   4.863   1.842 -0.9676 -0.4916  0.5823
  930SOL    HW212383   0.703   4.819   1.800 -0.3341 -0.2856  2.5568
  932SOL     OW12384   0.255   5.693   0.587 -0.1978  0.1351 -0.3633
  932SOL    HW112385   0.335   5.726   0.637 -0.5999  0.8868 -0.2145
  932SOL    HW212386   0.282   5.618   0.527  0.7789  0.8921 -0.8858
  933SOL     OW12387   3.035   9.401   0.340 -0.2853 -0.1476 -0.1469
  933SOL    HW112388   3.057   9.391   0.243  1.5911  0.4924  0.1980
  933SOL    HW212389   2.979   9.483   0.353 -2.2785 -1.3631 -0.9385
  934SOL     OW12390   3.010   5.046   1.716 -0.0396  0.9358  0.3229
  934SOL    HW112391   3.012   5.020   1.813 -1.7684 -0.2724  0.0616
  934SOL    HW212392   3.069   4.985   1.664 -0.4987  0.4395  0.3748
  935SOL     OW12393   8.140   0.741   1.471  0.2298 -0.0868  0.6001
  935SOL    HW112394   8.135   0.701   1.562 -1.4863 -2.0552 -0.3126
  935SOL    HW212395   8.110   0.674   1.403  1.9874  1.1747 -1.4813
  936SOL     OW12396   2.032   2.538   1.045 -0.0376 -0.3688  0.1055
  936SOL    HW112397   2.063   2.509   0.954 -0.9880  1.1940 -0.7333
  936SOL    HW212398   2.002   2.633   1.041 -0.5867 -0.4552  1.9463
  937SOL     OW12399   9.697   4.347   0.596 -0.1437 -0.2238 -0.3679
  937SOL    HW112400   9.614   4.381   0.639  0.7484  1.4405  0.0773
  937SOL    HW212401   9.701   4.380   0.502 -0.7168 -1.5627 -0.8794
  938SOL     OW12402   8.866   6.513   0.975 -0.7303  0.2656  0.0268
  938SOL    HW112403   8.961   6.482   0.980 -0.9484 -0.3711  0.2061
  938SOL    HW212404   8.864   6.612   0.960 -0.0254  0.0509 -1.5438
  939SOL     OW12405   2.314   8.331   1.302  0.4319  0.3339  0.1532
  939SOL    HW112406   2.374   8.266   1.256 -0.5728  0.2238 -1.0488
  939SOL    HW212407   2.368   8.397   1.354  1.4671 -1.4043  1.3175
  940SOL     OW12408   0.817   0.435   0.357  0.7392  0.1719 -0.2568
  940SOL    HW112409   0.883   0.363   0.336  0.5322  0.1038 -0.6718
  940SOL    HW212410   0.724   0.403   0.335  0.6594  0.6210 -0.5872
  941SOL     OW12411   2.562   4.650   0.923  0.3469 -0.5726 -0.2449
  941SOL    HW112412   2.542   4.730   0.980 -1.5398 -1.4049  0.3225
  941SOL    HW212413   2.600   4.679   0.836  0.7796  0.8743  0.4145
  942SOL     OW12414   2.643   2.156   0.789  0.0048  0.1914  0.0277
  942SOL    HW112415   2.688   2.149   0.878 -1.7531  1.3548  1.0542
  942SOL    HW212416   2.551   2.116   0.795 -0.7153  1.6532 -0.7809
  943SOL     OW12417   8.763   9.773   1.808  0.3407 -0.4276  0.0285
  943SOL    HW112418   8.812   9.831   1.743 -0.3816  0.1308 -0.0228
  943SOL    HW212419   8.678   9.741   1.766 -1.1538  1.6175  1.3871
  945SOL     OW12420   8.294   0.570   1.135 -0.5170  0.8989 -0.2305
  945SOL    HW112421   8.351   0.627   1.075 -1.4010  2.2276  0.1799
  945SOL    HW212422   8.199   0.575   1.105 -0.5318 -0.7639 -0.4860
  949SOL     OW12423   0.044   9.108   1.967 -0.1130 -1.0005 -0.7264
  949SOL    HW112424   0.016   9.122   2.062  0.3377 -2.3048 -0.3937
  949SOL    HW212425   0.011   9.184   1.911 -0.9019 -0.5275  0.3637
  950SOL     OW12426   2.865   6.168   1.952  0.0842 -0.0754  0.4955
  950SOL    HW112427   2.835   6.260   1.929 -0.3388 -0.1999  0.5471
  950SOL    HW212428   2.850   6.108   1.873 -1.1158 -0.4442  0.9953
  951SOL     OW12429   1.548   9.208   1.606  0.3390  0.4549  0.2488
  951SOL    HW112430   1.626   9.268   1.621  1.1164 -0.6061  0.5562
  951SOL    HW212431   1.573   9.114   1.631 -0.4921 -0.1869 -1.2446
  952SOL     OW12432   8.012   1.374   0.550  0.3213 -0.5755  0.1409
  952SOL    HW112433   8.094   1.431   0.552  1.0433 -1.5749 -0.7092
  952SOL    HW212434   8.035   1.282   0.580  0.0713 -1.5606 -2.6242
  953SOL     OW12435   1.464   2.350   1.145 -0.3317 -0.3826 -0.3075
  953SOL    HW112436   1.425   2.297   1.070 -0.3307  0.4017 -0.8713
  953SOL    HW212437   1.547   2.305   1.179 -1.0499 -1.4318  0.1107
  955SOL     OW12438   1.137  -0.020   0.984  0.0040  0.3909  0.1782
  955SOL    HW112439   1.200   0.016   1.053  2.9273 -0.2734 -2.0538
  955SOL    HW212440   1.107   0.054   0.924  0.1320  0.3670  0.0864
  957SOL     OW12441   8.661   1.516   1.462 -0.1685 -0.0352  0.3718
  957SOL    HW112442   8.564   1.518   1.485 -0.0138 -1.3963  1.2308
  957SOL    HW212443   8.714   1.549   1.540  0.0441  1.2811 -0.3089
  958SOL     OW12444   9.408   6.305   1.481 -0.0227  0.2836 -0.4438
  958SOL    HW112445   9.362   6.249   1.550 -1.0867  0.6019 -0.8936
  958SOL    HW212446   9.502   6.323   1.511 -0.1549 -0.4249  0.4405
  959SOL     OW12447   0.720   7.025   1.513  0.5320 -0.6272 -0.1141
  959SOL    HW112448   0.640   6.967   1.499  0.4003 -0.2812 -0.7988
  959SOL    HW212449   0.750   7.062   1.426  1.2402 -0.4870  0.1862
  960SOL     OW12450   2.216   4.019   1.486  0.2183  0.5190 -1.0456
  960SOL    HW112451   2.202   3.983   1.394 -0.2694 -1.0964 -0.3454
  960SOL    HW212452   2.129   4.054   1.521  0.2747  0.5455 -0.9337
  961SOL     OW12453   1.032   5.015   1.257 -0.3268  0.5142 -0.4083
  961SOL    HW112454   0.984   5.009   1.170  1.4030 -0.1556 -1.3351
  961SOL    HW212455   1.077   4.929   1.276 -0.5685  0.7109  1.0960
  962SOL     OW12456   2.538   3.879   1.252 -0.5002  0.5517 -0.1569
  962SOL    HW112457   2.568   3.972   1.233 -1.5382  1.1748  1.2002
  962SOL    HW212458   2.503   3.837   1.168  0.0213  1.3562 -0.7813
  963SOL     OW12459   3.704   0.795   2.104 -0.0218 -0.2654  0.1296
  963SOL    HW112460   3.616   0.775   2.146 -0.6349  0.7489 -0.6530
  963SOL    HW212461   3.690   0.828   2.010  1.0207  2.1286  0.7665
  965SOL     OW12462   9.067   0.071   2.270 -0.1816  1.1577 -0.1715
  965SOL    HW112463   9.080   0.123   2.185 -0.5554  0.5881 -0.5782
  965SOL    HW212464   9.055   0.135   2.346 -3.1705  1.6837 -1.0480
  967SOL     OW12465   8.411   7.974   0.406 -0.5497 -0.6788 -0.1606
  967SOL    HW112466   8.465   8.026   0.472 -0.0574 -1.6402  0.1995
  967SOL    HW212467   8.464   7.895   0.374 -1.7391 -1.6250  0.1872
  968SOL     OW12468   1.098   3.494   0.725 -0.3164  0.1699 -0.2938
  968SOL    HW112469   1.127   3.511   0.631  1.4719  0.0614  0.2201
  968SOL    HW212470   1.173   3.453   0.776 -1.4457 -0.2605  1.0541
  969SOL     OW12471   8.612   7.973   1.385 -0.2646 -0.2382  0.5178
  969SOL    HW112472   8.537   8.035   1.364  0.2452 -0.5344 -2.3213
  969SOL    HW212473   8.694   8.026   1.407 -0.3001  0.0890 -0.1407
  970SOL     OW12474  -0.039   1.806   0.471  0.0020  0.5306 -0.1128
  970SOL    HW112475  -0.008   1.869   0.400  0.0602 -1.5936 -2.0617
  970SOL    HW212476  -0.129   1.769   0.446 -0.1889  0.1203  1.1475
  971SOL     OW12477   2.702   6.184   0.792 -0.2303 -0.0576  0.2354
  971SOL    HW112478   2.766   6.108   0.782  0.5507  0.4411  1.3048
  971SOL    HW212479   2.721   6.252   0.721  0.1776 -0.0940  0.3061
  973SOL     OW12480   0.522   2.819   2.300  0.8506 -0.4240 -0.0832
  973SOL    HW112481   0.451   2.752   2.319  1.0410 -0.4719  0.4683
  973SOL    HW212482   0.515   2.849   2.205 -0.1585 -0.1210  0.0852
  975SOL     OW12483   3.435   8.616   0.483 -0.0447  0.5616 -0.0864
  975SOL    HW112484   3.505   8.665   0.431  0.8185  1.9462  2.3246
  975SOL    HW212485   3.477   8.569   0.561 -1.3780 -1.1927 -0.3731
  976SOL     OW12486   1.284   5.705   2.111  0.2286 -0.1213  0.1491
  976SOL    HW112487   1.292   5.663   2.020 -1.2861  1.3795 -0.7072
  976SOL    HW212488   1.188   5.727   2.128  0.9596  2.7474  0.6797
  978SOL     OW12489   8.990   2.700   1.036 -0.0382 -0.5940 -0.0560
  978SOL    HW112490   8.985   2.759   0.955 -1.1395 -1.7825 -0.8798
  978SOL    HW212491   9.085   2.687   1.062  0.2679  0.7219 -0.4816
  979SOL     OW12492   1.877   3.835   1.240 -0.0182 -0.0293  0.4173
  979SOL    HW112493   1.786   3.864   1.270 -0.9640 -0.6075 -1.7873
  979SOL    HW212494   1.868   3.771   1.164  2.2480  0.3927 -0.2413
  980SOL     OW12495   3.604   2.540   0.929  0.1323 -0.1208 -0.3534
  980SOL    HW112496   3.650   2.596   0.998  1.4644 -1.3092 -0.2582
  980SOL    HW212497   3.669   2.517   0.856 -1.2721  1.1775 -2.0663
  981SOL     OW12498   1.318   3.391   0.883  0.4379  0.0532 -0.1886
  981SOL    HW112499   1.343   3.295   0.873  0.6542 -0.1762  2.2590
  981SOL    HW212500   1.390   3.449   0.846 -0.0169 -0.7198 -2.3288
  982SOL     OW12501   2.388   9.233   0.604 -0.4605  0.0095 -0.1210
  982SOL    HW112502   2.397   9.136   0.582 -0.3456  0.4585 -2.0994
  982SOL    HW212503   2.292   9.257   0.612 -0.5012 -0.1415 -0.1521
  983SOL     OW12504   1.750   0.782   0.970 -0.1394  0.0654  0.1192
  983SOL    HW112505   1.710   0.819   1.054 -2.2827  1.1733 -1.3351
  983SOL    HW212506   1.830   0.835   0.944 -0.3934  0.6931  0.6214
  984SOL     OW12507   9.095   8.466   1.706 -0.4812 -0.7917 -0.1174
  984SOL    HW112508   9.003   8.446   1.674 -1.9785 -0.1211  3.4933
  984SOL    HW212509   9.113   8.564   1.696 -0.3284 -0.8448 -0.3719
  986SOL     OW12510   0.828   7.308   2.289  0.0232  0.0885 -0.2285
  986SOL    HW112511   0.863   7.397   2.317 -0.3743  0.0329  0.4470
  986SOL    HW212512   0.883   7.273   2.213  0.4905  0.6783 -0.1661
  988SOL     OW12513   2.945   1.539   1.089  0.4586 -0.6811  0.3368
  988SOL    HW112514   2.970   1.443   1.074  0.3982 -0.3143 -2.3037
  988SOL    HW212515   2.852   1.555   1.056  0.8421  0.5169 -0.1673
  989SOL     OW12516   0.938   8.228   0.982  0.6852 -0.1551  0.3201
  989SOL    HW112517   0.970   8.221   0.888  0.7907 -0.2866  0.3648
  989SOL    HW212518   0.912   8.322   1.002  0.7965 -0.0985  0.2029
  990SOL     OW12519   0.759   7.530   1.598 -1.0207 -0.1777 -0.4536
  990SOL    HW112520   0.764   7.570   1.689 -2.1951  1.1468 -0.9485
  990SOL    HW212521   0.752   7.430   1.605 -0.0441 -0.1610  0.8547
  992SOL     OW12522   2.925   1.401   0.432  0.4499  0.2317 -0.5977
  992SOL    HW112523   3.015   1.407   0.389  1.1578  2.3910  1.0914
  992SOL    HW212524   2.933   1.354   0.520 -0.1935 -0.2118 -0.7745
  993SOL     OW12525   9.129   2.976   1.324 -0.3559  0.0710  1.0710
  993SOL    HW112526   9.177   2.952   1.239 -1.0634  0.2121  0.6280
  993SOL    HW212527   9.185   3.042   1.375 -0.2782  0.5836  0.3416
  995SOL     OW12528   2.273   3.016   0.798  0.4686  0.2377 -0.0039
  995SOL    HW112529   2.286   3.054   0.890 -2.2288 -0.6059  0.7692
  995SOL    HW212530   2.282   2.916   0.802 -0.0974  0.1657 -0.5850
  996SOL     OW12531   8.054   8.252   2.251 -0.4121  0.0041 -0.2502
  996SOL    HW112532   8.091   8.192   2.322 -1.4045 -0.2722  0.0395
  996SOL    HW212533   8.127   8.276   2.187  0.3251 -0.3342  0.4498
  998SOL     OW12534   7.319   0.234   1.206 -0.0416  0.7631  0.1521
  998SOL    HW112535   7.305   0.221   1.304 -0.2789  0.5617  0.0943
  998SOL    HW212536   7.238   0.203   1.157  0.9590 -1.2725 -0.2576
  999SOL     OW12537   0.373   5.634   0.866  0.0086 -0.5313 -0.0221
  999SOL    HW112538   0.432   5.706   0.830  0.4478 -0.8945 -0.0319
  999SOL    HW212539   0.416   5.546   0.853 -0.6610 -0.8274 -0.2725
 1000SOL     OW12540   7.785   0.820   1.061  0.4790  0.6995 -1.0355
 1000SOL    HW112541   7.761   0.793   1.154  0.8423  0.8350 -0.9012
 1000SOL    HW212542   7.874   0.866   1.061  0.5207  0.6268 -1.4611
 1001SOL     OW12543   2.764   3.313   0.554  0.2373 -0.3101  0.0570
 1001SOL    HW112544   2.862   3.302   0.568  0.4882 -0.7105 -1.9269
 1001SOL    HW212545   2.716   3.232   0.589  0.7867 -0.9696 -0.7016
 1003SOL     OW12546   2.928   9.648   1.422 -0.3295  0.1730 -0.1669
 1003SOL    HW112547   2.963   9.581   1.357 -2.4359 -3.3118  2.1249
 1003SOL    HW212548   2.832   9.668   1.400  0.6342  3.5784 -1.6326
 1004SOL     OW12549   0.132   2.394   1.994 -0.2747  0.6044  0.1091
 1004SOL    HW112550   0.108   2.352   1.907 -2.0064  0.5210  0.6106
 1004SOL    HW212551   0.166   2.323   2.056  0.9684  0.6664 -0.4955
 1005SOL     OW12552   2.127   0.357   1.657  0.3582 -0.3940  0.1560
 1005SOL    HW112553   2.203   0.310   1.613  1.0842 -1.4197  2.4246
 1005SOL    HW212554   2.077   0.293   1.715  0.3477  1.2326  1.9948
 1006SOL     OW12555   8.670   9.187   1.633  0.3913 -0.5578  0.3355
 1006SOL    HW112556   8.706   9.280   1.624  1.9979 -1.4464 -3.3308
 1006SOL    HW212557   8.581   9.182   1.588  0.9435 -1.0982 -0.7181
 1008SOL     OW12558   1.328   3.238   1.729 -0.2346  0.0155  0.1838
 1008SOL    HW112559   1.425   3.227   1.752 -0.1552  1.4076  0.5209
 1008SOL    HW212560   1.277   3.158   1.762  0.6367 -0.2594  0.8881
 1011SOL     OW12561   0.835   1.202   2.092 -0.1516  0.2377  0.6704
 1011SOL    HW112562   0.810   1.292   2.057  4.1929  2.4014  2.8069
 1011SOL    HW212563   0.890   1.154   2.025 -0.1788  0.2825  0.6159
 1012SOL     OW12564   8.598   8.872   1.646  0.0196 -0.1925  0.0897
 1012SOL    HW112565   8.579   8.952   1.589  2.6791 -0.0815 -0.6917
 1012SOL    HW212566   8.675   8.892   1.707 -0.8650 -1.3414  1.6309
 1013SOL     OW12567   1.025   5.761   1.063  0.5072 -0.4768 -0.0454
 1013SOL    HW112568   1.076   5.725   1.141  1.3430  0.2435 -0.2618
 1013SOL    HW212569   1.055   5.715   0.979 -0.0975 -0.9571  0.0018
 1014SOL     OW12570   1.698   5.278   1.585  0.3893 -0.6381  0.0649
 1014SOL    HW112571   1.736   5.228   1.662  2.0874 -0.5803 -0.7002
 1014SOL    HW212572   1.727   5.374   1.590  0.1657 -0.5417 -0.4027
 1015SOL     OW12573   8.671   7.751   1.185  0.2930 -0.1898  0.2593
 1015SOL    HW112574   8.771   7.746   1.187  0.2244 -2.0171 -0.2729
 1015SOL    HW212575   8.643   7.846   1.172  1.9417  0.4469  1.2081
 1016SOL     OW12576   7.761   1.285   0.644 -0.4328 -0.0111  0.1990
 1016SOL    HW112577   7.831   1.320   0.582 -1.0663 -1.7809 -1.5537
 1016SOL    HW212578   7.804   1.242   0.723  0.4770 -1.2246 -0.9341
 1018SOL     OW12579   3.888   8.154   1.218  0.1010 -0.8911 -0.2491
 1018SOL    HW112580   3.842   8.136   1.305 -1.9680  0.3541 -1.0518
 1018SOL    HW212581   3.822   8.145   1.143  0.9137  1.8718 -1.3451
 1019SOL     OW12582   1.473   0.530   1.976  0.6799  0.0587  0.1915
 1019SOL    HW112583   1.453   0.468   2.052  1.9240  0.5801  0.9694
 1019SOL    HW212584   1.466   0.481   1.889 -2.1897 -0.1893  0.5196
 1021SOL     OW12585   2.684   5.608   0.794 -0.4202  0.3885  0.0657
 1021SOL    HW112586   2.644   5.646   0.711  1.0731  2.5858  0.2929
 1021SOL    HW212587   2.693   5.681   0.863  0.0659 -0.9842  1.4891
 1022SOL     OW12588   0.776   2.366   0.408 -0.3567 -0.1175  0.6433
 1022SOL    HW112589   0.801   2.293   0.345  3.3201  0.6488  1.0961
 1022SOL    HW212590   0.746   2.446   0.356 -2.2456 -1.1550  0.0856
 1023SOL     OW12591   1.203   3.816   1.486  0.5420 -0.2726 -0.6050
 1023SOL    HW112592   1.210   3.915   1.476 -2.5411  0.0272 -0.1559
 1023SOL    HW212593   1.190   3.792   1.582  3.0272 -1.2833 -0.4711
 1024SOL     OW12594   1.821   3.809   0.624 -0.2685 -0.0435 -0.5416
 1024SOL    HW112595   1.914   3.846   0.615 -0.6057  1.1099  0.5678
 1024SOL    HW212596   1.792   3.815   0.720 -1.3205 -0.8047 -0.8082
 1025SOL     OW12597   3.011   3.570   0.723 -0.8532 -0.1047  0.0749
 1025SOL    HW112598   2.987   3.492   0.665  0.3048 -1.0867  0.8897
 1025SOL    HW212599   3.109   3.588   0.716 -0.5173 -0.8171  2.3895
 1026SOL     OW12600   9.464   2.932   0.716 -0.5189  0.5028  0.2559
 1026SOL    HW112601   9.551   2.958   0.758 -0.2216  0.5364 -0.3875
 1026SOL    HW212602   9.481   2.867   0.642 -1.0110  0.8001 -0.1183
 1027SOL     OW12603  -0.003   1.659   1.260  0.5144  0.0244 -0.6222
 1027SOL    HW112604   0.048   1.745   1.247  0.9520 -0.3880 -1.6632
 1027SOL    HW212605  -0.036   1.626   1.172  0.9854 -1.2676 -0.3270
 1028SOL     OW12606   9.272   2.551   1.386 -0.7284  0.4273 -0.7422
 1028SOL    HW112607   9.280   2.461   1.428 -1.0440  1.3328  1.3700
 1028SOL    HW212608   9.176   2.571   1.368 -1.0780  1.8453  2.3730
 1029SOL     OW12609   9.439   7.292   1.954  0.2825 -0.5317 -0.2436
 1029SOL    HW112610   9.388   7.374   1.980 -1.2342 -1.1244 -1.2612
 1029SOL    HW212611   9.456   7.236   2.035 -0.5667 -0.2432  0.1457
 1030SOL     OW12612   1.301   4.646   1.828  0.1654  0.8434 -0.4922
 1030SOL    HW112613   1.394   4.668   1.799  1.3351 -1.6570  1.2122
 1030SOL    HW212614   1.297   4.639   1.928 -1.4147 -0.7780 -0.6276
 1031SOL     OW12615   8.788   0.909   0.730 -0.2031  0.3086  0.5041
 1031SOL    HW112616   8.813   0.991   0.679 -2.5838  0.1327 -0.9942
 1031SOL    HW212617   8.699   0.922   0.773 -0.5018 -1.4008  0.4318
 1032SOL     OW12618   1.435   6.489   2.155  0.3132 -0.0115  0.1059
 1032SOL    HW112619   1.425   6.544   2.238 -0.1717 -2.0153  1.4082
 1032SOL    HW212620   1.460   6.549   2.078 -0.0445  1.9839  1.4989
 1033SOL     OW12621   9.466   5.578   2.220 -0.0365 -0.0795 -0.0549
 1033SOL    HW112622   9.546   5.634   2.198  0.4428 -1.2643 -1.3381
 1033SOL    HW212623   9.479   5.485   2.187 -1.2266 -0.7407  1.2578
 1034SOL     OW12624   4.111   1.261   1.408  0.1106 -0.1126  0.3488
 1034SOL    HW112625   4.182   1.332   1.419  0.3595 -0.5040  1.3876
 1034SOL    HW212626   4.021   1.304   1.409  0.2494  0.1853  1.2463
 1035SOL     OW12627   0.253   5.066   0.865 -0.2982  0.1158  0.0677
 1035SOL    HW112628   0.319   5.001   0.829  0.2813  0.8142 -0.1565
 1035SOL    HW212629   0.212   5.118   0.790 -0.1620  0.5585  0.2940
 1037SOL     OW12630   1.773   1.487   0.371  0.1981 -0.3683  0.4265
 1037SOL    HW112631   1.725   1.570   0.341 -0.4179 -0.3975  1.3348
 1037SOL    HW212632   1.861   1.513   0.412  0.0093 -0.1710  0.7044
 1038SOL     OW12633   1.482   4.245   0.758  0.1110  0.3089 -0.2293
 1038SOL    HW112634   1.493   4.206   0.667 -1.3459 -0.3622 -0.1317
 1038SOL    HW212635   1.546   4.321   0.770  0.1645  0.5346 -1.8739
 1039SOL     OW12636   1.284   7.389   1.450 -0.3941 -0.2295  0.4527
 1039SOL    HW112637   1.371   7.367   1.404  0.3946 -0.7870  2.1589
 1039SOL    HW212638   1.238   7.304   1.476 -1.5715  0.0699 -0.6738
 1040SOL     OW12639   3.522   3.299   2.323  0.8470 -0.9841  0.0298
 1040SOL    HW112640   3.618   3.328   2.326  1.9275 -3.6493 -4.1840
 1040SOL    HW212641   3.465   3.377   2.297  2.0791  0.1760  0.7164
 1041SOL     OW12642   8.522   2.128   0.654 -0.4606  0.3286 -0.7030
 1041SOL    HW112643   8.481   2.152   0.743 -1.1079  1.5774 -1.3244
 1041SOL    HW212644   8.456   2.077   0.600 -1.4581  2.8537 -1.9390
 1044SOL     OW12645   4.185   8.764   0.940 -0.3693 -0.0757  0.1075
 1044SOL    HW112646   4.198   8.693   1.009 -0.9600  1.6482  2.0468
 1044SOL    HW212647   4.259   8.760   0.873  1.3266 -0.5388  1.9585
 1045SOL     OW12648   1.168   8.758   0.656 -0.1823  0.2665 -0.5319
 1045SOL    HW112649   1.218   8.838   0.623 -1.7089  1.0171 -1.0866
 1045SOL    HW212650   1.081   8.787   0.697 -0.3461 -1.0337  0.0765
 1046SOL     OW12651   3.051   4.953   1.330 -0.1634 -0.6841 -0.0391
 1046SOL    HW112652   2.954   4.940   1.352 -0.7205  2.0726 -0.6528
 1046SOL    HW212653   3.071   4.911   1.241 -1.2343  0.2129 -0.7188
 1047SOL     OW12654   0.022   6.466   0.901 -0.1971  0.1965 -0.2505
 1047SOL    HW112655   0.022   6.369   0.874 -1.3754 -0.1752  1.0073
 1047SOL    HW212656  -0.027   6.476   0.988  1.5866  1.6604  0.6312
 1048SOL     OW12657   8.948   9.549   1.599 -0.2965 -0.3337  0.3368
 1048SOL    HW112658   8.974   9.563   1.694  2.2770  0.8456 -0.5030
 1048SOL    HW212659   9.010   9.484   1.556 -0.9442 -0.2387 -0.7602
 1049SOL     OW12660   1.353   2.789   1.524 -0.1088 -0.5195 -0.1263
 1049SOL    HW112661   1.381   2.782   1.429  1.0174 -0.6337  0.1996
 1049SOL    HW212662   1.434   2.803   1.582 -0.9936  1.9874  0.5842
 1051SOL     OW12663   3.348   2.948   0.854 -0.4439 -0.7766 -0.4930
 1051SOL    HW112664   3.278   2.960   0.783 -0.8372 -1.8699 -0.2880
 1051SOL    HW212665   3.348   2.854   0.885  0.6395 -0.6058  0.0255
 1053SOL     OW12666   0.003   8.381   0.999  0.3247  0.0181  0.2446
 1053SOL    HW112667   0.095   8.386   0.960  0.1048 -0.8550 -0.3892
 1053SOL    HW212668   0.002   8.313   1.073  0.2649  0.2592  0.4670
 1055SOL     OW12669   0.025   3.859   0.359 -0.0472  0.1728 -0.0566
 1055SOL    HW112670   0.045   3.839   0.455 -2.1056 -0.4280  0.2719
 1055SOL    HW212671  -0.070   3.891   0.351 -0.1315 -0.5049 -1.9951
 1058SOL     OW12672   2.573   0.995   1.058  0.2357  0.3979 -0.4567
 1058SOL    HW112673   2.503   0.934   1.095  0.1432  1.2277  0.7640
 1058SOL    HW212674   2.590   1.069   1.123  0.4084  1.6220 -1.8741
 1059SOL     OW12675   2.411   3.674   1.640 -0.4171 -0.3362  0.1182
 1059SOL    HW112676   2.499   3.628   1.649 -0.7978 -0.7821  1.7802
 1059SOL    HW212677   2.369   3.648   1.553  1.0643 -0.1456 -0.6721
 1060SOL     OW12678   4.182   2.355   1.442 -0.3173 -0.8749 -0.1557
 1060SOL    HW112679   4.150   2.448   1.455 -1.5360 -1.4388  0.9554
 1060SOL    HW212680   4.273   2.345   1.484 -0.5604 -0.4223  0.4824
 1061SOL     OW12681   7.863   0.852   1.494 -0.4163 -0.2652  0.0564
 1061SOL    HW112682   7.878   0.935   1.440 -0.3769 -0.6618 -0.5408
 1061SOL    HW212683   7.949   0.803   1.504 -0.7823 -1.1624 -1.1177
 1062SOL     OW12684   4.271   8.568   0.608  0.3184  0.3820  0.0006
 1062SOL    HW112685   4.171   8.569   0.605  0.2409  1.6070  2.3038
 1062SOL    HW212686   4.302   8.482   0.649  0.2312  0.1549 -0.3952
 1063SOL     OW12687   8.237   1.065   0.956 -0.2800 -0.0763  0.2021
 1063SOL    HW112688   8.323   1.089   1.001 -0.1910 -0.8374  0.4480
 1063SOL    HW212689   8.245   1.084   0.858 -0.1773  0.7844  0.3693
 1064SOL     OW12690   3.647   9.494   0.784 -0.4191 -0.1197 -0.1854
 1064SOL    HW112691   3.675   9.585   0.755  1.3778 -0.6844 -0.2298
 1064SOL    HW212692   3.715   9.426   0.756 -0.4354 -1.1451  2.1085
 1065SOL     OW12693   7.835   0.783   2.073  0.2444 -0.2349  0.7463
 1065SOL    HW112694   7.827   0.684   2.085 -1.3397 -0.1705  0.3100
 1065SOL    HW212695   7.796   0.810   1.985  1.0168  0.7381  0.6905
 1067SOL     OW12696   2.076   1.575   1.393 -0.3282 -0.2881 -0.1840
 1067SOL    HW112697   2.143   1.506   1.418 -0.8753 -0.7014  0.1529
 1067SOL    HW212698   2.004   1.534   1.338 -1.1436 -0.1910  0.7926
 1069SOL     OW12699   2.243   8.673   1.244  0.1590 -0.1243 -0.1742
 1069SOL    HW112700   2.223   8.575   1.254 -0.5552 -0.1467 -1.6793
 1069SOL    HW212701   2.342   8.688   1.251 -0.0385 -0.3560  4.6261
 1070SOL     OW12702   2.097   5.555   0.838  0.8710 -0.5040 -0.2591
 1070SOL    HW112703   2.041   5.482   0.877  1.7840 -0.2502  1.6178
 1070SOL    HW212704   2.108   5.628   0.906  2.1418  0.1782 -1.1770
 1071SOL     OW12705   8.473   0.690   1.436 -0.0821  0.5498 -0.5048
 1071SOL    HW112706   8.422   0.732   1.511  0.8453 -0.6285  0.8079
 1071SOL    HW212707   8.569   0.717   1.443  0.1617 -0.2459 -0.7588
 1072SOL     OW12708   1.278   1.028   1.051  0.1708 -0.2729 -0.3875
 1072SOL    HW112709   1.360   1.020   0.994  0.6573 -2.0169  0.4964
 1072SOL    HW212710   1.283   1.112   1.106 -0.0811  1.1677 -2.5270
 1073SOL     OW12711   8.439   8.566   1.300  0.0025 -1.0216  0.3872
 1073SOL    HW112712   8.494   8.584   1.218 -1.3478 -1.6515 -0.6773
 1073SOL    HW212713   8.455   8.639   1.367  1.5452 -0.7954 -0.1989
 1075SOL     OW12714   2.182   1.330   0.425  0.0948  0.3169 -0.5118
 1075SOL    HW112715   2.097   1.358   0.471 -0.0461 -1.0202  0.0601
 1075SOL    HW212716   2.208   1.239   0.455  1.7465  0.7046 -0.7017
 1076SOL     OW12717   3.843   3.439   1.649  0.1008 -0.1552 -0.1258
 1076SOL    HW112718   3.915   3.377   1.680 -1.2126 -1.4605  0.4162
 1076SOL    HW212719   3.823   3.420   1.552  0.2511 -0.0174 -0.1846
 1077SOL     OW12720   1.234   7.543   0.493  0.3133  0.5501  0.0781
 1077SOL    HW112721   1.168   7.607   0.531 -0.4590  0.8041 -1.6482
 1077SOL    HW212722   1.286   7.588   0.420  2.5113  0.4077  1.4835
 1078SOL     OW12723   9.128   1.795   1.523 -0.1108 -0.0493  0.1483
 1078SOL    HW112724   9.088   1.711   1.558  0.5688 -0.9152 -1.1041
 1078SOL    HW212725   9.205   1.823   1.580 -0.5533 -0.0874  0.7629
 1079SOL     OW12726   0.681   1.490   0.676 -0.6517  0.4483 -0.0452
 1079SOL    HW112727   0.778   1.473   0.657 -0.9451 -1.0722 -0.2208
 1079SOL    HW212728   0.632   1.504   0.590 -1.2364 -2.3956 -0.2123
 1080SOL     OW12729   4.689   2.420   2.144  0.3573  0.1282 -0.1422
 1080SOL    HW112730   4.739   2.460   2.067  0.2971  0.5728  0.0478
 1080SOL    HW212731   4.698   2.480   2.224 -1.6021  0.8900 -0.4691
 1081SOL     OW12732   0.275   0.081   0.726 -0.1677  0.1861 -0.4268
 1081SOL    HW112733   0.291   0.173   0.689  0.7578 -0.5899 -1.9531
 1081SOL    HW212734   0.250   0.019   0.653 -1.6003 -0.6345  0.7197
 1082SOL     OW12735   3.541   4.680   1.167 -0.2447 -0.2311 -0.1668
 1082SOL    HW112736   3.512   4.586   1.186 -1.0099  0.0674  0.1854
 1082SOL    HW212737   3.603   4.711   1.239 -1.6370  0.2416  0.8498
 1083SOL     OW12738   0.030   4.213   0.415  0.0241  0.5030  0.1973
 1083SOL    HW112739  -0.015   4.140   0.466 -1.2789 -0.4523 -2.2195
 1083SOL    HW212740   0.115   4.179   0.374 -0.0671  0.6189 -0.0956
 1084SOL     OW12741   1.601   0.206   2.316 -0.0378 -0.7438  0.0751
 1084SOL    HW112742   1.609   0.227   2.413 -1.2232  0.6816 -0.1141
 1084SOL    HW212743   1.521   0.148   2.301 -0.1406 -0.5559 -0.1066
 1086SOL     OW12744   8.883  -0.051   1.653 -0.1629  0.6071 -0.3765
 1086SOL    HW112745   8.857  -0.050   1.556  1.1912  2.3956 -0.7446
 1086SOL    HW212746   8.928   0.035   1.676 -2.1177  0.9608  2.3145
 1088SOL     OW12747   9.594   8.227   0.643  0.4223  0.0955 -0.3934
 1088SOL    HW112748   9.687   8.222   0.678  0.5494 -1.7579 -0.9187
 1088SOL    HW212749   9.569   8.138   0.603 -1.5530  0.5745 -0.2692
 1089SOL     OW12750   0.074   4.914   1.981 -0.6448 -0.3424 -0.2344
 1089SOL    HW112751   0.166   4.952   1.976 -0.8374  0.1215 -0.2819
 1089SOL    HW212752   0.065   4.857   2.062 -0.6763  0.5816  0.4175
 1091SOL     OW12753   2.414   7.570   0.444  0.1218 -0.0638 -0.0521
 1091SOL    HW112754   2.354   7.504   0.488  0.7214 -0.0997  0.7256
 1091SOL    HW212755   2.484   7.599   0.508  1.9084 -1.2237 -1.4286
 1092SOL     OW12756   7.895   9.399   0.885 -0.2569  0.5654  0.3577
 1092SOL    HW112757   7.983   9.430   0.921  0.8158 -0.8585 -0.9865
 1092SOL    HW212758   7.909   9.350   0.800 -2.3738  0.3357  0.1109
 1093SOL     OW12759   0.585   0.223   1.521  0.2840  0.5082 -0.3436
 1093SOL    HW112760   0.674   0.226   1.564  0.5276 -0.4540 -0.7640
 1093SOL    HW212761   0.514   0.248   1.587  0.8040  0.6598  0.1550
 1095SOL     OW12762   9.050   8.001   1.234  0.4628  0.3627 -0.1632
 1095SOL    HW112763   9.141   8.039   1.246  0.0878  1.0070  0.6775
 1095SOL    HW212764   9.023   7.952   1.317 -0.2048  0.7066 -0.1702
 1096SOL     OW12765   2.748   9.428   1.095  0.1953 -0.1409  0.1557
 1096SOL    HW112766   2.776   9.334   1.074  1.4047  0.2104  0.1430
 1096SOL    HW212767   2.802   9.491   1.041 -0.9437  0.5557 -0.1770
 1097SOL     OW12768   9.254   3.130   0.463  0.1670  0.5278  0.3243
 1097SOL    HW112769   9.158   3.102   0.456  0.5391 -0.7455  0.1886
 1097SOL    HW212770   9.259   3.228   0.484 -1.1675  0.4957  0.8332
 1099SOL     OW12771   9.456   9.411   2.001  0.1721  0.0161  0.2105
 1099SOL    HW112772   9.393   9.465   2.056 -0.5079 -0.9435  0.3947
 1099SOL    HW212773   9.539   9.392   2.053  1.0423  2.0837 -0.3660
 1100SOL     OW12774   4.215   3.080   0.865 -0.4084  0.3851 -0.4226
 1100SOL    HW112775   4.274   3.027   0.805  0.4452  0.5576  0.2598
 1100SOL    HW212776   4.191   3.167   0.820 -0.2999  0.2298 -0.7792
 1102SOL     OW12777   2.818   5.933   0.732  0.0578 -0.2020  0.0730
 1102SOL    HW112778   2.915   5.950   0.718 -0.1009 -0.1352 -0.9526
 1102SOL    HW212779   2.783   5.872   0.661 -0.7906  0.2943  0.0465
 1104SOL     OW12780   3.845   8.579   1.932 -0.8826 -0.6793  0.1629
 1104SOL    HW112781   3.767   8.628   1.970 -0.2466 -0.0774  0.7019
 1104SOL    HW212782   3.887   8.522   2.003 -0.7941 -0.9633 -0.1118
 1105SOL     OW12783   0.328   5.457   0.477  0.3330  0.0472  0.3206
 1105SOL    HW112784   0.250   5.395   0.475  0.7999 -0.5306 -0.3052
 1105SOL    HW212785   0.368   5.463   0.386  1.6199 -0.4408  0.8411
 1107SOL     OW12786   3.743   2.708   1.818  0.3950  0.5994 -0.1006
 1107SOL    HW112787   3.794   2.714   1.904 -0.4377 -0.8257  0.5162
 1107SOL    HW212788   3.646   2.693   1.838  0.0772  0.9979 -1.2899
 1108SOL     OW12789   1.725   6.365   1.351  0.1713 -0.5562 -0.1668
 1108SOL    HW112790   1.738   6.341   1.255 -0.6271 -0.9139 -0.1966
 1108SOL    HW212791   1.688   6.286   1.400 -0.8152  0.0779  0.1211
 1109SOL     OW12792   3.616   3.022   0.406  0.2504  0.9606  0.1573
 1109SOL    HW112793   3.683   3.019   0.480  0.0126  0.2260  0.3421
 1109SOL    HW212794   3.530   2.982   0.437  0.3828 -0.0451 -0.7474
 1110SOL     OW12795   1.634   0.273   1.506 -0.2908 -0.2361 -0.6519
 1110SOL    HW112796   1.661   0.184   1.470  1.6404  0.1105 -0.1509
 1110SOL    HW212797   1.637   0.271   1.605 -0.4724  0.3193 -0.6344
 1111SOL     OW12798   2.625   1.358   2.030  0.1871  0.0780 -0.2049
 1111SOL    HW112799   2.711   1.352   2.081  1.0296 -0.5235 -1.6371
 1111SOL    HW212800   2.620   1.282   1.965 -1.4429  0.1160 -0.1243
 1113SOL     OW12801   9.242   1.680   0.731  0.7042 -0.5222  0.3508
 1113SOL    HW112802   9.239   1.770   0.686  0.1313 -0.5170  0.3991
 1113SOL    HW212803   9.329   1.671   0.780  0.0655  0.6824  1.7444
 1114SOL     OW12804   9.537   1.862   1.336  0.6998  0.2329  0.4503
 1114SOL    HW112805   9.513   1.808   1.255 -0.9894 -1.7127  2.1746
 1114SOL    HW212806   9.629   1.837   1.367  0.4147 -0.7879  0.5027
 1117SOL     OW12807   3.155   1.479   1.808 -0.2395  0.0665 -0.0098
 1117SOL    HW112808   3.213   1.409   1.766 -0.1066  1.5672 -2.3757
 1117SOL    HW212809   3.213   1.551   1.845 -0.4538 -0.2476  0.9536
 1118SOL     OW12810  -0.035   3.769   1.743  0.4141  0.2419  0.2696
 1118SOL    HW112811   0.045   3.726   1.701  0.2671 -0.5357  0.7696
 1118SOL    HW212812  -0.084   3.701   1.798 -0.6277  0.6968 -0.0931
 1119SOL     OW12813   0.115   5.895   0.439  0.1801  0.1212 -0.4970
 1119SOL    HW112814   0.155   5.972   0.390  0.2211  1.8191  2.0707
 1119SOL    HW212815   0.186   5.848   0.491 -0.1261 -0.6305 -0.7518
 1121SOL     OW12816   9.469   4.415   1.082 -0.2105 -0.1487 -0.4537
 1121SOL    HW112817   9.557   4.380   1.115 -1.2820 -0.2422  2.3801
 1121SOL    HW212818   9.431   4.351   1.015  0.9885 -1.0273 -0.3255
 1122SOL     OW12819   8.797   4.983   0.640  0.8548  0.5137 -0.3364
 1122SOL    HW112820   8.724   4.961   0.705  0.7949  0.0701 -0.5515
 1122SOL    HW212821   8.816   5.081   0.643  1.7090  0.3160  1.2426
 1123SOL     OW12822   9.273   8.711   0.367  0.0987 -0.3548 -0.3029
 1123SOL    HW112823   9.197   8.685   0.426  0.3644  0.4918  0.4302
 1123SOL    HW212824   9.323   8.630   0.339 -0.4826 -0.8288  0.0248
 1124SOL     OW12825   9.351   6.766   1.329 -0.1227  0.1142 -0.1089
 1124SOL    HW112826   9.259   6.800   1.352 -0.2467 -0.0965 -0.2880
 1124SOL    HW212827   9.395   6.731   1.412  0.6635  2.2461  0.4069
 1126SOL     OW12828   1.338   1.002   1.569  0.7776 -0.3185 -0.1387
 1126SOL    HW112829   1.390   0.917   1.577  1.9333  0.5977  2.6905
 1126SOL    HW212830   1.368   1.052   1.488  2.1398 -1.2556 -0.2265
 1130SOL     OW12831   0.310   3.063   0.420  0.4901 -0.1365 -0.6756
 1130SOL    HW112832   0.400   3.020   0.424  2.3157  3.5817  0.5261
 1130SOL    HW212833   0.314   3.143   0.360 -1.7814  0.6477  0.1632
 1133SOL     OW12834   0.388   2.914   1.354  0.3627 -0.8115  0.2228
 1133SOL    HW112835   0.333   2.965   1.419 -0.9977 -1.0180 -0.7576
 1133SOL    HW212836   0.412   2.972   1.277  0.0442 -1.2210 -0.1901
 1135SOL     OW12837   8.548   3.176   1.492 -0.0132  0.6482  0.9086
 1135SOL    HW112838   8.580   3.097   1.543 -1.9512  0.2822  1.5750
 1135SOL    HW212839   8.483   3.147   1.421  0.7040  1.4360 -0.1024
 1136SOL     OW12840   9.634   1.122   0.868 -0.3896 -0.2333 -0.3837
 1136SOL    HW112841   9.731   1.148   0.871 -1.0489  2.2022  1.2372
 1136SOL    HW212842   9.597   1.141   0.777  0.5878 -0.9553 -0.9414
 1137SOL     OW12843   9.839   6.870   0.349 -0.6281  0.2840 -0.2309
 1137SOL    HW112844   9.847   6.778   0.386  0.8492  0.3505 -0.3331
 1137SOL    HW212845   9.816   6.865   0.252 -1.3538  0.0376 -0.0431
 1138SOL     OW12846   1.597   6.438   0.511 -0.1769 -0.3216  0.4433
 1138SOL    HW112847   1.532   6.437   0.587 -0.6462  0.5362  0.0618
 1138SOL    HW212848   1.690   6.450   0.547 -0.4091  0.2129  0.8752
 1142SOL     OW12849   1.316   9.225   0.462  0.4023  0.2545  0.4074
 1142SOL    HW112850   1.288   9.263   0.374  1.6352  2.2478  0.8545
 1142SOL    HW212851   1.271   9.274   0.536  1.0998  0.0605  0.9627
 1143SOL     OW12852   9.645   2.503   1.586  0.1841  0.0360 -0.2684
 1143SOL    HW112853   9.650   2.414   1.540 -1.6969  0.2289 -0.9026
 1143SOL    HW212854   9.623   2.574   1.519 -1.3561  0.5122  0.7094
 1144SOL     OW12855   8.937   9.405   0.421 -0.4938 -0.7692  0.2195
 1144SOL    HW112856   8.881   9.387   0.502 -1.8790  2.0287 -0.0424
 1144SOL    HW212857   8.878   9.408   0.340  0.3240  0.2159 -0.3456
 1145SOL     OW12858   1.145   4.562   0.589 -0.4677 -0.0629 -0.3556
 1145SOL    HW112859   1.059   4.576   0.538 -0.6935 -0.6085 -0.1306
 1145SOL    HW212860   1.183   4.650   0.615 -0.1099  0.2501 -1.8823
 1146SOL     OW12861   8.594   7.493   2.066 -0.3091  0.0541  0.4408
 1146SOL    HW112862   8.619   7.470   2.160  0.1831  0.3884  0.3929
 1146SOL    HW212863   8.583   7.593   2.058 -0.2866  0.0312  0.1284
 1149SOL     OW12864   9.902   5.009   0.631  0.1168 -0.6674  0.1227
 1149SOL    HW112865   9.900   4.942   0.705 -0.8280 -0.9098 -0.1210
 1149SOL    HW212866   9.967   5.082   0.654  0.0134 -0.8715  1.0755
 1150SOL     OW12867   3.036   9.173   0.872  0.5657 -0.3724 -0.2198
 1150SOL    HW112868   3.052   9.094   0.813  2.2715 -0.4732  0.3364
 1150SOL    HW212869   3.008   9.251   0.816  1.3920 -0.6834 -1.0880
 1152SOL     OW12870   9.887   3.879   0.781 -0.6218 -0.0521 -0.7304
 1152SOL    HW112871   9.850   3.971   0.771 -1.2829 -0.5695 -3.2268
 1152SOL    HW212872   9.965   3.867   0.719  0.8834 -0.4621  1.1906
 1153SOL     OW12873   2.436   3.556   2.080 -0.5674 -0.0308 -0.1190
 1153SOL    HW112874   2.393   3.639   2.044 -0.0620 -0.6348 -2.1984
 1153SOL    HW212875   2.409   3.478   2.023  0.1254 -1.0440  0.9395
 1155SOL     OW12876   3.738   9.423   1.267 -0.1384 -0.1007 -0.2065
 1155SOL    HW112877   3.671   9.413   1.341 -0.6782  2.2424 -0.3532
 1155SOL    HW212878   3.691   9.454   1.184  1.4302  3.9452  0.3366
 1157SOL     OW12879   9.642   6.214   2.132 -0.2916  0.3738  0.1272
 1157SOL    HW112880   9.729   6.247   2.096  0.1814 -1.5050 -0.5436
 1157SOL    HW212881   9.652   6.192   2.229 -0.4168  1.4627  0.3981
 1158SOL     OW12882   1.856   0.070   0.423 -0.4918  0.0702 -0.1861
 1158SOL    HW112883   1.758   0.079   0.439 -0.4588  2.0021 -0.9402
 1158SOL    HW212884   1.873  -0.011   0.366 -1.7192  0.1979 -0.7455
 1159SOL     OW12885   0.164  -0.079   0.513  0.3730 -0.1862 -0.3819
 1159SOL    HW112886   0.141  -0.026   0.432 -0.3774 -1.2042 -0.8488
 1159SOL    HW212887   0.230  -0.151   0.489 -1.8144 -2.1635 -0.6824
 1161SOL     OW12888   2.895   8.196   0.734 -1.0603 -0.6772 -0.1871
 1161SOL    HW112889   2.824   8.202   0.805 -0.2089 -1.7466  0.7695
 1161SOL    HW212890   2.976   8.152   0.771  0.3867  1.1978 -1.0857
 1163SOL     OW12891   0.963   2.152   1.312  0.1770  0.5969  0.4725
 1163SOL    HW112892   1.051   2.196   1.331  0.3071  0.1913  0.8167
 1163SOL    HW212893   0.892   2.193   1.369  0.3171  0.2987  0.8656
 1165SOL     OW12894   4.219   1.790   1.997 -0.6274 -0.4924 -0.2876
 1165SOL    HW112895   4.235   1.698   2.031  0.1430 -0.3722 -0.3093
 1165SOL    HW212896   4.243   1.857   2.068 -0.1723 -0.2792 -0.6380
 1166SOL     OW12897   1.931   1.830   0.562 -0.5741  0.2341 -0.5584
 1166SOL    HW112898   1.989   1.775   0.502 -1.2534 -0.6754 -0.3759
 1166SOL    HW212899   1.986   1.904   0.601  0.0253  0.4717 -1.8131
 1168SOL     OW12900   1.193   8.430   2.217 -0.1734 -0.2838  0.2162
 1168SOL    HW112901   1.242   8.465   2.137 -0.8160 -0.7607 -0.3848
 1168SOL    HW212902   1.097   8.417   2.195 -0.2798 -0.7824  0.9504
 1169SOL     OW12903   8.581   0.561   0.660 -0.2125 -0.3912  0.9636
 1169SOL    HW112904   8.610   0.465   0.655  0.3784 -0.2256  1.3101
 1169SOL    HW212905   8.644   0.618   0.608 -1.3871 -0.3739 -0.4817
 1170SOL     OW12906   0.641   9.703   0.919  0.3275 -0.6776  0.7832
 1170SOL    HW112907   0.573   9.775   0.907  0.3516 -0.9069 -0.8871
 1170SOL    HW212908   0.610   9.620   0.873  1.5269 -0.9187  0.3791
 1172SOL     OW12909   4.214   4.095   1.551 -0.0640  0.4221 -0.2684
 1172SOL    HW112910   4.170   4.041   1.623  3.0164  0.2439  1.5593
 1172SOL    HW212911   4.144   4.140   1.496 -2.6621 -3.7294 -0.5246
 1174SOL     OW12912   9.274   2.955   1.063  0.8649 -0.0997  0.4658
 1174SOL    HW112913   9.272   3.007   0.977 -1.0469 -1.0572 -0.0920
 1174SOL    HW212914   9.296   2.860   1.044 -0.9815 -0.6225  0.8546
 1176SOL     OW12915   2.264   9.251   0.905  0.5625  0.2087 -0.0930
 1176SOL    HW112916   2.279   9.158   0.871  1.3546  0.3585 -0.1664
 1176SOL    HW212917   2.339   9.277   0.966 -0.2200  0.4026  0.7884
 1177SOL     OW12918   4.382   0.096   1.188 -0.2846  0.4543  0.4061
 1177SOL    HW112919   4.355   0.166   1.122 -0.6940 -1.1363 -1.1457
 1177SOL    HW212920   4.322   0.017   1.180 -0.0737  0.0490  2.4067
 1178SOL     OW12921   0.425   3.884   1.638  0.2896 -0.3117  0.0402
 1178SOL    HW112922   0.471   3.846   1.558  1.0431 -0.4043  0.5128
 1178SOL    HW212923   0.345   3.936   1.609  0.8872  0.1402 -0.8126
 1179SOL     OW12924   3.902   1.066   1.908  0.2608  0.2012  0.9066
 1179SOL    HW112925   3.952   1.037   1.826 -0.7188 -1.3296  0.8371
 1179SOL    HW212926   3.914   1.165   1.920  2.9142 -0.0460  0.6603
 1180SOL     OW12927   8.716   0.162   1.869 -0.4072 -0.8433  0.0585
 1180SOL    HW112928   8.793   0.131   1.925  1.7374  2.9051 -0.6146
 1180SOL    HW212929   8.637   0.180   1.928  0.1965 -1.8012  1.1798
 1181SOL     OW12930   9.751   9.106   0.887  0.0825 -0.7178  0.4415
 1181SOL    HW112931   9.718   9.024   0.841 -0.0145 -0.3094 -0.2165
 1181SOL    HW212932   9.698   9.185   0.857  0.6359 -0.3020  0.5487
 1182SOL     OW12933   3.156   8.984   2.287 -0.8648 -0.1902  0.0369
 1182SOL    HW112934   3.126   8.890   2.270 -1.3213 -0.0625  0.1248
 1182SOL    HW212935   3.090   9.048   2.247  0.4440  0.0966 -1.7567
 1183SOL     OW12936   1.707   6.473   2.265 -0.3875 -0.3501  0.7298
 1183SOL    HW112937   1.610   6.480   2.246 -0.1624 -0.9972 -0.7316
 1183SOL    HW212938   1.751   6.416   2.195  0.7031 -1.7014  2.4709
 1185SOL     OW12939   9.414   1.821   2.292  0.3078 -0.2109  0.0761
 1185SOL    HW112940   9.462   1.906   2.314 -0.7362  0.3855  0.1067
 1185SOL    HW212941   9.351   1.799   2.367 -1.6546  0.6479 -1.2825
 1186SOL     OW12942   9.867   2.151   1.141 -0.2346 -0.3166 -0.7439
 1186SOL    HW112943   9.893   2.247   1.130 -1.8587  0.0547 -1.4385
 1186SOL    HW212944   9.945   2.100   1.178  0.0668  1.5882  1.3146
 1187SOL     OW12945   9.551   9.056   2.031 -0.3603 -0.0929  0.3735
 1187SOL    HW112946   9.612   9.050   1.952 -1.7207 -1.7654 -0.5900
 1187SOL    HW212947   9.601   9.031   2.114  0.0990 -2.3047 -0.5181
 1188SOL     OW12948   3.550   9.499   1.054 -0.3916  0.2272  0.4793
 1188SOL    HW112949   3.542   9.483   0.955 -0.5023 -2.2373  0.8464
 1188SOL    HW212950   3.493   9.578   1.079 -0.2121  1.0076 -1.4401
 1189SOL     OW12951   9.854   3.528   0.921 -0.4729 -0.2495  0.4669
 1189SOL    HW112952   9.858   3.428   0.919  0.7960 -0.2476  1.8702
 1189SOL    HW212953   9.898   3.566   0.840 -1.7808 -0.8259 -0.5375
 1190SOL     OW12954   4.827   2.797   1.204 -0.0652  0.5223  0.2820
 1190SOL    HW112955   4.829   2.873   1.269  0.5263  1.1976 -0.5179
 1190SOL    HW212956   4.821   2.833   1.111  1.6989 -0.3536 -0.1995
 1191SOL     OW12957   3.394   0.842   0.368  0.1772 -0.3393 -0.3246
 1191SOL    HW112958   3.341   0.913   0.415  2.3059  1.5858 -0.7782
 1191SOL    HW212959   3.479   0.825   0.418 -0.2145 -2.5097 -0.3092
 1192SOL     OW12960   2.002   2.709   2.329 -0.0414 -0.3720  0.3166
 1192SOL    HW112961   2.099   2.706   2.350  0.3998 -0.1798 -1.6102
 1192SOL    HW212962   1.956   2.769   2.394  0.9551 -1.2475  1.8493
 1193SOL     OW12963   0.675   1.035   1.840 -0.4458  0.3468 -0.4924
 1193SOL    HW112964   0.579   1.060   1.841 -0.5122  0.1283 -1.1223
 1193SOL    HW212965   0.685   0.939   1.865 -0.1761  1.0266  2.1020
 1194SOL     OW12966   1.104   6.321   1.598  0.2007 -0.2930  0.3336
 1194SOL    HW112967   1.113   6.417   1.570  0.7026 -0.7438 -1.0751
 1194SOL    HW212968   1.051   6.271   1.530 -0.6412 -0.8869  1.4043
 1195SOL     OW12969   0.973   3.323   1.580 -0.0561  0.0014  0.2665
 1195SOL    HW112970   1.060   3.355   1.541  0.3299  0.6840  1.6581
 1195SOL    HW212971   0.993   3.263   1.658 -0.8101 -1.7649 -0.8607
 1197SOL     OW12972   1.129   8.495   0.631 -0.2643  0.1832  0.1552
 1197SOL    HW112973   1.165   8.587   0.646 -0.3961  0.1674  0.5806
 1197SOL    HW212974   1.201   8.428   0.648 -0.5806  0.1320  1.3413
 1198SOL     OW12975   9.266   9.038   1.601 -0.3480 -0.3060 -0.2901
 1198SOL    HW112976   9.194   9.048   1.670 -0.7987 -1.3352 -0.5926
 1198SOL    HW212977   9.343   9.098   1.623 -0.7838 -0.1091  0.7145
 1199SOL     OW12978   3.041   0.441   0.394 -0.0166 -0.3426 -0.8083
 1199SOL    HW112979   2.950   0.419   0.429 -0.1147 -0.5816 -1.2064
 1199SOL    HW212980   3.073   0.526   0.436 -0.7654  0.1761 -1.2772
 1201SOL     OW12981   9.715   4.047   1.108 -0.2652 -0.3634 -0.2314
 1201SOL    HW112982   9.706   3.997   1.194  0.8368 -1.9247 -0.9834
 1201SOL    HW212983   9.688   4.142   1.121  0.7098 -0.3769  2.0407
 1202SOL     OW12984   0.787   5.752   0.769 -0.3709  0.2102  0.5347
 1202SOL    HW112985   0.802   5.851   0.771  0.1787  0.1142  1.1941
 1202SOL    HW212986   0.789   5.717   0.862 -0.2415 -0.4801  0.2699
 1203SOL     OW12987   4.004   0.462   0.767  0.1195  0.4306 -0.1607
 1203SOL    HW112988   3.929   0.525   0.788 -0.2237 -0.2784  0.7943
 1203SOL    HW212989   4.003   0.386   0.833 -1.8160 -2.6135 -3.5372
 1204SOL     OW12990   1.229   2.676   0.477  0.3582  0.4013 -0.5692
 1204SOL    HW112991   1.152   2.715   0.427  0.1233  0.0084 -0.5123
 1204SOL    HW212992   1.292   2.632   0.413 -0.4933 -1.0627 -0.4262
 1205SOL     OW12993   1.782   9.733   1.640 -0.0153  0.6419 -0.2060
 1205SOL    HW112994   1.745   9.742   1.547 -1.7540 -2.7390  0.0782
 1205SOL    HW212995   1.713   9.763   1.706 -0.5624 -1.3882  0.1562
 1207SOL     OW12996   9.732   3.596   2.261 -0.9352  0.1931 -0.0215
 1207SOL    HW112997   9.676   3.545   2.196 -1.9640  0.0244  0.9668
 1207SOL    HW212998   9.827   3.594   2.232 -1.0565 -1.6938 -0.3930
 1208SOL     OW12999   2.376   4.763   1.175  0.1729 -0.2031 -0.3233
 1208SOL    HW113000   2.292   4.712   1.154 -0.5012  0.7593 -0.0433
 1208SOL    HW213001   2.404   4.743   1.269  0.0465 -0.2433 -0.2933
 1209SOL     OW13002   9.820   1.325   1.745  0.0576  0.0230 -0.2978
 1209SOL    HW113003   9.770   1.274   1.815 -1.8593  2.5716  0.2793
 1209SOL    HW213004   9.890   1.381   1.789  0.1588  0.1596 -0.6348
 1211SOL     OW13005   3.450   4.127   2.267 -0.4494 -0.7816 -0.3239
 1211SOL    HW113006   3.474   4.031   2.278 -1.6215 -1.0080  0.2362
 1211SOL    HW213007   3.482   4.179   2.346 -1.3200 -0.9922  0.1658
 1212SOL     OW13008   9.698   2.398   2.333  0.0755 -0.4443  0.3000
 1212SOL    HW113009   9.642   2.472   2.371  1.6715 -0.6931  3.2945
 1212SOL    HW213010   9.668   2.378   2.240 -1.1185  3.2101 -0.1761
 1215SOL     OW13011   1.762   9.581   2.301 -0.1845  0.5403 -0.0261
 1215SOL    HW113012   1.737   9.613   2.210  0.0305 -0.5357 -0.4644
 1215SOL    HW213013   1.822   9.502   2.293 -0.2862  0.3492  1.0555
 1217SOL     OW13014   3.656   1.846   2.236  0.2048 -0.0541 -0.4374
 1217SOL    HW113015   3.730   1.884   2.291  0.1359  1.0356 -1.0896
 1217SOL    HW213016   3.610   1.774   2.288  0.6276  0.4348  0.6323
 1218SOL     OW13017   0.513   5.766   0.679  0.2745 -0.3264  0.7170
 1218SOL    HW113018   0.508   5.837   0.608  1.8805 -1.2626 -0.3669
 1218SOL    HW213019   0.608   5.752   0.705 -0.0060 -2.2144  0.7776
 1219SOL     OW13020   4.227   3.091   0.499 -0.5614  0.0286  0.0166
 1219SOL    HW113021   4.147   3.077   0.441 -1.6434  1.5138  1.1099
 1219SOL    HW213022   4.260   3.185   0.488 -1.3822  0.6557  2.4936
 1220SOL     OW13023   9.442   0.725   2.256 -0.3038  0.0871  0.8951
 1220SOL    HW113024   9.523   0.669   2.274  0.1568 -0.1222 -1.6429
 1220SOL    HW213025   9.390   0.736   2.340  1.6389 -0.9246  2.2697
 1221SOL     OW13026   0.277   1.504   1.158  0.7161 -0.3213  0.4466
 1221SOL    HW113027   0.242   1.593   1.125  0.5747 -0.2422  0.8061
 1221SOL    HW213028   0.344   1.519   1.230  1.5223 -0.4774 -0.2695
 1222SOL     OW13029   3.583   2.527   0.493 -0.2486  0.1622 -0.0353
 1222SOL    HW113030   3.590   2.543   0.394 -0.6282 -0.3582 -0.1487
 1222SOL    HW213031   3.643   2.591   0.541  0.0579  0.3158 -0.6115
 1223SOL     OW13032   0.672   6.858   1.247  0.0752  0.0949  0.0281
 1223SOL    HW113033   0.590   6.827   1.296  1.5378 -1.0807  1.8192
 1223SOL    HW213034   0.654   6.858   1.149 -1.9274 -0.5781  0.3605
 1224SOL     OW13035   2.916   8.481   0.395 -0.2446 -0.2778 -0.0468
 1224SOL    HW113036   2.939   8.387   0.422  1.4084  0.5212  1.4508
 1224SOL    HW213037   2.912   8.538   0.477  0.1043  1.2414 -1.0892
 1226SOL     OW13038   0.245   8.862   0.949  0.0474 -0.0937  0.2029
 1226SOL    HW113039   0.311   8.901   0.885  1.2329  0.6949  1.8662
 1226SOL    HW213040   0.158   8.910   0.940  0.3951  0.4424 -0.3614
 1227SOL     OW13041   4.528   3.636   0.367 -0.0760  0.3943 -0.2418
 1227SOL    HW113042   4.511   3.644   0.465 -0.9681  1.6492 -0.4864
 1227SOL    HW213043   4.513   3.725   0.323 -3.5052 -0.9920 -2.0972
 1228SOL     OW13044   9.500   7.871   1.187  0.2864  1.1428 -0.0309
 1228SOL    HW113045   9.563   7.948   1.187  1.6196  0.0865 -1.1106
 1228SOL    HW213046   9.458   7.861   1.277  1.9295  1.6509  0.8111
 1229SOL     OW13047   8.389   6.859   0.445  0.0049 -0.3495 -0.7663
 1229SOL    HW113048   8.447   6.830   0.521  1.2609 -2.9401 -2.6538
 1229SOL    HW213049   8.400   6.958   0.430  1.4410 -0.2244  0.9526
 1230SOL     OW13050   2.871   8.748   0.951  0.4754 -0.4092 -0.3246
 1230SOL    HW113051   2.946   8.745   0.885 -0.0041 -2.6072 -0.8174
 1230SOL    HW213052   2.799   8.808   0.917  0.9027 -0.3016 -1.0553
 1231SOL     OW13053   1.968   1.646   1.639 -0.1760  0.1932  0.3443
 1231SOL    HW113054   1.955   1.564   1.695  0.6823  0.0559  0.3411
 1231SOL    HW213055   2.001   1.620   1.549  0.5613  0.5819  0.5030
 1232SOL     OW13056   8.020   9.030   2.135 -0.4944  0.6933 -0.0878
 1232SOL    HW113057   7.974   8.982   2.060  0.5228 -1.0068  0.3481
 1232SOL    HW213058   7.952   9.064   2.200 -1.3263  1.3994 -1.3135
 1233SOL     OW13059   0.778   2.926   0.625 -0.2098 -0.5044  0.0165
 1233SOL    HW113060   0.864   2.888   0.657  0.3690  1.0358  0.3442
 1233SOL    HW213061   0.708   2.914   0.695 -0.0503 -1.0021  0.0915
 1234SOL     OW13062   9.272   6.056   0.644  0.7338  0.2154 -0.3091
 1234SOL    HW113063   9.200   6.026   0.707 -0.0642  0.3552 -1.1516
 1234SOL    HW213064   9.336   5.980   0.628  1.1903  0.3159  1.0171
 1235SOL     OW13065   8.825   1.865   1.584  0.1073  0.2188  0.6620
 1235SOL    HW113066   8.830   1.947   1.526 -0.0259 -0.6339 -0.5688
 1235SOL    HW213067   8.916   1.826   1.594  0.1249  0.3511  0.9962
 1236SOL     OW13068   4.076   4.488   1.274 -0.1140 -0.1264 -0.4808
 1236SOL    HW113069   3.980   4.485   1.245 -0.2611 -2.2270  0.1211
 1236SOL    HW213070   4.134   4.510   1.195 -1.0955  1.4869 -0.7767
 1237SOL     OW13071   1.965   9.892   2.225 -0.1477  0.5278  0.1241
 1237SOL    HW113072   2.000   9.821   2.164  1.3006  2.1431 -0.9823
 1237SOL    HW213073   1.987   9.868   2.320 -0.9903 -1.2070 -0.0922
 1238SOL     OW13074   1.624   5.299   0.904  0.7780  0.0911  0.3505
 1238SOL    HW113075   1.679   5.230   0.859  0.0656 -0.6012  0.5290
 1238SOL    HW213076   1.538   5.258   0.935 -0.1160  1.3004 -0.4836
 1239SOL     OW13077   1.915   3.185   1.197  0.5375 -0.4171  0.3428
 1239SOL    HW113078   1.963   3.241   1.265  0.9955 -0.3647 -0.0239
 1239SOL    HW213079   1.973   3.108   1.170  0.8605  0.2624 -0.9304
 1241SOL     OW13080   8.827   7.137   2.033  0.5825  0.1876  0.0837
 1241SOL    HW113081   8.852   7.168   1.942  1.0456 -1.0856 -0.2308
 1241SOL    HW213082   8.753   7.070   2.027  0.4148  0.3146  0.6599
 1242SOL     OW13083   3.471   0.287   0.392  0.1373  0.1088 -0.2383
 1242SOL    HW113084   3.400   0.331   0.337 -0.5081  1.5809  1.7171
 1242SOL    HW213085   3.473   0.189   0.371 -1.2423  0.3419 -1.6125
 1243SOL     OW13086   0.163   6.926   0.723  0.0881  0.0585 -0.3505
 1243SOL    HW113087   0.162   6.965   0.631 -0.4237 -1.1835 -0.8881
 1243SOL    HW213088   0.135   6.830   0.718  3.4807 -1.0403  0.6261
 1244SOL     OW13089   1.254   8.623   2.032 -0.6833  0.3635  0.4235
 1244SOL    HW113090   1.309   8.667   2.104 -2.0936  1.4379  0.8819
 1244SOL    HW213091   1.175   8.681   2.012 -1.0433 -0.6176 -1.0177
 1245SOL     OW13092   0.778   8.147   0.690 -0.0797 -0.3030 -0.0102
 1245SOL    HW113093   0.754   8.232   0.738  0.4426 -0.5046  0.6074
 1245SOL    HW213094   0.877   8.138   0.685 -0.0741 -2.2938  2.4919
 1246SOL     OW13095   1.450   7.233   1.733 -0.2653 -0.5588  0.5963
 1246SOL    HW113096   1.369   7.263   1.683 -1.1253  0.2918  2.4546
 1246SOL    HW213097   1.531   7.241   1.674 -1.1571  1.0455 -0.4288
 1247SOL     OW13098   7.899  -0.010   0.933  0.2838  0.1106  0.0539
 1247SOL    HW113099   7.872   0.022   1.024  0.3042 -1.7157  0.7303
 1247SOL    HW213100   7.918  -0.108   0.937 -0.2673 -0.0981 -2.0560
 1248SOL     OW13101  -0.014   5.474   1.284  0.4846 -0.4114  0.0336
 1248SOL    HW113102   0.008   5.506   1.376  1.9807 -0.9856 -0.1054
 1248SOL    HW213103  -0.030   5.375   1.287 -1.9750 -0.0330  0.0983
 1249SOL     OW13104   0.717   5.665   1.840 -0.3392  0.1005 -0.0493
 1249SOL    HW113105   0.697   5.591   1.904 -1.1156  1.2697  1.0934
 1249SOL    HW213106   0.803   5.646   1.792 -0.5436 -1.5349  0.2104
 1250SOL     OW13107   2.710   1.707   1.857 -0.1880  0.0008 -0.3341
 1250SOL    HW113108   2.643   1.687   1.929 -1.4701  2.9607 -0.6634
 1250SOL    HW213109   2.781   1.767   1.894  1.2543 -1.5282 -0.5474
 1252SOL     OW13110   2.720   5.863   0.989  0.0980  0.2330 -0.1985
 1252SOL    HW113111   2.636   5.917   0.995 -0.8312 -0.9269 -1.9969
 1252SOL    HW213112   2.766   5.883   0.903  0.4329 -0.8344 -0.2837
 1254SOL     OW13113   1.212   6.328   2.075  0.0786 -0.3038  0.1746
 1254SOL    HW113114   1.302   6.360   2.106  0.3988 -1.6318  0.6870
 1254SOL    HW213115   1.184   6.378   1.994  1.7340 -0.5428 -0.5587
 1255SOL     OW13116   3.558   9.231   0.377  0.4397 -0.2903 -0.3640
 1255SOL    HW113117   3.606   9.309   0.415  1.7094 -1.2318 -0.0225
 1255SOL    HW213118   3.541   9.163   0.448 -0.1680 -0.5782 -0.7704
 1259SOL     OW13119   0.713   9.135   0.434  0.0513 -0.3067 -0.0444
 1259SOL    HW113120   0.637   9.189   0.398 -0.7926 -0.8451  0.8746
 1259SOL    HW213121   0.710   9.043   0.394  0.3780 -0.2499 -0.2022
 1261SOL     OW13122   8.904   6.468   0.459  0.3216 -0.4007 -0.0908
 1261SOL    HW113123   8.977   6.513   0.408 -0.7468 -0.0441 -1.3237
 1261SOL    HW213124   8.944   6.399   0.520  1.8644  1.3540  0.9525
 1262SOL     OW13125   2.769   5.881   1.462  0.1218  0.5482  0.2741
 1262SOL    HW113126   2.804   5.824   1.536 -1.6606 -1.9019 -0.7258
 1262SOL    HW213127   2.805   5.849   1.375 -1.1902  0.7069 -0.3403
 1264SOL     OW13128   2.181   1.616   0.704 -0.3713  0.5325 -0.3902
 1264SOL    HW113129   2.150   1.634   0.797  1.2925  0.2470  0.2524
 1264SOL    HW213130   2.103   1.603   0.643 -1.4649  0.6013  0.9973
 1265SOL     OW13131   8.394   8.232   0.648  0.3442  0.8401 -0.3714
 1265SOL    HW113132   8.399   8.302   0.719 -0.8710  0.6168 -0.0606
 1265SOL    HW213133   8.485   8.220   0.606  1.1723  0.6637  1.4347
 1266SOL     OW13134   7.420   9.427   1.079  0.1369 -0.2427  0.1594
 1266SOL    HW113135   7.370   9.514   1.085 -0.0383 -0.4160  1.3980
 1266SOL    HW213136   7.355   9.353   1.061  0.4166  0.0086 -2.0284
 1267SOL     OW13137   9.742   9.684   0.749 -0.2948  0.2112 -0.2805
 1267SOL    HW113138   9.650   9.722   0.734 -1.0087 -1.8324 -1.1868
 1267SOL    HW213139   9.808   9.759   0.753 -2.0581  1.7707  1.0062
 1268SOL     OW13140   1.917   9.390   1.977 -0.7079 -0.7193  0.2793
 1268SOL    HW113141   1.941   9.426   1.887 -0.1525  0.0228  0.7208
 1268SOL    HW213142   1.822   9.358   1.976 -1.2082  0.7402 -0.1176
 1270SOL     OW13143   8.070   1.502   1.127 -0.4038 -0.1547  0.1255
 1270SOL    HW113144   8.121   1.417   1.136  1.2739  0.6865 -1.0933
 1270SOL    HW213145   7.977   1.489   1.161 -0.3431 -2.6179 -0.5512
 1271SOL     OW13146   0.085   0.456   0.540  0.5613 -0.2440 -0.2916
 1271SOL    HW113147   0.086   0.551   0.571  0.0634 -0.1527 -0.5644
 1271SOL    HW213148   0.010   0.407   0.585 -1.0754  0.2442 -2.4192
 1272SOL     OW13149   9.341   7.885   0.939  0.5814  0.0954 -0.7669
 1272SOL    HW113150   9.398   7.875   1.020  1.3850 -1.3729 -1.4900
 1272SOL    HW213151   9.255   7.835   0.952  0.2765  0.7046 -0.4300
 1273SOL     OW13152   0.079   5.777   2.173  0.2732  0.5189 -0.0440
 1273SOL    HW113153   0.075   5.787   2.074  2.5035 -0.0540 -0.2135
 1273SOL    HW213154   0.173   5.789   2.204 -0.4447  0.8992  2.0314
 1275SOL     OW13155   9.318   8.135   1.699 -0.5666 -0.1364 -0.4060
 1275SOL    HW113156   9.395   8.169   1.645 -0.5604 -0.0341 -0.3333
 1275SOL    HW213157   9.294   8.203   1.769  0.1459 -0.7563  0.4531
 1276SOL     OW13158   2.520   8.692   1.212  0.5235 -0.3537  0.3946
 1276SOL    HW113159   2.608   8.722   1.250  0.7763 -0.8888  0.2395
 1276SOL    HW213160   2.493   8.754   1.139  1.8276 -1.4003 -1.0104
 1277SOL     OW13161   9.425   9.519   2.321 -0.1478  0.1771 -0.2775
 1277SOL    HW113162   9.428   9.571   2.406 -0.5246  2.1151 -1.4318
 1277SOL    HW213163   9.480   9.437   2.330 -1.0350 -0.1791  2.1941
 1278SOL     OW13164   8.462   1.823   1.810  0.0346 -0.0052  0.8891
 1278SOL    HW113165   8.439   1.916   1.784  2.9688  0.2704 -0.9603
 1278SOL    HW213166   8.478   1.819   1.909  0.6510  1.6244  0.8712
 1279SOL     OW13167   4.483   2.775   0.800  0.6250 -0.4616 -0.5020
 1279SOL    HW113168   4.505   2.873   0.805  0.8631 -0.3712 -2.7132
 1279SOL    HW213169   4.486   2.735   0.892  0.8989  1.5222  0.3770
 1280SOL     OW13170   0.254   5.086   1.607 -0.2247 -0.2992  0.0834
 1280SOL    HW113171   0.166   5.092   1.655 -0.2118 -1.4676  0.2686
 1280SOL    HW213172   0.238   5.077   1.509 -0.2986 -0.0833  0.0746
 1281SOL     OW13173   9.174   4.266   1.408  0.2952 -0.6202  0.5133
 1281SOL    HW113174   9.243   4.195   1.407  1.1642  0.2036  1.2296
 1281SOL    HW213175   9.144   4.283   1.502 -1.2403 -1.3062  0.1643
 1283SOL     OW13176   9.344   5.702   1.703 -0.6659  0.0288  0.2463
 1283SOL    HW113177   9.399   5.747   1.774 -0.2557  0.1908 -0.1698
 1283SOL    HW213178   9.256   5.747   1.696 -1.0194 -0.4880  1.2043
 1284SOL     OW13179   2.049   6.647   1.959 -0.2193 -0.1222 -0.0677
 1284SOL    HW113180   2.044   6.566   2.017  1.7668 -1.5904 -1.8964
 1284SOL    HW213181   2.142   6.683   1.960 -0.6422  1.0149 -0.7731
 1286SOL     OW13182   3.081   5.622   1.379 -0.4777 -1.1676 -0.0816
 1286SOL    HW113183   3.048   5.657   1.467  1.8516 -1.2013  0.8439
 1286SOL    HW213184   3.021   5.653   1.306 -1.1548  0.7542  1.2574
 1287SOL     OW13185   8.581   0.017   0.962 -0.2640  0.2277 -0.0567
 1287SOL    HW113186   8.606   0.100   1.012  2.1645  1.3109 -2.8976
 1287SOL    HW213187   8.482   0.012   0.953 -0.6459  1.1381  2.8364
 1288SOL     OW13188   3.321   0.219   1.075 -0.1414  0.3626 -0.3498
 1288SOL    HW113189   3.400   0.162   1.051 -0.4160 -0.1985  0.0822
 1288SOL    HW213190   3.333   0.310   1.035  1.4602  0.7648  0.9782
 1289SOL     OW13191   0.841   8.633   1.932  0.4121 -0.3388 -0.5561
 1289SOL    HW113192   0.871   8.550   1.979 -0.8282 -0.8640 -0.6820
 1289SOL    HW213193   0.874   8.631   1.837  2.5701  0.5320  0.1327
 1290SOL     OW13194   3.304   0.441   0.924 -0.2058  0.2032  0.2073
 1290SOL    HW113195   3.355   0.527   0.933 -1.6302  1.1392 -0.5679
 1290SOL    HW213196   3.212   0.460   0.891 -0.7888 -1.5615  0.7653
 1291SOL     OW13197   2.238   6.638   0.969 -0.4496  0.0124  1.0102
 1291SOL    HW113198   2.303   6.592   1.030 -0.7164 -1.8239 -0.0434
 1291SOL    HW213199   2.145   6.621   1.002 -0.5373 -0.0544  0.7305
 1292SOL     OW13200   9.579   3.469   2.016  0.4566  0.5092  0.0445
 1292SOL    HW113201   9.553   3.397   1.951 -0.0156  0.4888  0.2536
 1292SOL    HW213202   9.503   3.532   2.028  0.3091  0.1374  1.0773
 1293SOL     OW13203   1.561   0.448   0.934 -0.0589  0.1214 -0.5849
 1293SOL    HW113204   1.627   0.519   0.909  1.2422  0.5698  3.8069
 1293SOL    HW213205   1.609   0.362   0.949 -0.9057 -0.3209 -0.3976
 1294SOL     OW13206   2.694   6.486   2.209  0.4126 -0.0419  0.0293
 1294SOL    HW113207   2.767   6.546   2.242  1.4879 -1.2090 -0.1454
 1294SOL    HW213208   2.692   6.489   2.109 -1.2480  1.6562  0.0920
 1295SOL     OW13209   9.415   5.895   2.352 -0.2943  0.6521 -0.1157
 1295SOL    HW113210   9.340   5.832   2.332  1.1873 -1.1575 -0.1436
 1295SOL    HW213211   9.467   5.913   2.268 -0.5032  1.6635 -0.0372
 1296SOL     OW13212   9.057   6.862   1.332 -0.1026  0.7531 -0.0844
 1296SOL    HW113213   8.991   6.902   1.396 -0.5402  0.4056 -0.3097
 1296SOL    HW213214   9.014   6.784   1.286  1.0385 -0.5692  1.0406
 1297SOL     OW13215   1.106   7.348   1.789  0.0202 -0.0849  0.0955
 1297SOL    HW113216   1.015   7.367   1.825 -0.1868  0.2312 -0.5803
 1297SOL    HW213217   1.119   7.398   1.703  0.3811 -1.0729 -0.4354
 1298SOL     OW13218   0.936   0.820   1.251  0.4137  0.0987 -0.1140
 1298SOL    HW113219   0.908   0.915   1.261 -0.5333 -0.2921  1.0052
 1298SOL    HW213220   0.929   0.793   1.154  0.9812  1.2406 -0.4788
 1299SOL     OW13221   9.851   5.330   1.786  0.0268 -0.3453  0.3133
 1299SOL    HW113222   9.769   5.364   1.833  0.7676  0.3838  1.0983
 1299SOL    HW213223   9.897   5.406   1.740  1.1103 -0.4680  1.1756
 1301SOL     OW13224   1.038   7.834   0.791  0.2910 -0.2907  0.2397
 1301SOL    HW113225   1.021   7.930   0.813 -1.1836 -0.6475  0.7368
 1301SOL    HW213226   1.050   7.782   0.876  1.9576 -0.4131 -0.0473
 1302SOL     OW13227   2.113   2.724   1.358 -0.7181 -0.4397 -0.3205
 1302SOL    HW113228   2.145   2.629   1.356 -0.4596 -0.3228 -2.3447
 1302SOL    HW213229   2.152   2.770   1.438  1.5195 -1.2317 -0.9071
 1303SOL     OW13230   1.025   5.774   2.130  0.1796 -0.5074  0.6333
 1303SOL    HW113231   0.955   5.841   2.153  0.2160 -0.2786  0.0981
 1303SOL    HW213232   1.011   5.743   2.036  1.3510  0.2551  0.1873
 1304SOL     OW13233   0.443   2.178   0.683 -0.5264  0.0208  0.2045
 1304SOL    HW113234   0.532   2.135   0.695 -0.7041 -0.0130  1.4987
 1304SOL    HW213235   0.451   2.277   0.698 -0.4433  0.2032 -1.0522
 1305SOL     OW13236   4.197   9.846   2.054  0.0963 -0.0512 -0.0086
 1305SOL    HW113237   4.196   9.768   2.116 -0.3584 -0.4480 -0.5120
 1305SOL    HW213238   4.227   9.928   2.104 -0.3060 -0.3554  0.7485
 1306SOL     OW13239   1.924   2.333   2.122 -0.0478  0.0696 -0.0774
 1306SOL    HW113240   1.841   2.282   2.101  0.2886 -0.5435  0.0870
 1306SOL    HW213241   1.973   2.289   2.197 -0.1731  1.0900  0.6222
 1307SOL     OW13242   1.453  -0.078   1.620 -0.3343 -0.1759 -0.4125
 1307SOL    HW113243   1.384  -0.144   1.651 -0.4157 -0.0136 -0.2376
 1307SOL    HW213244   1.459  -0.079   1.521 -0.8797  0.0926 -0.4525
 1309SOL     OW13245   0.098   2.276   1.749 -0.2727  0.4771 -0.1392
 1309SOL    HW113246   0.167   2.206   1.731  0.3990  1.0865  0.0469
 1309SOL    HW213247   0.063   2.312   1.663 -0.7076 -0.1695 -0.2367
 1310SOL     OW13248   9.377   0.009   0.526 -0.3433  0.2030 -0.2250
 1310SOL    HW113249   9.362   0.087   0.465 -3.3023  1.8455  2.4752
 1310SOL    HW213250   9.453   0.028   0.588  0.6866 -0.2238 -1.3286
 1311SOL     OW13251   2.408   8.338   0.902 -0.1993  0.2749  0.4302
 1311SOL    HW113252   2.384   8.393   0.822 -3.1257 -1.9904 -0.3575
 1311SOL    HW213253   2.452   8.254   0.872 -0.1837 -0.0233  1.2787
 1314SOL     OW13254   2.634   0.272   1.772  0.6622  0.1822  0.4142
 1314SOL    HW113255   2.626   0.214   1.853 -0.0878  2.6272  2.1487
 1314SOL    HW213256   2.715   0.331   1.782 -0.5621  1.8944  0.3191
 1315SOL     OW13257   9.550   3.281   1.816 -0.1575  0.2336  0.1149
 1315SOL    HW113258   9.613   3.296   1.741 -0.1385 -1.0772 -0.1329
 1315SOL    HW213259   9.508   3.191   1.808 -2.5900  1.3340 -0.1208
 1316SOL     OW13260   4.492   2.536   0.627 -0.1805  0.1327 -0.5298
 1316SOL    HW113261   4.548   2.465   0.670 -1.3741 -0.4191  0.1309
 1316SOL    HW213262   4.454   2.596   0.697 -2.1148 -0.7490 -0.7901
 1317SOL     OW13263   1.734   5.007   1.114 -0.6895 -0.1011  0.2241
 1317SOL    HW113264   1.778   4.972   1.031 -0.6722 -0.1823  0.2681
 1317SOL    HW213265   1.635   5.009   1.100 -0.7388 -0.7448  0.4407
 1318SOL     OW13266   3.115   9.227   1.618  0.5934 -0.1600 -0.0463
 1318SOL    HW113267   3.039   9.289   1.597  1.2971  0.0070 -2.1894
 1318SOL    HW213268   3.132   9.167   1.540  1.1764 -1.7747  1.2880
 1319SOL     OW13269   9.683   7.286   0.513 -0.5509 -0.0483 -0.1937
 1319SOL    HW113270   9.734   7.245   0.589  1.6169 -0.0363 -1.6048
 1319SOL    HW213271   9.602   7.231   0.494  0.2836 -1.5170  0.4305
 1321SOL     OW13272   2.527   9.650   0.846  0.4058  0.5848 -0.1141
 1321SOL    HW113273   2.501   9.653   0.943 -1.0665  2.9693 -0.5468
 1321SOL    HW213274   2.599   9.718   0.829  0.8100  0.0211 -0.6661
 1322SOL     OW13275   9.557   8.215   2.046  0.2591  0.2068  0.3007
 1322SOL    HW113276   9.657   8.213   2.038  0.1891 -0.0645 -0.4500
 1322SOL    HW213277   9.522   8.301   2.009  0.0629 -0.4553 -1.0826
 1323SOL     OW13278   0.999  -0.091   1.232 -0.6191  0.2037  0.5720
 1323SOL    HW113279   0.939  -0.155   1.185  0.8707 -1.3540  0.7189
 1323SOL    HW213280   1.022  -0.015   1.172 -2.2951  0.5462  0.3438
 1324SOL     OW13281   3.042   9.374   2.042 -0.2588  0.9279 -0.5505
 1324SOL    HW113282   3.089   9.353   2.128 -0.4293  0.2517 -0.6241
 1324SOL    HW213283   3.080   9.458   2.004 -0.2007  1.2494  0.2009
 1325SOL     OW13284   0.530   9.528   0.712 -0.2308 -0.2428 -0.2441
 1325SOL    HW113285   0.451   9.500   0.658  0.6035 -1.2394 -0.9710
 1325SOL    HW213286   0.580   9.447   0.743  0.0318  0.3528  0.9301
 1326SOL     OW13287   3.654   1.060   0.368  0.1661  0.1267  0.1480
 1326SOL    HW113288   3.621   0.998   0.440 -1.0908  0.8046  0.1716
 1326SOL    HW213289   3.630   1.154   0.391  1.0337  0.5065 -0.4617
 1327SOL     OW13290   8.977   9.863   0.316 -0.0940 -0.4362  0.0400
 1327SOL    HW113291   8.922   9.810   0.251 -1.8702  1.5423 -0.1080
 1327SOL    HW213292   8.958   9.831   0.409 -1.0922 -0.1390 -0.0549
 1328SOL     OW13293   3.158   8.659   0.484  0.2258 -0.0033 -0.0268
 1328SOL    HW113294   3.126   8.568   0.507 -1.0529  0.1696 -1.0778
 1328SOL    HW213295   3.250   8.672   0.520  0.9040 -2.1399 -0.9193
 1329SOL     OW13296   9.678   1.704   0.381  0.3131 -0.7018 -0.4963
 1329SOL    HW113297   9.715   1.681   0.291 -0.0852 -0.2342 -0.7886
 1329SOL    HW213298   9.594   1.759   0.369  0.2974 -0.5800  0.1571
 1330SOL     OW13299   2.275   2.095   1.517  0.1548  0.4336  0.1910
 1330SOL    HW113300   2.209   2.151   1.567 -0.4412 -0.2822  0.2101
 1330SOL    HW213301   2.227   2.025   1.465  0.9039 -0.1032  0.2120
 1331SOL     OW13302   9.054   3.562   1.915  0.2973  0.9457 -0.2306
 1331SOL    HW113303   9.123   3.493   1.889  0.3735  0.8336  0.2732
 1331SOL    HW213304   9.032   3.552   2.011 -1.1806  0.3226 -0.6206
 1332SOL     OW13305   9.511   2.715   1.214 -0.6073 -0.4035 -0.0209
 1332SOL    HW113306   9.528   2.617   1.214 -1.3750 -0.5370 -0.2949
 1332SOL    HW213307   9.469   2.742   1.127 -1.0216  0.0610  0.3227
 1335SOL     OW13308   9.471   2.172   0.969  0.2053 -0.0811 -0.7947
 1335SOL    HW113309   9.434   2.100   0.910  1.3945 -0.9344 -0.5213
 1335SOL    HW213310   9.438   2.159   1.062  2.2851 -1.7300 -0.2254
 1339SOL     OW13311   1.800   7.470   0.668  0.2389 -0.0552 -0.4223
 1339SOL    HW113312   1.859   7.418   0.607  0.8454  0.0912  0.0384
 1339SOL    HW213313   1.715   7.494   0.620  1.0563  0.7735 -1.4798
 1340SOL     OW13314   1.672   0.641   0.745 -0.5954 -0.3223  0.0147
 1340SOL    HW113315   1.681   0.696   0.828  0.2922  0.4569 -0.5761
 1340SOL    HW213316   1.587   0.665   0.698 -0.2495  0.5151 -0.2007
 1341SOL     OW13317   1.475   6.477   1.724  0.6499  0.0873  0.6084
 1341SOL    HW113318   1.491   6.501   1.628 -0.9613 -0.7732  0.1085
 1341SOL    HW213319   1.560   6.440   1.763  1.4132  0.7791 -0.3806
 1342SOL     OW13320   2.473   6.575   1.180 -0.3071 -0.2354 -0.2838
 1342SOL    HW113321   2.571   6.571   1.201 -0.6736 -0.3869  1.4513
 1342SOL    HW213322   2.426   6.626   1.251 -1.3247  0.9660 -1.7817
 1344SOL     OW13323   3.279   0.548   2.138 -0.1644 -0.0864  0.4185
 1344SOL    HW113324   3.194   0.595   2.162 -0.7235 -1.4724  1.1647
 1344SOL    HW213325   3.263   0.450   2.132  0.7217 -0.1124 -2.2975
 1345SOL     OW13326   8.172   9.129   1.061 -0.1234 -0.2860 -0.4472
 1345SOL    HW113327   8.262   9.146   1.101 -0.3338  2.9980 -1.2365
 1345SOL    HW213328   8.182   9.106   0.965 -0.1564  1.4915 -0.9007
 1348SOL     OW13329   3.750   2.930   1.641  0.4190  0.6629  0.0895
 1348SOL    HW113330   3.705   2.997   1.701 -2.9811 -1.2956 -0.1372
 1348SOL    HW213331   3.798   2.863   1.697 -1.8628 -0.5476  0.6778
 1349SOL     OW13332   0.902   3.748   1.827  0.2598  0.1746  0.3984
 1349SOL    HW113333   0.916   3.659   1.871  1.9359 -0.7195 -1.8680
 1349SOL    HW213334   0.901   3.820   1.897 -2.7743 -1.7393  2.4262
 1350SOL     OW13335   2.878   4.685   1.682  0.2084  0.2379 -0.5670
 1350SOL    HW113336   2.952   4.625   1.654  0.1661 -0.6443  1.1098
 1350SOL    HW213337   2.851   4.663   1.776 -0.8439  1.8638 -0.4576
 1351SOL     OW13338   1.074   3.766   0.716 -0.2230  0.0025  0.0266
 1351SOL    HW113339   0.995   3.815   0.754  0.1837 -0.4400  1.4994
 1351SOL    HW213340   1.052   3.669   0.707 -0.0606 -0.0160 -0.1736
 1352SOL     OW13341   1.520   9.572   0.605  0.1961  0.1577  0.3485
 1352SOL    HW113342   1.431   9.609   0.634  0.7898  1.7173  0.2167
 1352SOL    HW213343   1.572   9.643   0.559  0.9030 -1.1789 -0.9887
 1353SOL     OW13344   2.939   4.340   2.058  0.4024  0.1364  0.5541
 1353SOL    HW113345   2.859   4.394   2.033  1.7055  1.1124 -1.6289
 1353SOL    HW213346   2.920   4.243   2.041 -0.2997  0.3668 -0.0058
 1354SOL     OW13347   0.122   4.793   0.856  0.0003  0.1782  0.0761
 1354SOL    HW113348   0.143   4.890   0.868  1.0797 -0.0019 -0.2416
 1354SOL    HW213349   0.169   4.740   0.927  2.4642 -0.4365 -1.9156
 1355SOL     OW13350   2.893   1.362   2.236 -0.0639 -0.0155 -0.3439
 1355SOL    HW113351   2.969   1.372   2.171  2.3982  1.3947  2.6268
 1355SOL    HW213352   2.928   1.331   2.324 -3.3390 -1.8656  0.4058
 1356SOL     OW13353   3.515   9.304   1.454 -0.3887 -0.0575 -0.1737
 1356SOL    HW113354   3.492   9.239   1.381 -1.8803 -1.0255  1.1337
 1356SOL    HW213355   3.439   9.367   1.468 -1.0098 -1.2450  2.0024
 1357SOL     OW13356   7.772   9.167   0.946 -0.7888 -0.5112  0.2329
 1357SOL    HW113357   7.680   9.179   0.984 -1.9546  1.2456 -2.9310
 1357SOL    HW213358   7.817   9.257   0.941 -0.1035 -0.9270 -1.1243
 1358SOL     OW13359   0.768   3.763   0.878  0.4710 -0.5218 -0.1061
 1358SOL    HW113360   0.834   3.707   0.928  1.1684 -0.0411 -0.4821
 1358SOL    HW213361   0.744   3.843   0.932  0.1614 -0.7182  0.0487
 1359SOL     OW13362   8.691   9.461   1.582 -0.6407 -0.2717  0.1295
 1359SOL    HW113363   8.646   9.506   1.504 -1.1176 -1.2100 -0.1447
 1359SOL    HW213364   8.782   9.501   1.595 -1.4562  1.4795  0.5364
 1360SOL     OW13365   3.814   0.641   0.756  0.0280 -0.1986  0.2363
 1360SOL    HW113366   3.762   0.634   0.671 -1.4586  0.3694  1.0870
 1360SOL    HW213367   3.853   0.733   0.763  0.2844 -0.2956  0.1018
 1361SOL     OW13368   9.055   2.486   1.944 -0.3304 -0.3306 -0.7842
 1361SOL    HW113369   9.046   2.561   1.878 -0.9285 -1.3196 -1.8467
 1361SOL    HW213370   9.094   2.406   1.898  1.8144 -0.1906  0.7190
 1362SOL     OW13371   9.077   8.107   0.845 -0.4178 -0.0896  0.1571
 1362SOL    HW113372   9.084   8.197   0.887  0.6260 -0.3195  0.4955
 1362SOL    HW213373   9.164   8.083   0.801 -0.6969 -0.9141  0.0376
 1363SOL     OW13374   8.388   8.508   2.346  0.5332  0.1964  0.2758
 1363SOL    HW113375   8.442   8.576   2.396  1.0552 -1.0236  1.4103
 1363SOL    HW213376   8.441   8.475   2.268  0.4401  0.7835 -0.0420
 1364SOL     OW13377   3.601   2.297   1.034  0.4638  0.0455 -0.1123
 1364SOL    HW113378   3.607   2.396   1.021  1.3934  0.0891  0.6076
 1364SOL    HW213379   3.678   2.253   0.987 -0.6245 -0.4450 -1.4674
 1365SOL     OW13380   0.272   1.167   0.704  0.1653 -0.3505  0.0697
 1365SOL    HW113381   0.320   1.250   0.730  0.4592 -0.5204  0.0709
 1365SOL    HW213382   0.243   1.117   0.786 -2.3966  1.1101  0.1059
 1366SOL     OW13383   1.833   0.563   1.148  0.3860 -0.0646  0.2294
 1366SOL    HW113384   1.767   0.632   1.116  1.4436  1.0940  0.5198
 1366SOL    HW213385   1.802   0.526   1.235 -0.9577 -1.0425 -0.6537
 1367SOL     OW13386   2.872   7.912   1.273  0.3215 -0.1997 -0.2203
 1367SOL    HW113387   2.775   7.918   1.297 -0.2514 -1.2072 -2.1141
 1367SOL    HW213388   2.894   7.983   1.207  1.2858  1.0544  1.4311
 1369SOL     OW13389   0.974   3.156   1.813  0.0021 -0.8304  0.7472
 1369SOL    HW113390   0.973   3.177   1.911  1.2542  1.1020  0.3672
 1369SOL    HW213391   0.993   3.058   1.801  0.6929 -0.9187  2.4168
 1370SOL     OW13392   8.840   4.823   0.424  0.0227 -0.3865 -0.0669
 1370SOL    HW113393   8.933   4.850   0.400 -0.2243 -0.5679 -1.2682
 1370SOL    HW213394   8.798   4.893   0.481  1.3535 -0.9179  1.5899
 1371SOL     OW13395   3.311   8.532   1.943 -0.0847 -0.5049 -0.3693
 1371SOL    HW113396   3.333   8.623   1.977 -0.8456  0.0077 -1.2564
 1371SOL    HW213397   3.386   8.469   1.966  0.3033  0.2645  0.5032
 1373SOL     OW13398   0.005   1.598   1.540 -0.4819  0.0203  0.0170
 1373SOL    HW113399   0.007   1.575   1.443  0.9389  0.2264 -0.0248
 1373SOL    HW213400  -0.082   1.571   1.580 -1.0403 -0.1407 -1.2979
 1374SOL     OW13401   1.613   8.981   1.348 -0.1141 -0.3101  0.6589
 1374SOL    HW113402   1.521   8.991   1.387 -0.2331 -0.3882  0.3989
 1374SOL    HW213403   1.649   8.890   1.372  0.0704 -0.1159  1.1283
 1376SOL     OW13404   4.062   2.696   0.731 -0.2480  0.0808 -0.3166
 1376SOL    HW113405   4.127   2.749   0.677 -0.2174 -0.3421 -0.6943
 1376SOL    HW213406   4.105   2.611   0.763 -0.5724 -0.1397 -0.4625
 1378SOL     OW13407   3.896   3.231   1.375  0.1464  0.5871  0.1886
 1378SOL    HW113408   3.873   3.147   1.424  0.2611  0.6108  0.2841
 1378SOL    HW213409   3.986   3.264   1.406  0.2574  0.5564 -0.0972
 1379SOL     OW13410   3.294   8.930   0.852 -0.1752 -0.0615  0.5772
 1379SOL    HW113411   3.223   8.877   0.806 -0.1762 -1.6640  2.3829
 1379SOL    HW213412   3.317   9.009   0.796 -0.6131 -1.6183 -1.8890
 1381SOL     OW13413   8.835   1.454   0.961 -0.3067  0.2534  0.0155
 1381SOL    HW113414   8.919   1.506   0.946 -0.0922 -0.1606 -0.2351
 1381SOL    HW213415   8.764   1.488   0.899 -0.6555  1.3368  0.9898
 1382SOL     OW13416   1.545   0.649   2.323 -0.5571  0.1779  0.2216
 1382SOL    HW113417   1.526   0.582   2.394  0.8878  0.9576  1.3616
 1382SOL    HW213418   1.482   0.727   2.333 -1.0459 -0.1845 -0.0065
 1383SOL     OW13419   0.586   6.419   0.847  0.0557 -0.0257 -0.0445
 1383SOL    HW113420   0.497   6.402   0.889 -0.5728  2.3377 -0.3829
 1383SOL    HW213421   0.634   6.490   0.899  0.2367  1.2690 -1.9479
 1384SOL     OW13422   1.613   6.113   1.777 -0.2082  0.1118 -0.2295
 1384SOL    HW113423   1.605   6.035   1.839 -0.1467  1.1878  1.1357
 1384SOL    HW213424   1.522   6.138   1.744 -0.5573  1.2558  1.5688
 1385SOL     OW13425   8.647   8.012   1.076 -0.0556 -0.8467  0.4967
 1385SOL    HW113426   8.663   7.973   0.985 -2.9868 -2.2362  0.5076
 1385SOL    HW213427   8.612   8.105   1.067  0.9252 -0.4942  0.2577
 1386SOL     OW13428   4.674   3.488   1.631 -0.7898  0.0403 -0.0084
 1386SOL    HW113429   4.766   3.500   1.594 -0.7949  0.0940 -0.0034
 1386SOL    HW213430   4.630   3.577   1.640 -0.8458  0.0136 -0.0192
 1387SOL     OW13431   2.336   0.427   2.277 -0.0981 -0.2838 -0.2747
 1387SOL    HW113432   2.245   0.463   2.259  0.1254  0.0463 -0.7864
 1387SOL    HW213433   2.398   0.502   2.301 -0.5147 -0.7898  2.4950
 1388SOL     OW13434   2.364   9.403   1.116 -0.0766  0.0302 -0.2062
 1388SOL    HW113435   2.295   9.473   1.099  2.0245  1.6416 -2.4132
 1388SOL    HW213436   2.372   9.387   1.215 -2.5216  0.8635  0.1587
 1389SOL     OW13437   0.520   0.525   0.430  0.1956  0.3399 -0.1141
 1389SOL    HW113438   0.522   0.428   0.407 -0.8174  0.8077 -2.3548
 1389SOL    HW213439   0.534   0.579   0.347  0.4580  2.1083  1.0614
 1390SOL     OW13440   1.584   7.121   2.281 -0.0098  0.8595  0.3043
 1390SOL    HW113441   1.495   7.150   2.316 -1.1008  0.6414 -2.1273
 1390SOL    HW213442   1.634   7.200   2.245  1.4839  1.2209  3.0909
 1391SOL     OW13443   1.980   6.549   1.013  0.3202  0.2769  0.2355
 1391SOL    HW113444   1.956   6.637   0.974 -0.0167  0.2828  0.4447
 1391SOL    HW213445   1.987   6.557   1.113  1.0539  0.2380  0.1907
 1392SOL     OW13446   9.062   3.243   1.735  0.1794  0.5609 -0.0905
 1392SOL    HW113447   9.028   3.158   1.775  0.6206  0.2880 -0.2848
 1392SOL    HW213448   9.012   3.263   1.651 -1.1149  1.4184  0.8691
 1393SOL     OW13449   9.012   4.717   1.331  0.1570 -0.0830  0.6923
 1393SOL    HW113450   9.024   4.805   1.285  0.1550  0.6448  2.0729
 1393SOL    HW213451   9.015   4.730   1.430  1.9689 -1.8803  0.9030
 1395SOL     OW13452   9.285   3.385   1.813  0.2136  0.1373 -0.1002
 1395SOL    HW113453   9.206   3.332   1.784 -0.8371  0.5291  1.9279
 1395SOL    HW213454   9.369   3.332   1.800 -0.6664 -1.3805  0.3503
 1396SOL     OW13455   1.347   2.171   0.960 -0.2575 -0.5167  0.7715
 1396SOL    HW113456   1.302   2.256   0.986 -0.2926 -0.2929 -0.0273
 1396SOL    HW213457   1.333   2.153   0.863  0.2902 -1.1035  0.7940
 1397SOL     OW13458   2.609   8.718   0.741 -0.4507 -0.4366 -0.3850
 1397SOL    HW113459   2.555   8.761   0.668 -0.6514 -0.5046 -0.2770
 1397SOL    HW213460   2.557   8.720   0.826 -0.6117 -1.2156 -0.4608
 1398SOL     OW13461   8.126   9.489   1.034  0.1052 -0.5408 -0.2684
 1398SOL    HW113462   8.141   9.445   1.123  1.1827 -0.4832 -0.4102
 1398SOL    HW213463   8.204   9.470   0.974 -0.2393  0.0936 -0.9251
 1400SOL     OW13464   9.694   9.384   2.149  0.4349  0.0011 -0.3233
 1400SOL    HW113465   9.656   9.357   2.237 -2.0336 -1.4450 -1.7729
 1400SOL    HW213466   9.735   9.475   2.157 -2.2133  1.0703  1.6686
 1403SOL     OW13467   1.952   3.755   2.124 -0.1653 -0.5932  0.0434
 1403SOL    HW113468   2.039   3.804   2.113 -0.7829  1.3850  3.1262
 1403SOL    HW213469   1.959   3.692   2.201 -1.0980 -1.3184 -0.4554
 1404SOL     OW13470   1.801   1.643   1.172  0.3066 -0.0997  0.2675
 1404SOL    HW113471   1.748   1.633   1.257  2.1750 -0.2374  1.4400
 1404SOL    HW213472   1.811   1.741   1.151  0.2587 -0.0514  0.4664
 1405SOL     OW13473   9.684   9.232   1.533 -0.2738 -0.0174  0.7345
 1405SOL    HW113474   9.690   9.142   1.490  1.4230  1.0471 -1.3414
 1405SOL    HW213475   9.589   9.252   1.555 -1.0072 -1.1659 -1.2733
 1406SOL     OW13476   2.837   9.285   1.872  0.0401 -0.3460 -0.4511
 1406SOL    HW113477   2.783   9.205   1.896 -0.1232  0.5134  2.2331
 1406SOL    HW213478   2.915   9.293   1.934  1.0308  0.6222 -1.7768
 1407SOL     OW13479   1.122   6.597   1.492 -0.1712  0.3318 -0.3088
 1407SOL    HW113480   1.139   6.637   1.582 -0.3683  1.2251 -0.6653
 1407SOL    HW213481   1.209   6.574   1.448 -0.1053 -1.6154  0.7686
 1408SOL     OW13482   2.292   3.184   0.587  0.6271 -0.1730 -0.0458
 1408SOL    HW113483   2.286   3.101   0.643 -0.3215 -0.2529 -0.2537
 1408SOL    HW213484   2.245   3.259   0.633  1.6409  0.3027  0.2248
 1409SOL     OW13485   0.565   0.963   1.258 -0.4231  0.0484 -0.1026
 1409SOL    HW113486   0.583   0.893   1.189 -0.3060 -1.8015  1.7158
 1409SOL    HW213487   0.651   0.992   1.300 -0.6042  0.0146  0.3028
 1410SOL     OW13488   9.216   1.013   2.241  0.0792 -0.2997 -0.2713
 1410SOL    HW113489   9.143   1.053   2.296 -0.9579 -0.7459 -1.3106
 1410SOL    HW213490   9.298   1.001   2.297 -1.1788 -1.4075  1.3457
 1411SOL     OW13491   3.251   2.525   2.171 -0.5799 -0.2799  0.0099
 1411SOL    HW113492   3.339   2.561   2.202 -1.7606  0.2699  2.9480
 1411SOL    HW213493   3.263   2.477   2.084  2.5505  0.0131  0.2176
 1413SOL     OW13494   8.205   2.100   1.943  0.1999 -0.4121  0.2083
 1413SOL    HW113495   8.162   2.184   1.975 -2.0327 -1.2383 -0.5816
 1413SOL    HW213496   8.240   2.048   2.021 -0.6508  0.0346  0.8871
 1414SOL     OW13497   2.306   3.409   1.394 -0.5028 -0.4355 -0.0486
 1414SOL    HW113498   2.303   3.509   1.389  0.0780 -0.3821  0.6323
 1414SOL    HW213499   2.324   3.372   1.303 -0.0484  0.1105 -0.1841
 1416SOL     OW13500   0.705   7.864   1.007 -0.1434 -0.3609 -0.0206
 1416SOL    HW113501   0.648   7.806   1.064  0.6742 -0.3531  0.8070
 1416SOL    HW213502   0.771   7.808   0.956  2.5641  0.0143  2.9184
 1417SOL     OW13503   2.982   0.279   0.742 -0.7569 -0.5462  0.1210
 1417SOL    HW113504   2.886   0.261   0.722 -1.0750  2.4556 -1.3454
 1417SOL    HW213505   3.037   0.254   0.662 -0.7318  0.8511 -0.3154
 1418SOL     OW13506   9.010   5.008   1.517  0.2876 -0.6717  0.0467
 1418SOL    HW113507   8.980   5.103   1.527 -0.8233 -1.0444  0.3349
 1418SOL    HW213508   9.064   4.999   1.434 -1.4156 -0.2247 -1.1261
 1419SOL     OW13509   9.578   7.373   1.000  0.4755  0.3049 -0.0008
 1419SOL    HW113510   9.672   7.343   0.982 -0.0160 -1.6287  0.5233
 1419SOL    HW213511   9.562   7.376   1.098 -1.1020 -3.1011 -0.0721
 1420SOL     OW13512   1.476   3.102   1.261  0.4487  0.6713 -0.4931
 1420SOL    HW113513   1.554   3.067   1.314  1.5898 -0.2179 -2.6851
 1420SOL    HW213514   1.411   3.027   1.244 -1.0651  1.4696  1.5614
 1421SOL     OW13515   9.738   8.117   1.208  0.3391  0.2806  0.5295
 1421SOL    HW113516   9.802   8.074   1.271 -0.0941  0.6602  1.2363
 1421SOL    HW213517   9.738   8.068   1.121  0.3263 -0.7443  1.1096
 1424SOL     OW13518   3.821   8.454   1.439  0.1604  0.1991  0.5613
 1424SOL    HW113519   3.780   8.367   1.468  1.2458 -0.3937  0.3648
 1424SOL    HW213520   3.861   8.500   1.518 -1.0424  0.8612  0.7815
 1427SOL     OW13521   3.953   2.878   2.032 -0.8353 -0.0369 -0.5393
 1427SOL    HW113522   4.017   2.894   1.957  0.1859  2.5027  0.8363
 1427SOL    HW213523   3.965   2.785   2.066  3.4849  0.9434  0.9008
 1428SOL     OW13524   0.128   4.708   1.751 -0.3157 -0.2855 -0.2264
 1428SOL    HW113525   0.094   4.782   1.809 -0.9718  0.4897 -1.5703
 1428SOL    HW213526   0.186   4.647   1.805 -0.7122  0.5525  1.1734
 1429SOL     OW13527   1.336   0.558   1.511 -0.1156  0.4776  0.1082
 1429SOL    HW113528   1.246   0.589   1.543 -1.3750 -1.5060 -1.3885
 1429SOL    HW213529   1.408   0.599   1.568 -1.9294  2.4080  1.0781
 1430SOL     OW13530   1.483   8.434   0.699  0.4025 -0.0234  0.4891
 1430SOL    HW113531   1.460   8.524   0.663 -0.3686 -0.2483  0.4119
 1430SOL    HW213532   1.581   8.417   0.687  0.4212  0.5172 -0.1227
 1432SOL     OW13533   1.535   8.395   1.953 -0.7638  0.1387 -0.0883
 1432SOL    HW113534   1.494   8.452   1.882 -1.7911 -0.5351 -0.0571
 1432SOL    HW213535   1.550   8.303   1.917  0.3850  0.2804  0.0230
 1433SOL     OW13536   9.828   2.724   2.266 -0.2306 -0.5726  0.2603
 1433SOL    HW113537   9.855   2.645   2.212 -1.5930 -0.2329 -0.9507
 1433SOL    HW213538   9.729   2.720   2.284 -0.9193  2.3600 -2.4293
 1434SOL     OW13539   0.760   3.043   1.133  0.3290  0.2086  0.1391
 1434SOL    HW113540   0.670   3.059   1.093  1.0369  0.4303 -1.4091
 1434SOL    HW213541   0.750   3.027   1.231 -1.4446 -0.2831 -0.0945
 1435SOL     OW13542   9.059   9.720   2.339  0.1039 -0.0323  0.2079
 1435SOL    HW113543   9.139   9.743   2.284  0.1411 -1.4587 -0.3559
 1435SOL    HW213544   8.986   9.786   2.322  0.7611  0.6002 -0.1500
 1438SOL     OW13545   1.387   1.933   1.626 -0.1245  0.4095  0.2871
 1438SOL    HW113546   1.307   1.893   1.671 -1.8002  1.8798 -1.3055
 1438SOL    HW213547   1.419   1.870   1.555 -0.6429  0.3461  0.1000
 1439SOL     OW13548   2.352   1.219   1.738  0.1434  0.0108  0.2708
 1439SOL    HW113549   2.363   1.171   1.651  0.5134  0.6664 -0.0424
 1439SOL    HW213550   2.303   1.160   1.802 -1.3947  0.0588 -0.8308
 1440SOL     OW13551   0.059   5.795   1.903  0.0693  0.0581  0.1029
 1440SOL    HW113552   0.143   5.749   1.875  0.5317  0.0964  1.3869
 1440SOL    HW213553  -0.013   5.775   1.837  1.0083 -0.2035 -0.8640
 1441SOL     OW13554   2.653  -0.078   2.180  0.1281 -0.3215  0.2641
 1441SOL    HW113555   2.624  -0.115   2.092  3.5918 -0.8023 -0.7552
 1441SOL    HW213556   2.649   0.022   2.177 -0.6432 -0.3568 -0.0885
 1442SOL     OW13557   9.808   2.849   1.126  0.2343 -0.4103  0.8046
 1442SOL    HW113558   9.788   2.779   1.195  1.2081 -0.3629  1.1379
 1442SOL    HW213559   9.907   2.856   1.114  0.1483  1.0289  0.8897
 1445SOL     OW13560   1.288   9.656   1.635 -0.0178 -0.4134 -0.5887
 1445SOL    HW113561   1.214   9.655   1.568 -0.7169  0.1303  0.1565
 1445SOL    HW213562   1.351   9.581   1.617 -1.3285 -1.5298 -0.5965
 1446SOL     OW13563   0.781   4.979   1.416 -0.1379 -0.1067 -0.0322
 1446SOL    HW113564   0.868   5.013   1.380  0.5565 -2.4812 -0.6532
 1446SOL    HW213565   0.792   4.955   1.513 -0.9741  2.5781  0.7700
 1447SOL     OW13566   9.575   2.965   1.358  0.4182  0.2308 -0.3969
 1447SOL    HW113567   9.650   2.927   1.413 -0.2672  1.6779  1.5832
 1447SOL    HW213568   9.526   2.891   1.313  0.4757 -1.0501  1.6144
 1448SOL     OW13569   8.717   9.075   2.152  0.1738  0.3173  0.2709
 1448SOL    HW113570   8.631   9.105   2.110  0.7411 -0.2259 -1.3314
 1448SOL    HW213571   8.726   8.976   2.143  0.7828  0.3184  0.7919
 1449SOL     OW13572  -0.062   5.993   2.288  0.5129  0.6806  0.2850
 1449SOL    HW113573  -0.041   5.927   2.216 -0.1790  1.7978 -0.9680
 1449SOL    HW213574  -0.057   5.948   2.377  2.3701 -0.4772 -0.3795
 1450SOL     OW13575   4.454   1.514   1.011 -0.1379  0.5123  0.1607
 1450SOL    HW113576   4.489   1.439   1.068 -0.5185  0.9002  0.9210
 1450SOL    HW213577   4.357   1.497   0.992 -0.1650  0.6964  0.1407
 1451SOL     OW13578   1.381   5.057   0.559 -0.4839 -0.9080  0.5339
 1451SOL    HW113579   1.471   5.013   0.559  0.5859  1.2054 -0.1969
 1451SOL    HW213580   1.376   5.122   0.635 -0.8176  0.1097 -0.3552
 1452SOL     OW13581   4.546   3.865   1.979  0.4196 -0.9150  0.4942
 1452SOL    HW113582   4.570   3.782   2.028  0.6255 -1.6066 -0.7673
 1452SOL    HW213583   4.452   3.892   2.000  0.3975 -1.3977  0.9941
 1453SOL     OW13584   8.787   2.497   0.961 -0.0037 -0.1250 -0.5034
 1453SOL    HW113585   8.861   2.554   0.998  0.1775 -0.2398 -0.6908
 1453SOL    HW213586   8.716   2.487   1.030 -0.4358  1.0518 -0.7590
 1454SOL     OW13587   2.173   6.598   2.275  0.0079  0.6422  0.1162
 1454SOL    HW113588   2.114   6.618   2.352 -0.6359  4.0318 -1.1701
 1454SOL    HW213589   2.134   6.522   2.222 -1.6999  0.9783  0.8508
 1455SOL     OW13590   9.364   8.159   0.979 -0.4246  0.2636  0.2415
 1455SOL    HW113591   9.296   8.182   1.049  0.0777  1.8217  0.2448
 1455SOL    HW213592   9.366   8.060   0.965 -2.1902  0.1527  0.7364
 1457SOL     OW13593   1.524   0.265   0.543 -0.3150  0.3202  0.0678
 1457SOL    HW113594   1.505   0.170   0.518  1.1344 -0.1065  0.5773
 1457SOL    HW213595   1.573   0.267   0.630 -1.3458  1.5903  0.6301
 1458SOL     OW13596   4.038   4.253   0.413  0.2254 -0.3394 -0.4061
 1458SOL    HW113597   4.044   4.265   0.512  0.6773 -3.0548 -0.0600
 1458SOL    HW213598   4.060   4.339   0.368  2.9340  0.2099  1.8025
 1459SOL     OW13599   0.446   4.137   1.009  0.1221  0.2071  0.3007
 1459SOL    HW113600   0.384   4.110   0.936 -2.2208  1.8254  1.6233
 1459SOL    HW213601   0.470   4.057   1.065 -1.5268 -0.2750  0.3275
 1460SOL     OW13602   8.621   0.880   0.399  0.5214  0.3318  0.0517
 1460SOL    HW113603   8.677   0.924   0.329  0.3780  0.2582 -0.1066
 1460SOL    HW213604   8.677   0.814   0.449 -0.3267 -2.3317 -2.4133
 1462SOL     OW13605   1.744   0.213   1.818  0.0878  0.1425 -0.4419
 1462SOL    HW113606   1.840   0.187   1.825 -0.0700 -0.3986 -0.2754
 1462SOL    HW213607   1.734   0.310   1.839  0.9397  0.8032 -2.8386
 1463SOL     OW13608   0.907   6.913   0.892 -0.1356  0.0820 -0.6730
 1463SOL    HW113609   1.002   6.913   0.924  0.0959 -0.3943 -1.3428
 1463SOL    HW213610   0.852   6.972   0.950  1.0005  2.0575 -1.5525
 1464SOL     OW13611   1.566   0.952   2.116  0.0373  0.7191  0.0942
 1464SOL    HW113612   1.619   0.902   2.184 -0.5031  0.6133  0.4429
 1464SOL    HW213613   1.501   1.012   2.162  2.4243  3.6980 -0.2961
 1465SOL     OW13614   1.004   9.553   0.364  0.0632  0.4909  0.7330
 1465SOL    HW113615   1.054   9.533   0.280  0.0057 -2.6123  1.3836
 1465SOL    HW213616   1.058   9.523   0.443 -1.4799 -0.0823  1.5932
 1466SOL     OW13617   2.756   1.530   0.672  0.2943  0.7607  0.4077
 1466SOL    HW113618   2.725   1.504   0.581 -0.4051  1.1533  0.5298
 1466SOL    HW213619   2.841   1.482   0.694 -0.7272 -1.0508  0.4422
 1467SOL     OW13620   4.258   9.183   0.724 -0.3190  0.2299  0.2339
 1467SOL    HW113621   4.221   9.240   0.797 -1.1643  0.1071 -0.0926
 1467SOL    HW213622   4.336   9.131   0.759  1.2342  2.4838  0.2111
 1468SOL     OW13623   0.464   4.380   1.197  0.2484  0.1050  0.0833
 1468SOL    HW113624   0.379   4.429   1.219 -0.8763 -1.8639  0.2641
 1468SOL    HW213625   0.446   4.316   1.122  1.4374 -0.7111  0.4885
 1469SOL     OW13626   1.903   5.171   0.361 -0.1946 -0.4044 -0.0841
 1469SOL    HW113627   1.924   5.221   0.278 -0.7888 -1.3186 -0.7978
 1469SOL    HW213628   1.812   5.129   0.353 -1.1603  1.2528  1.8652
 1470SOL     OW13629   8.924   0.221   1.678  0.3590  0.4004  0.1152
 1470SOL    HW113630   9.013   0.262   1.699  0.2010  0.8829 -0.1509
 1470SOL    HW213631   8.864   0.229   1.757  0.4049  0.4739  0.1428
 1472SOL     OW13632   1.481   0.153   1.779 -0.1805 -0.5878 -0.2380
 1472SOL    HW113633   1.572   0.145   1.820 -0.0978 -0.0668 -0.3179
 1472SOL    HW213634   1.464   0.073   1.721 -0.5641 -1.6529  1.3088
 1473SOL     OW13635   8.347   0.165   2.257  0.1231 -0.1832  0.2050
 1473SOL    HW113636   8.429   0.210   2.292 -1.1332  2.0615  0.3229
 1473SOL    HW213637   8.287   0.142   2.334 -0.9535  1.3993 -0.1454
 1474SOL     OW13638   2.354   4.213   1.018 -0.5754  0.1046 -0.3839
 1474SOL    HW113639   2.399   4.303   1.014  0.5387 -0.4036  0.4324
 1474SOL    HW213640   2.392   4.161   1.094 -0.8486 -1.2598 -1.1719
 1475SOL     OW13641   0.491   6.866   0.443 -0.5811  0.0980 -0.1609
 1475SOL    HW113642   0.589   6.881   0.458 -0.1602 -1.2029 -1.4130
 1475SOL    HW213643   0.461   6.789   0.499 -0.4363 -0.7355 -1.2159
 1476SOL     OW13644   2.103   9.430   0.777 -0.0166  0.0464  0.0202
 1476SOL    HW113645   2.174   9.391   0.835 -0.1390  0.0444  0.1678
 1476SOL    HW213646   2.013   9.410   0.816 -0.1898 -1.5541 -1.1425
 1478SOL     OW13647   3.820   4.044   0.951 -0.7413 -0.1876  0.0184
 1478SOL    HW113648   3.883   3.996   1.011 -1.7706  1.1464  2.2305
 1478SOL    HW213649   3.870   4.111   0.896 -0.2685  1.4058  2.3018
 1479SOL     OW13650   0.791   3.598   1.117 -0.5424 -0.0407  0.4123
 1479SOL    HW113651   0.873   3.565   1.072 -1.3295 -0.6558 -0.5882
 1479SOL    HW213652   0.795   3.575   1.215  0.4210 -0.1475  0.3500
 1481SOL     OW13653   0.673   7.354   0.890 -0.1130  0.1769 -0.6360
 1481SOL    HW113654   0.637   7.365   0.797 -0.1439  0.9343 -0.5372
 1481SOL    HW213655   0.760   7.403   0.898 -0.8699  1.4164  0.1700
 1482SOL     OW13656   9.683   4.920   0.375 -0.2669  0.3386  0.0386
 1482SOL    HW113657   9.718   4.869   0.454  1.3047 -0.2589 -1.0093
 1482SOL    HW213658   9.686   4.861   0.294 -0.6783  1.3416 -0.7194
 1483SOL     OW13659   9.476   5.351   2.091  0.1857 -0.0405  0.7469
 1483SOL    HW113660   9.529   5.293   2.153  0.5082 -0.1469  0.3722
 1483SOL    HW213661   9.383   5.316   2.084  0.2233 -0.1814  0.9648
 1484SOL     OW13662   0.682   4.188   1.628  0.4393  0.5979  0.2098
 1484SOL    HW113663   0.663   4.163   1.723  1.2669 -1.2269 -0.0943
 1484SOL    HW213664   0.779   4.173   1.609  0.0054 -0.2895 -1.3047
 1485SOL     OW13665   9.504   6.983   1.270  0.3018 -0.4772 -0.5387
 1485SOL    HW113666   9.509   7.010   1.174 -1.2133 -0.4351 -0.6227
 1485SOL    HW213667   9.451   6.899   1.278 -0.4737  0.0921  0.3637
 1487SOL     OW13668   8.950   8.664   2.304  0.0880  0.1538  0.3735
 1487SOL    HW113669   8.874   8.676   2.241 -1.2182  2.7986  2.3547
 1487SOL    HW213670   8.918   8.616   2.386  1.3315 -1.6156 -0.1507
 1488SOL     OW13671   1.744   6.072   2.160 -0.0324  0.0731 -0.0340
 1488SOL    HW113672   1.798   6.006   2.106 -0.4925 -0.6607  0.3867
 1488SOL    HW213673   1.710   6.027   2.242  0.3851  1.1046  0.7071
 1489SOL     OW13674   7.183   9.395   0.787  0.2613 -0.6963 -0.2899
 1489SOL    HW113675   7.201   9.313   0.842  1.1467 -1.5607 -1.8290
 1489SOL    HW213676   7.162   9.368   0.693 -2.2256  0.7059 -0.1790
 1490SOL     OW13677   8.346   2.412   1.976  0.5878  0.1137  0.0059
 1490SOL    HW113678   8.339   2.468   2.058  0.4452 -1.3848  1.0503
 1490SOL    HW213679   8.363   2.470   1.897  3.0242  1.4164  1.4044
 1491SOL     OW13680   1.194   8.998   2.237 -0.0908  0.3769  0.0807
 1491SOL    HW113681   1.141   9.022   2.155 -0.1797  1.3368  0.4115
 1491SOL    HW213682   1.228   9.081   2.280 -1.6299  0.0201  2.0668
 1492SOL     OW13683   1.139   9.397   0.593  0.2695  0.1629  0.5184
 1492SOL    HW113684   1.148   9.374   0.689  1.8763 -2.2660 -0.1729
 1492SOL    HW213685   1.068   9.341   0.551  1.4409 -0.7263 -0.2988
 1493SOL     OW13686   0.709   5.442   0.536 -0.2834 -0.0518 -0.6997
 1493SOL    HW113687   0.735   5.502   0.461  1.1891  2.3008  1.6042
 1493SOL    HW213688   0.613   5.458   0.560 -0.4316  0.0097 -1.3366
 1494SOL     OW13689   9.560   8.987   1.339  0.4286  0.2615 -0.1683
 1494SOL    HW113690   9.462   9.003   1.353  0.2264 -0.5647 -0.6010
 1494SOL    HW213691   9.591   8.914   1.400  0.8457  0.7224  0.1779
 1495SOL     OW13692   8.893  -0.029   0.562  0.5508  0.8294  0.5833
 1495SOL    HW113693   8.809  -0.042   0.616 -0.5212  0.7388 -1.0597
 1495SOL    HW213694   8.888   0.059   0.515 -0.0596 -0.5801 -2.0331
 1497SOL     OW13695   7.818   9.245   1.853 -0.1502 -0.1112  0.4221
 1497SOL    HW113696   7.816   9.160   1.801 -0.4553 -0.5072  1.0768
 1497SOL    HW213697   7.772   9.232   1.941 -0.0593  0.6847  0.5959
 1498SOL     OW13698   9.736   0.991   1.636  0.0358 -0.8010 -0.0874
 1498SOL    HW113699   9.743   1.059   1.709 -0.9025  0.7992 -1.4518
 1498SOL    HW213700   9.822   0.989   1.585  0.4709 -1.4739  0.6662
 1499SOL     OW13701   0.655   0.256   0.857 -0.3541 -0.0937 -0.0191
 1499SOL    HW113702   0.675   0.335   0.916 -0.8433 -0.1962  0.2876
 1499SOL    HW213703   0.665   0.283   0.761 -0.8481  0.4343  0.0748
 1500SOL     OW13704   4.581   3.023   1.864 -0.2235  0.3813 -0.0561
 1500SOL    HW113705   4.570   2.998   1.768 -2.7044  0.5347  0.1467
 1500SOL    HW213706   4.533   2.958   1.921  0.4615  0.8213  1.0382
 1501SOL     OW13707   1.656   1.743   0.953  0.7235 -0.0041  0.2873
 1501SOL    HW113708   1.668   1.837   0.985 -0.5530  0.1471  0.3413
 1501SOL    HW213709   1.670   1.680   1.029  0.2861  0.2152  0.5508
 1502SOL     OW13710   1.307   1.912   2.243  0.0480  0.2820  0.8632
 1502SOL    HW113711   1.380   1.939   2.306 -0.1401  1.0878  0.7372
 1502SOL    HW213712   1.305   1.975   2.166 -1.0792  0.5328  1.0896
 1503SOL     OW13713   8.992   2.554   1.376  0.3967  0.0373  0.6271
 1503SOL    HW113714   8.956   2.628   1.319 -0.1824 -0.1234  0.7755
 1503SOL    HW213715   9.013   2.475   1.319 -0.5198 -0.2493  0.6735
 1504SOL     OW13716   3.979   8.260   0.580  0.1225 -0.8671 -0.0409
 1504SOL    HW113717   3.936   8.193   0.640  0.3113  0.0204  1.0744
 1504SOL    HW213718   4.062   8.296   0.623  0.2373 -0.1921 -0.8067
 1506SOL     OW13719   2.596   1.142   1.897  0.2007 -0.7488 -0.4967
 1506SOL    HW113720   2.599   1.179   1.804 -1.0319 -1.2239 -0.7426
 1506SOL    HW213721   2.554   1.051   1.895  0.7023 -1.0045  0.4509
 1507SOL     OW13722   8.617   4.009   1.809  0.1050 -0.1208 -0.7919
 1507SOL    HW113723   8.630   3.946   1.733 -0.9829 -0.8761 -0.3479
 1507SOL    HW213724   8.595   3.958   1.892  0.0059  0.7929 -0.2504
 1508SOL     OW13725   9.091   4.000   2.084 -0.4493  0.0926 -0.2192
 1508SOL    HW113726   9.119   4.022   2.178  0.4662  0.4416 -0.5627
 1508SOL    HW213727   9.125   3.910   2.059 -1.8375 -0.5709  0.2351
 1509SOL     OW13728   9.842   9.492   1.799 -0.0701  0.2619 -0.9345
 1509SOL    HW113729   9.834   9.528   1.892  1.3708 -1.1627 -0.2318
 1509SOL    HW213730   9.751   9.487   1.758 -0.5660  2.3884 -0.1989
 1510SOL     OW13731   9.191   2.793   2.251 -0.1918 -0.0629  0.4139
 1510SOL    HW113732   9.221   2.715   2.196 -0.7440  0.5618 -0.7971
 1510SOL    HW213733   9.124   2.762   2.318  0.1582 -0.7578  0.4488
 1511SOL     OW13734   0.810   1.348   1.128  0.3090 -0.0366  0.5981
 1511SOL    HW113735   0.792   1.416   1.199 -0.0537 -0.7173  1.1640
 1511SOL    HW213736   0.908   1.325   1.127  0.5638  1.0523 -0.1078
 1512SOL     OW13737   9.115   0.373   2.894 -0.8800 -0.9077 -0.0335
 1512SOL    HW113738   9.108   0.472   2.907  2.4359 -0.8945  2.5198
 1512SOL    HW213739   9.123   0.353   2.796 -2.7123  1.2071 -0.6749
 1513SOL     OW13740   1.109   5.648   0.733  0.1059 -0.2669  0.2631
 1513SOL    HW113741   1.037   5.589   0.770 -1.9803  1.5606 -0.7518
 1513SOL    HW213742   1.084   5.675   0.640  2.0483  0.5456 -0.0364
 1514SOL     OW13743   7.187   0.709   1.063 -0.3165 -0.1140  0.2551
 1514SOL    HW113744   7.224   0.638   1.123  1.8654  1.3097  0.6652
 1514SOL    HW213745   7.135   0.667   0.990 -0.1494 -2.0659  1.2257
 1515SOL     OW13746   0.574   4.920   0.348  0.0483 -0.1718 -0.8050
 1515SOL    HW113747   0.571   5.019   0.363  0.8700 -0.0516 -1.3950
 1515SOL    HW213748   0.538   4.873   0.429  1.6990  0.5454  0.3905
 1517SOL     OW13749   2.411   9.377   1.405 -0.2237 -0.3325  0.1811
 1517SOL    HW113750   2.352   9.455   1.427 -0.0825 -0.4682  1.0601
 1517SOL    HW213751   2.506   9.409   1.400 -0.5565  0.3096 -3.3653
 1519SOL     OW13752   3.187   1.875   2.072 -0.2198  0.6702  0.1780
 1519SOL    HW113753   3.107   1.874   2.012 -0.7080 -1.1308  0.8303
 1519SOL    HW213754   3.162   1.836   2.160  1.0093  1.4883  0.8941
 1520SOL     OW13755   9.730   4.547   0.964  0.6381  0.1130  0.0770
 1520SOL    HW113756   9.634   4.564   0.943  1.2752  1.0134 -2.2990
 1520SOL    HW213757   9.769   4.626   1.010  0.6787  0.4522 -0.5364
 1521SOL     OW13758   4.506   2.073   1.502 -0.4425 -0.1974  0.1584
 1521SOL    HW113759   4.554   1.991   1.535 -0.7270 -0.1566  0.6844
 1521SOL    HW213760   4.415   2.077   1.544 -1.7836 -1.4345 -2.5351
 1522SOL     OW13761   1.682   6.793   1.177 -0.4676 -0.5747  0.0847
 1522SOL    HW113762   1.589   6.829   1.169 -0.1851  0.0520 -0.3701
 1522SOL    HW213763   1.681   6.694   1.163 -0.8700 -0.3781 -1.3484
 1523SOL     OW13764   3.591   8.572   0.701  0.6087 -0.3649 -0.3757
 1523SOL    HW113765   3.604   8.498   0.767 -0.3145 -1.1433 -1.0475
 1523SOL    HW213766   3.593   8.660   0.748  0.1600 -0.9041  0.6577
 1524SOL     OW13767   1.948   5.449   1.153 -0.2649 -0.0334 -0.3299
 1524SOL    HW113768   1.862   5.474   1.109 -0.0739 -1.0016 -1.2843
 1524SOL    HW213769   1.958   5.350   1.152  0.3863  0.0194  0.6963
 1525SOL     OW13770   8.334   7.398   2.088 -0.0894  0.2800 -0.4125
 1525SOL    HW113771   8.416   7.433   2.042 -0.4455  0.9775 -0.5114
 1525SOL    HW213772   8.277   7.350   2.022 -0.0698  0.3456 -0.4771
 1527SOL     OW13773   1.488   5.260   1.975 -0.3015  0.1219  0.4876
 1527SOL    HW113774   1.495   5.161   1.968  0.3047  0.1106  1.1860
 1527SOL    HW213775   1.419   5.284   2.044 -1.5968  0.1985 -0.8164
 1528SOL     OW13776   1.349   4.151   1.648  0.5264  0.4867 -0.0177
 1528SOL    HW113777   1.291   4.116   1.721  0.3820  0.4666 -0.1419
 1528SOL    HW213778   1.358   4.250   1.656 -1.6106  0.8420 -1.4894
 1529SOL     OW13779   2.367   0.630   1.020 -0.3857  0.3793  0.2399
 1529SOL    HW113780   2.357   0.690   0.941 -2.4202  1.2991  1.1491
 1529SOL    HW213781   2.462   0.628   1.049 -0.2572  3.0212  0.0607
 1530SOL     OW13782   9.897   1.106   0.977 -0.1182 -0.0721 -0.4781
 1530SOL    HW113783   9.908   1.094   1.076  0.6004  0.6611 -0.4608
 1530SOL    HW213784   9.978   1.069   0.931  0.0460  0.5838 -0.7179
 1531SOL     OW13785   1.025   5.996   1.592 -0.2103 -0.2405  0.3851
 1531SOL    HW113786   1.124   5.982   1.596  0.0478  1.6998  0.9519
 1531SOL    HW213787   0.983   5.919   1.543  1.8321  0.1226 -2.0267
 1532SOL     OW13788   1.882   8.464   1.476 -0.0542  0.0108 -0.2852
 1532SOL    HW113789   1.797   8.485   1.428  0.3771 -0.3983 -1.2543
 1532SOL    HW213790   1.937   8.401   1.420 -0.1052 -1.4993  1.3424
 1533SOL     OW13791   2.791   2.874   0.842 -0.6989  0.3495  0.3583
 1533SOL    HW113792   2.714   2.858   0.780  1.6412 -5.2611 -1.3933
 1533SOL    HW213793   2.786   2.812   0.920  0.6506  1.7899  1.6424
 1534SOL     OW13794   0.429   8.899   1.704  0.2727 -0.3606 -0.0596
 1534SOL    HW113795   0.339   8.940   1.718  0.0860 -0.6606 -0.3900
 1534SOL    HW213796   0.449   8.894   1.607  1.5026  1.5501  0.0778
 1535SOL     OW13797   9.907   1.036   1.222  0.6999 -0.1225  0.1443
 1535SOL    HW113798   9.812   1.016   1.248  0.5282 -0.9172 -1.0359
 1535SOL    HW213799   9.951   1.087   1.295 -0.4414 -0.3254  1.0002
 1536SOL     OW13800   9.180   6.570   2.078 -0.1805 -0.3389 -0.3455
 1536SOL    HW113801   9.182   6.523   1.989  0.5065 -0.6357 -0.1803
 1536SOL    HW213802   9.257   6.633   2.083  0.3922 -1.0940  0.4548
 1537SOL     OW13803   3.702   9.577   2.061 -0.2915  0.2093  0.0492
 1537SOL    HW113804   3.669   9.669   2.038  1.4773  0.6238 -0.9870
 1537SOL    HW213805   3.625   9.514   2.068 -1.5780  1.8664  1.2528
 1538SOL     OW13806   1.349   5.509   0.838 -0.1537  0.7273 -0.1974
 1538SOL    HW113807   1.279   5.557   0.786 -2.2906 -0.0809  1.8556
 1538SOL    HW213808   1.398   5.573   0.897 -0.7187  0.9229  0.0566
 1539SOL     OW13809   3.212   3.239   2.014 -0.0014 -0.4265 -0.7558
 1539SOL    HW113810   3.146   3.179   1.970  0.2374 -1.2880  0.0327
 1539SOL    HW213811   3.217   3.217   2.112  0.2899  0.6970 -0.5054
 1540SOL     OW13812   8.722   7.930   0.776 -0.3287  0.4867  0.3082
 1540SOL    HW113813   8.625   7.924   0.750 -0.8042 -0.0894  2.1590
 1540SOL    HW213814   8.765   7.840   0.764 -0.8265 -0.0755  2.4709
 1541SOL     OW13815   0.633   7.755   1.951  0.2129 -0.0937 -0.0352
 1541SOL    HW113816   0.706   7.705   1.905 -2.3025 -2.1226 -1.9981
 1541SOL    HW213817   0.627   7.727   2.046  0.6675 -1.4465 -0.4056
 1542SOL     OW13818   9.279   4.355   2.062 -0.0047 -0.2355 -0.1590
 1542SOL    HW113819   9.194   4.303   2.074 -0.7288  0.9869  0.1273
 1542SOL    HW213820   9.263   4.430   1.998  0.5210  0.7266  0.8121
 1545SOL     OW13821   1.634   2.073   0.971  0.0752 -0.1354 -0.4415
 1545SOL    HW113822   1.537   2.096   0.967 -0.3802 -1.8556 -0.0656
 1545SOL    HW213823   1.689   2.153   0.949 -1.4259  0.9371 -0.3557
 1546SOL     OW13824   0.901   3.545   0.471  0.1778  0.0121  0.0624
 1546SOL    HW113825   0.807   3.571   0.446  0.2748  1.2317  0.9453
 1546SOL    HW213826   0.906   3.528   0.569  0.8752 -0.1316  0.0053
 1547SOL     OW13827   1.657   9.309   1.949  0.6545  0.2588  0.1395
 1547SOL    HW113828   1.559   9.305   1.934  0.6958 -0.0201 -0.0755
 1547SOL    HW213829   1.705   9.277   1.866  0.9143  0.0021  0.3875
 1548SOL     OW13830   7.873   9.136   1.586  0.0155 -0.3422  0.1270
 1548SOL    HW113831   7.890   9.111   1.491  1.3361  0.4632  0.1387
 1548SOL    HW213832   7.837   9.056   1.635  0.5301 -1.1198 -0.7321
 1549SOL     OW13833   9.662   1.010   1.316  0.1204 -0.7647  0.7454
 1549SOL    HW113834   9.607   1.068   1.256  1.0866 -0.2406  0.3672
 1549SOL    HW213835   9.608   0.986   1.397 -0.7348 -0.4126  0.2866
 1550SOL     OW13836   0.876   4.770   2.021 -0.1249  0.2665 -0.0413
 1550SOL    HW113837   0.899   4.868   2.028 -0.7508  0.4382 -0.3790
 1550SOL    HW213838   0.946   4.724   1.966  0.3977  0.4400  0.4643
 1551SOL     OW13839   3.833   8.705   1.041  0.2366  0.1837 -0.5747
 1551SOL    HW113840   3.923   8.673   1.071  0.4668 -0.7894 -2.2306
 1551SOL    HW213841   3.841   8.745   0.950 -0.7169  1.6710 -0.0253
 1552SOL     OW13842   3.772   4.753   2.230  0.1938 -0.1524 -0.2017
 1552SOL    HW113843   3.870   4.755   2.208  0.4569  0.0919  0.9654
 1552SOL    HW213844   3.727   4.684   2.174  1.0656 -0.3926 -0.6226
 1553SOL     OW13845   0.248   7.611   2.203 -0.2625 -0.7986 -0.1946
 1553SOL    HW113846   0.221   7.554   2.125 -1.6164  0.0589 -0.3614
 1553SOL    HW213847   0.265   7.704   2.171  0.7748 -0.8188  0.2771
 1554SOL     OW13848   1.671   8.492   1.267 -0.2981 -0.3478 -0.3281
 1554SOL    HW113849   1.612   8.427   1.220 -2.1188  0.5651  0.6577
 1554SOL    HW213850   1.726   8.542   1.199 -1.0502 -0.8275 -1.3022
 1555SOL     OW13851   1.609   3.538   1.495  0.2514  0.5626  0.2884
 1555SOL    HW113852   1.577   3.453   1.454 -0.0487  0.8843 -0.1589
 1555SOL    HW213853   1.699   3.560   1.458 -0.6550  1.6249 -1.3628
 1556SOL     OW13854   8.826   9.576   1.114 -0.0300  0.1727  0.1176
 1556SOL    HW113855   8.739   9.618   1.141 -0.0462 -1.2520  2.4651
 1556SOL    HW213856   8.874   9.637   1.051 -0.8564  2.8772  1.9995
 1557SOL     OW13857   9.230   4.687   1.935  0.2324  0.0645 -0.1767
 1557SOL    HW113858   9.140   4.651   1.915 -0.9006  2.4380  0.4556
 1557SOL    HW213859   9.275   4.715   1.850 -0.1249  0.0282 -0.3748
 1558SOL     OW13860   9.383   9.213   0.804 -0.1619  0.0516 -0.1473
 1558SOL    HW113861   9.476   9.250   0.796  0.3826 -1.4675 -0.9031
 1558SOL    HW213862   9.374   9.165   0.892 -0.3814  0.6047  0.1339
 1559SOL     OW13863   0.534   8.003   0.758  0.0023 -0.6057 -0.7695
 1559SOL    HW113864   0.626   8.029   0.728  0.7952 -0.8805  1.3342
 1559SOL    HW213865   0.540   7.927   0.821 -1.4983  0.7626  1.0748
 1560SOL     OW13866   8.518   1.781   0.798  0.1058  0.0655 -0.5999
 1560SOL    HW113867   8.587   1.802   0.868  0.3662 -1.0195 -0.5244
 1560SOL    HW213868   8.436   1.836   0.814  0.3103  0.1090  0.3200
 1562SOL     OW13869   0.262   7.445   0.859  0.2361 -0.1330 -0.2537
 1562SOL    HW113870   0.358   7.426   0.839  0.6371  0.7065  0.8112
 1562SOL    HW213871   0.230   7.384   0.931  0.9035  1.6690  1.6345
 1563SOL     OW13872   2.213   6.189   2.102  0.3795  0.3894 -0.7458
 1563SOL    HW113873   2.231   6.116   2.036 -1.3035 -0.6118 -0.1366
 1563SOL    HW213874   2.286   6.257   2.097  0.3534  0.2658 -3.5007
 1564SOL     OW13875   0.431   4.721   1.057  0.2803 -0.1735  0.5625
 1564SOL    HW113876   0.392   4.774   1.133  0.9006 -0.1199  0.8532
 1564SOL    HW213877   0.526   4.697   1.079  0.4585 -0.1743 -0.1881
 1565SOL     OW13878   9.416   2.752   1.600 -0.2990 -0.1379 -0.2717
 1565SOL    HW113879   9.372   2.716   1.518 -0.3658  0.5253 -0.5358
 1565SOL    HW213880   9.514   2.760   1.585 -0.5833  2.1577 -1.1361
 1566SOL     OW13881   8.484   2.089   1.752  1.1420 -0.4998  0.1089
 1566SOL    HW113882   8.495   2.073   1.654  0.9088 -1.5335  0.2428
 1566SOL    HW213883   8.402   2.144   1.768  1.9990  0.9594 -0.3692
 1567SOL     OW13884   9.235   3.395   0.530  0.2366 -0.1865  0.5170
 1567SOL    HW113885   9.291   3.473   0.502  2.2615 -1.9106 -0.3944
 1567SOL    HW213886   9.153   3.427   0.577  1.6203  2.4340  1.2070
 1569SOL     OW13887   4.004   8.550   0.685  0.1490  0.5233 -0.3473
 1569SOL    HW113888   3.958   8.638   0.699 -1.1789 -0.0088 -1.2195
 1569SOL    HW213889   3.993   8.493   0.766 -1.6826  0.0060 -0.9215
 1570SOL     OW13890   0.369   9.783   0.440 -0.5407 -0.1961  0.0125
 1570SOL    HW113891   0.390   9.737   0.354  0.2100 -0.7006  0.4534
 1570SOL    HW213892   0.445   9.770   0.504 -1.2574 -0.1607  0.8866
 1572SOL     OW13893   2.892   3.800   1.214  0.1069  0.8568 -0.0576
 1572SOL    HW113894   2.863   3.726   1.274  0.7697  1.8319  1.5144
 1572SOL    HW213895   2.878   3.774   1.119 -1.8222 -0.3776  0.5366
 1573SOL     OW13896   0.856   8.728   1.340 -0.7386  0.2830  0.2922
 1573SOL    HW113897   0.872   8.826   1.343 -3.3459  0.7088  1.9557
 1573SOL    HW213898   0.758   8.710   1.343 -0.2623 -2.3959  1.8861
 1574SOL     OW13899   0.853   5.998   1.809  0.0139  0.0683 -0.5566
 1574SOL    HW113900   0.796   6.080   1.823  0.7750  0.5867 -0.4640
 1574SOL    HW213901   0.897   6.004   1.719  1.5186  0.6622  0.1921
 1576SOL     OW13902   9.906   1.561   0.989 -0.1289  0.0780 -0.3720
 1576SOL    HW113903   9.864   1.644   0.952  3.6056  2.8850  1.3448
 1576SOL    HW213904   9.990   1.541   0.939  1.2707 -0.1427  1.9902
 1577SOL     OW13905   0.709   7.509   1.313  0.8729 -0.1358 -0.3734
 1577SOL    HW113906   0.722   7.513   1.412 -0.7360  2.1297 -0.2232
 1577SOL    HW213907   0.794   7.479   1.269  2.0811  0.3833  1.5722
 1578SOL     OW13908   8.401   2.614   1.772  0.1223 -0.4308 -0.2367
 1578SOL    HW113909   8.480   2.673   1.784  0.8720 -1.4531 -0.1106
 1578SOL    HW213910   8.371   2.616   1.677 -1.9545  2.7697  0.3903
 1579SOL     OW13911   9.679   1.181   0.551 -0.1494 -1.1512 -0.1918
 1579SOL    HW113912   9.661   1.198   0.454 -1.4919  0.0716  0.2585
 1579SOL    HW213913   9.770   1.141   0.561 -0.0698 -1.4645 -1.9706
 1580SOL     OW13914   3.038   0.707   0.435  0.0736  0.1926 -0.5082
 1580SOL    HW113915   3.082   0.797   0.430  0.7499 -0.1449 -0.6363
 1580SOL    HW213916   2.939   0.719   0.448  0.3102  0.9486  0.6179
 1581SOL     OW13917   1.714   8.749   1.494  0.1907  0.6685 -0.4172
 1581SOL    HW113918   1.642   8.693   1.536  2.3199 -1.5492  0.3831
 1581SOL    HW213919   1.735   8.712   1.403  2.1796 -0.3726  0.4481
 1582SOL     OW13920   2.641   4.456   1.456  0.2490 -0.2515 -0.3149
 1582SOL    HW113921   2.629   4.521   1.532  0.5436 -0.8835  0.2743
 1582SOL    HW213922   2.605   4.367   1.482  0.5911 -0.5394 -0.8197
 1583SOL     OW13923   0.084   7.220   1.756 -0.1859  0.2134 -0.5083
 1583SOL    HW113924   0.105   7.314   1.782  0.1117 -0.5013  2.0022
 1583SOL    HW213925   0.169   7.168   1.746 -0.3750  0.0141 -1.1281
 1584SOL     OW13926   9.016   1.677   0.910  0.5131  0.1729  0.4722
 1584SOL    HW113927   9.084   1.682   0.837  1.2100 -0.3340  1.0768
 1584SOL    HW213928   8.979   1.768   0.928 -0.8918  0.0593 -1.6433
 1585SOL     OW13929   3.480   4.554   1.873 -0.2123  0.2738 -0.2761
 1585SOL    HW113930   3.386   4.547   1.838 -0.9194  0.8973  1.4425
 1585SOL    HW213931   3.479   4.548   1.973  1.6696 -0.4860 -0.2813
 1586SOL     OW13932   1.799   1.917   1.126 -0.3530  0.0459  0.3207
 1586SOL    HW113933   1.740   1.981   1.076  1.5021  1.1866 -0.4675
 1586SOL    HW213934   1.799   1.940   1.223 -1.4719 -0.1868  0.3843
 1588SOL     OW13935   2.681   2.217   1.706 -0.5507 -0.0640 -0.0663
 1588SOL    HW113936   2.631   2.140   1.745  0.9904 -0.4742  1.1637
 1588SOL    HW213937   2.779   2.196   1.704 -0.3416  0.9635 -1.8306
 1589SOL     OW13938   9.892   2.512   2.100 -0.2668  0.5234 -0.1668
 1589SOL    HW113939   9.821   2.441   2.100  0.0509  0.2017  0.6196
 1589SOL    HW213940   9.971   2.479   2.050 -1.0947  1.3236 -2.0490
 1590SOL     OW13941   0.199   2.896   0.803 -0.2276 -0.6154 -0.3789
 1590SOL    HW113942   0.251   2.855   0.878 -0.4238 -0.6098 -0.2391
 1590SOL    HW213943   0.139   2.968   0.839  1.2801  0.9083 -0.8356
 1592SOL     OW13944   2.653   5.896   0.348  0.2548 -0.0344 -0.3385
 1592SOL    HW113945   2.641   5.849   0.260  1.5802 -0.4021 -0.3227
 1592SOL    HW213946   2.698   5.984   0.333  2.1141 -0.8860  0.1622
 1593SOL     OW13947   3.794   3.015   0.604  0.8345 -0.3370 -0.7285
 1593SOL    HW113948   3.846   2.950   0.660  0.3378 -1.6033 -1.7110
 1593SOL    HW213949   3.856   3.087   0.571  1.6294 -0.9163 -0.5288
 1594SOL     OW13950   2.903   3.723   0.960  0.1669 -0.0364  0.4448
 1594SOL    HW113951   2.855   3.805   0.929  0.4242 -0.6492 -1.5929
 1594SOL    HW213952   2.872   3.644   0.908  1.4075 -0.9064  1.0021
 1595SOL     OW13953   3.656   9.513   0.401 -0.2208 -0.0349 -0.2498
 1595SOL    HW113954   3.582   9.528   0.336 -0.4853  0.5336  0.1805
 1595SOL    HW213955   3.743   9.507   0.351  0.1196  4.2866 -0.4254
 1597SOL     OW13956   3.164   1.866   0.760 -0.1538  0.4663 -0.4495
 1597SOL    HW113957   3.206   1.949   0.723  0.0484 -0.2686 -1.8880
 1597SOL    HW213958   3.187   1.788   0.702  0.5203 -0.7938  1.4728
 1598SOL     OW13959   0.853   4.903   1.749  0.3828  0.3218  0.1182
 1598SOL    HW113960   0.932   4.842   1.755 -0.1610 -0.2797  1.1839
 1598SOL    HW213961   0.885   4.996   1.731  1.3687  0.1841  1.0846
 1599SOL     OW13962   9.341   1.326   1.172 -0.0872  0.1405 -0.0450
 1599SOL    HW113963   9.298   1.411   1.140 -0.2122  0.1127  0.0500
 1599SOL    HW213964   9.290   1.290   1.250 -1.0952 -0.9894 -1.2068
 1600SOL     OW13965   2.629   1.216   0.904 -0.2274 -0.3392 -0.8669
 1600SOL    HW113966   2.567   1.281   0.949  2.6568  1.7404  0.2503
 1600SOL    HW213967   2.608   1.123   0.935 -2.8550  0.3001 -0.6452
 1601SOL     OW13968   8.951   8.711   0.315 -0.4354  0.1369 -0.2307
 1601SOL    HW113969   8.997   8.785   0.265 -0.1871  0.0793 -0.0869
 1601SOL    HW213970   9.004   8.687   0.396 -1.0605  0.5247  0.3041
 1602SOL     OW13971   2.169   1.023   1.031 -0.1208  0.4142 -0.3416
 1602SOL    HW113972   2.204   1.023   0.937  2.6548  1.9768  0.6264
 1602SOL    HW213973   2.226   0.964   1.088  0.2138  2.0247  1.0246
 1603SOL     OW13974   1.640   8.101   1.515 -0.2899  0.1284  0.0420
 1603SOL    HW113975   1.688   8.171   1.569 -0.4988 -0.3443  0.8453
 1603SOL    HW213976   1.672   8.011   1.543 -0.3594 -0.1174 -0.6718
 1604SOL     OW13977   2.865   9.048   1.312  0.3369 -0.4026  0.6321
 1604SOL    HW113978   2.955   9.052   1.355  0.5273  1.3846  0.1157
 1604SOL    HW213979   2.794   9.066   1.380  0.4915 -0.0022  0.6891
 1606SOL     OW13980   4.244   2.505   0.868 -0.3254 -0.0547  0.1795
 1606SOL    HW113981   4.304   2.432   0.838  0.8417  0.6127  0.8673
 1606SOL    HW213982   4.252   2.518   0.967  1.0060  2.3253 -0.1992
 1607SOL     OW13983   1.670   7.163   1.526  0.0108  1.0500  0.4445
 1607SOL    HW113984   1.698   7.252   1.562 -0.5657  1.3416  0.1766
 1607SOL    HW213985   1.649   7.171   1.429 -0.0706  0.6280  0.4252
 1609SOL     OW13986   2.971   2.266   2.026  0.2211  0.1291 -0.5215
 1609SOL    HW113987   2.928   2.356   2.025  0.3276  0.1788 -1.6115
 1609SOL    HW213988   3.067   2.275   2.049  0.0559  0.2126  0.1316
 1610SOL     OW13989   3.030   3.042   1.553  0.0951 -0.0111 -0.0461
 1610SOL    HW113990   3.025   3.010   1.459  2.5183  1.5319 -0.7626
 1610SOL    HW213991   3.118   3.016   1.593  0.5001  2.2784  0.6312
 1611SOL     OW13992   2.237   7.805   0.441  0.6360 -0.4325  0.2398
 1611SOL    HW113993   2.287   7.720   0.458 -0.2857 -0.9547  0.3470
 1611SOL    HW213994   2.185   7.797   0.356  1.3258  0.3897 -0.2728
 1612SOL     OW13995   2.504   3.363   0.460 -0.3029 -0.4001  0.0208
 1612SOL    HW113996   2.431   3.297   0.480  0.7091 -1.3285  0.6871
 1612SOL    HW213997   2.593   3.322   0.480  0.4204  0.6880 -0.9079
 1613SOL     OW13998   0.726   5.466   2.038  0.2067  0.5075 -0.3523
 1613SOL    HW113999   0.673   5.440   2.119 -2.3325 -1.2252 -2.4932
 1613SOL    HW214000   0.795   5.396   2.019  0.1571  0.4344 -0.2595
 1614SOL     OW14001   2.310   1.058   1.524 -0.5230 -0.3538  0.1474
 1614SOL    HW114002   2.373   0.987   1.490  2.1929  1.0193  2.1618
 1614SOL    HW214003   2.326   1.143   1.474  0.6767  0.5456  1.9793
 1618SOL     OW14004   0.495   9.746   1.594 -0.8289 -0.3758 -0.6720
 1618SOL    HW114005   0.396   9.755   1.585 -0.9316 -0.7643  0.0960
 1618SOL    HW214006   0.532   9.828   1.639 -0.8548 -0.4262 -0.5592
 1619SOL     OW14007   1.924   5.166   2.169 -0.4680 -0.2004 -0.1720
 1619SOL    HW114008   1.949   5.095   2.103 -1.8062  0.1227 -1.0237
 1619SOL    HW214009   1.978   5.249   2.151  1.1713 -1.0019  0.8879
 1620SOL     OW14010   9.294   8.362   2.187 -0.1792  0.1591 -0.3994
 1620SOL    HW114011   9.366   8.421   2.152  0.4914 -0.6020 -0.3277
 1620SOL    HW214012   9.334   8.291   2.245 -1.0295 -0.0080 -0.0079
 1621SOL     OW14013   2.459   5.209   0.568 -0.0632 -0.0707 -0.1284
 1621SOL    HW114014   2.484   5.182   0.661  1.4455  1.4159 -0.0674
 1621SOL    HW214015   2.452   5.128   0.510  1.1160 -0.8488  0.7893
 1622SOL     OW14016   9.193   7.329   2.324 -0.0881 -0.1567 -0.1401
 1622SOL    HW114017   9.135   7.268   2.270 -0.4953  0.5155 -0.4653
 1622SOL    HW214018   9.262   7.275   2.371  1.9907 -0.5041 -3.4479
 1623SOL     OW14019   9.356   0.071   2.278 -0.1436 -0.2804 -0.2570
 1623SOL    HW114020   9.426   0.020   2.228  0.2908 -0.5981  0.6668
 1623SOL    HW214021   9.270   0.067   2.226 -0.1118 -1.9383 -0.2339
 1624SOL     OW14022   1.457   7.419   0.634 -0.0314  0.3483  0.8485
 1624SOL    HW114023   1.521   7.446   0.562  0.4643  0.2180  1.2348
 1624SOL    HW214024   1.377   7.479   0.632  0.6399  1.2685  1.1152
 1625SOL     OW14025   3.028   3.259   0.607 -0.2018 -0.5060  0.2256
 1625SOL    HW114026   3.017   3.173   0.656 -0.4481  0.6954  2.3881
 1625SOL    HW214027   3.113   3.304   0.637 -0.4540  0.3329 -0.2889
 1626SOL     OW14028   7.393   9.604   2.192 -0.2093  0.3821 -0.1410
 1626SOL    HW114029   7.360   9.637   2.281 -0.1679  1.5126 -0.5418
 1626SOL    HW214030   7.418   9.682   2.135  1.1578 -0.4025 -0.6214
 1627SOL     OW14031   2.422   4.390   2.333  0.1698  0.1006 -0.5917
 1627SOL    HW114032   2.389   4.345   2.416 -2.2418 -1.0939 -2.1405
 1627SOL    HW214033   2.458   4.321   2.270  0.2994  0.8050 -1.2961
 1628SOL     OW14034   1.592   7.518   1.141  0.1836 -0.0669 -0.4745
 1628SOL    HW114035   1.676   7.487   1.096  1.7955 -0.3350  2.5975
 1628SOL    HW214036   1.610   7.604   1.189 -1.6571  0.5324 -0.8216
 1629SOL     OW14037   0.320   2.703   1.011  0.0678 -0.0158  0.0701
 1629SOL    HW114038   0.415   2.698   1.043  0.2700  0.1856 -0.4916
 1629SOL    HW214039   0.306   2.636   0.938 -0.4029 -0.4966  0.5978
 1631SOL     OW14040   9.887   6.534   1.130  0.0155  0.1410  0.2293
 1631SOL    HW114041   9.897   6.615   1.187 -1.0874 -0.0897  0.7632
 1631SOL    HW214042   9.792   6.525   1.101  0.3235 -0.4348 -0.6188
 1632SOL     OW14043   3.641   4.256   0.532 -0.6036 -0.2725  0.7040
 1632SOL    HW114044   3.662   4.346   0.494  0.3912  0.1556  2.2288
 1632SOL    HW214045   3.618   4.193   0.458  1.0586  0.6101 -0.5764
 1633SOL     OW14046   3.238   2.095   0.636 -0.1382  0.1141 -0.2586
 1633SOL    HW114047   3.310   2.139   0.690  0.3263 -0.2164 -0.6080
 1633SOL    HW214048   3.158   2.155   0.632 -0.2908  0.0251  1.0520
 1634SOL     OW14049   0.166   7.300   1.069  0.9760  0.1559  0.1016
 1634SOL    HW114050   0.082   7.274   1.116  2.0783  0.5355  2.3346
 1634SOL    HW214051   0.215   7.217   1.040  0.8596 -0.1111  0.6640
 1635SOL     OW14052   0.199   8.467   0.402  0.0880 -0.4296  0.3674
 1635SOL    HW114053   0.163   8.549   0.357  0.1789 -0.1874  0.7367
 1635SOL    HW214054   0.143   8.388   0.376  0.0998 -0.2814 -0.1200
 1636SOL     OW14055   9.136   9.206   0.701  0.1991 -0.3942 -0.1416
 1636SOL    HW114056   9.120   9.244   0.610 -0.6704 -1.1006 -0.2862
 1636SOL    HW214057   9.235   9.193   0.714  0.3579  0.0902 -0.8231
 1637SOL     OW14058   1.624   7.172   0.975 -0.1731 -0.0320  0.2395
 1637SOL    HW114059   1.685   7.093   0.969  1.8092  1.5536 -0.8104
 1637SOL    HW214060   1.677   7.254   0.995 -1.9788  1.3471 -0.4968
 1638SOL     OW14061   9.455   2.145   1.972  0.1534 -0.1479  0.0003
 1638SOL    HW114062   9.525   2.075   1.962  1.0955  1.0553 -2.2141
 1638SOL    HW214063   9.437   2.187   1.883 -0.5681  2.2354  1.2253
 1640SOL     OW14064   3.742   8.941   1.632  0.1416 -0.4267 -0.0136
 1640SOL    HW114065   3.838   8.957   1.607 -0.3486  0.2915 -1.4729
 1640SOL    HW214066   3.691   8.914   1.551 -1.4867  1.9852  0.1633
 1642SOL     OW14067   4.098   9.329   2.267  0.4977 -0.0272  0.3930
 1642SOL    HW114068   4.009   9.345   2.225  0.3785  1.5589  1.1979
 1642SOL    HW214069   4.159   9.284   2.201 -0.0486  1.3325 -1.0748
 1643SOL     OW14070   2.765   0.723   1.397  0.1356  0.2834 -0.2415
 1643SOL    HW114071   2.760   0.782   1.317  1.4906 -1.1029 -1.3986
 1643SOL    HW214072   2.845   0.747   1.452  0.3824 -0.1219 -0.4225
 1644SOL     OW14073   8.453   7.103   0.354 -0.1937  0.1156 -0.3997
 1644SOL    HW114074   8.413   7.075   0.267 -1.8254  1.7460 -0.1992
 1644SOL    HW214075   8.496   7.193   0.344  1.9558 -0.8442 -0.1640
 1645SOL     OW14076   9.112   0.492   1.359  0.2701 -0.4141 -0.1258
 1645SOL    HW114077   9.045   0.423   1.386  0.7585 -0.8874 -0.1192
 1645SOL    HW214078   9.075   0.546   1.283 -1.0476  0.8535  1.4089
 1646SOL     OW14079   8.953   7.419   0.863 -0.4266  0.0275 -0.5785
 1646SOL    HW114080   8.989   7.497   0.913  0.3977 -0.6915 -0.0206
 1646SOL    HW214081   9.017   7.394   0.789 -1.6242  1.0730 -1.9950
 1647SOL     OW14082   8.876   2.332   0.435  0.1692  0.0242 -0.9667
 1647SOL    HW114083   8.819   2.271   0.490 -0.1477  1.2792  0.1160
 1647SOL    HW214084   8.911   2.282   0.356 -0.9854 -1.2488 -0.6949
 1648SOL     OW14085   8.890   1.925   0.909  0.2737 -0.0003  0.6624
 1648SOL    HW114086   8.876   1.899   0.814  0.6943 -2.1855  1.1576
 1648SOL    HW214087   8.805   1.960   0.947 -0.1280  0.0650 -0.2865
 1649SOL     OW14088   0.995   2.150   1.639 -0.2051 -0.2627  0.1921
 1649SOL    HW114089   1.085   2.172   1.601  0.4977 -1.6280  1.0224
 1649SOL    HW214090   1.003   2.139   1.739 -2.0141  3.3009  0.8005
 1653SOL     OW14091   7.875   9.472   1.673 -0.6884 -1.0849 -0.6927
 1653SOL    HW114092   7.833   9.549   1.720  1.6440 -1.0361  1.4139
 1653SOL    HW214093   7.847   9.387   1.717 -1.1222 -1.2673 -1.3147
 1655SOL     OW14094   3.701   3.644   0.970 -0.2059 -0.2385 -0.2177
 1655SOL    HW114095   3.721   3.703   0.892  1.0477 -0.6789 -0.2282
 1655SOL    HW214096   3.634   3.575   0.943 -1.8342  1.2665 -0.1570
 1656SOL     OW14097   9.936   3.495   1.200  0.3432 -0.8898  0.2968
 1656SOL    HW114098   9.869   3.531   1.265  0.5716  0.1556 -0.0295
 1656SOL    HW214099   9.918   3.534   1.109  0.2945 -1.9943 -0.1763
 1657SOL     OW14100   3.256   1.667   0.595  0.0338 -0.0376 -0.2669
 1657SOL    HW114101   3.331   1.723   0.560  0.0402 -0.7585 -1.4269
 1657SOL    HW214102   3.276   1.570   0.579 -0.0535 -0.3861  1.5695
 1658SOL     OW14103   2.897   9.373   0.707  0.6201  0.3553 -0.4118
 1658SOL    HW114104   2.922   9.295   0.650  0.4519 -0.5640  0.7532
 1658SOL    HW214105   2.798   9.384   0.708  0.5955  0.1006  0.0501
 1659SOL     OW14106   2.646   0.641   1.107  0.4067  0.1382  0.1622
 1659SOL    HW114107   2.679   0.604   1.193  1.1286 -1.8848 -0.9431
 1659SOL    HW214108   2.652   0.571   1.036  0.7765  2.0597 -1.7691
 1661SOL     OW14109   0.437   8.937   0.755 -0.3069 -0.0713  0.0908
 1661SOL    HW114110   0.530   8.905   0.735 -0.4098 -0.6818  0.5718
 1661SOL    HW214111   0.376   8.911   0.680 -0.4551 -1.2952  0.6370
 1663SOL     OW14112   2.808   4.856   1.430 -0.1807 -0.1901 -0.0263
 1663SOL    HW114113   2.846   4.822   1.516  0.4392  2.0709  0.6220
 1663SOL    HW214114   2.721   4.902   1.449 -0.2579 -0.0700 -0.6738
 1664SOL     OW14115   2.084   5.394   1.600 -0.6019 -1.0463 -0.4151
 1664SOL    HW114116   2.083   5.358   1.693  1.8696  0.4826  0.2384
 1664SOL    HW214117   2.162   5.357   1.550  2.2650  3.5310  0.3927
 1665SOL     OW14118   0.233   6.984   1.973 -0.0866  0.8027  0.3336
 1665SOL    HW114119   0.282   7.031   2.047  2.3094  1.1388 -1.4271
 1665SOL    HW214120   0.194   7.052   1.911  0.5125  0.5114 -0.3706
 1667SOL     OW14121   3.115   4.422   0.749 -0.6978 -0.0389  0.3245
 1667SOL    HW114122   3.178   4.500   0.751  0.0157 -0.6081  0.4471
 1667SOL    HW214123   3.128   4.372   0.663 -0.0459 -0.9136  0.9231
 1668SOL     OW14124   0.018   4.740   2.195 -0.5044 -0.0932 -0.5345
 1668SOL    HW114125   0.070   4.670   2.146 -0.0227 -0.0111 -0.1380
 1668SOL    HW214126  -0.039   4.696   2.265  0.4678 -0.0128  0.3149
 1669SOL     OW14127   2.591   9.396   0.710 -0.2101 -0.0656 -0.3455
 1669SOL    HW114128   2.537   9.468   0.753 -1.1633 -1.0765  0.1690
 1669SOL    HW214129   2.531   9.322   0.681  0.8511 -1.0517 -0.0584
 1670SOL     OW14130   1.997   1.663   0.360 -0.6371  0.2694 -0.4755
 1670SOL    HW114131   1.926   1.703   0.302  0.4058  1.8610 -0.6867
 1670SOL    HW214132   2.085   1.669   0.313  0.2617  1.8238  1.3675
 1671SOL     OW14133   9.404   8.857   0.905  0.4732 -1.0563  0.3381
 1671SOL    HW114134   9.393   8.952   0.875 -1.4436 -0.5444  2.5332
 1671SOL    HW214135   9.468   8.853   0.981  0.8745 -1.5832 -0.0234
 1672SOL     OW14136   2.038   1.930   1.020 -0.1332  0.4688 -0.1220
 1672SOL    HW114137   1.950   1.924   1.066 -0.0275  0.6409  0.1071
 1672SOL    HW214138   2.057   2.025   0.997  0.7195  0.6554  1.2840
 1673SOL     OW14139   9.466   6.528   1.776 -0.4632  0.7013  0.6921
 1673SOL    HW114140   9.484   6.525   1.874  1.3408 -2.9334  0.3081
 1673SOL    HW214141   9.373   6.497   1.758 -1.6213  3.5765  1.3492
 1675SOL     OW14142   1.007   5.412   1.424  0.6459 -0.2811  0.0140
 1675SOL    HW114143   0.975   5.391   1.331  0.5405  0.1574 -0.0506
 1675SOL    HW214144   0.928   5.429   1.483  0.7560  1.2092 -0.2435
 1677SOL     OW14145   0.454   6.290   1.259 -0.4208 -0.1686 -0.2638
 1677SOL    HW114146   0.525   6.356   1.237  0.4356 -0.9801  0.0376
 1677SOL    HW214147   0.422   6.306   1.353 -0.7147  0.2581 -0.4334
 1681SOL     OW14148   0.137   3.566   1.672  0.2489  0.1441  0.1506
 1681SOL    HW114149   0.104   3.489   1.727  0.5487 -0.5650 -0.6537
 1681SOL    HW214150   0.226   3.543   1.632 -0.8384 -0.0953 -2.1849
 1683SOL     OW14151   9.629   8.722   1.451 -0.6346  0.0397 -0.0158
 1683SOL    HW114152   9.676   8.787   1.510  0.1219  1.4390 -2.1196
 1683SOL    HW214153   9.695   8.672   1.395 -1.3108 -1.5629  0.5699
 1684SOL     OW14154   0.080   8.434   1.845 -0.4174  0.4917 -0.0361
 1684SOL    HW114155   0.019   8.386   1.782  0.3152 -0.2687 -0.1815
 1684SOL    HW214156   0.131   8.367   1.898  0.3814  1.1216 -0.0057
 1685SOL     OW14157   3.163   2.896   0.654 -0.1889 -0.3008 -0.5137
 1685SOL    HW114158   3.132   2.837   0.579 -1.3470  0.8901 -0.9961
 1685SOL    HW214159   3.086   2.914   0.715  0.4181 -0.1415  0.2029
 1686SOL     OW14160   0.747   2.627   2.327 -0.3404  0.1561 -0.0246
 1686SOL    HW114161   0.683   2.703   2.336  0.3461  0.8987 -1.3643
 1686SOL    HW214162   0.729   2.560   2.400 -0.2461  2.0802  1.8130
 1688SOL     OW14163   3.356   2.635   0.875 -0.0910  0.0522 -0.3516
 1688SOL    HW114164   3.329   2.610   0.782  2.3468  0.4740 -1.2007
 1688SOL    HW214165   3.451   2.609   0.890 -1.1224 -2.1560  2.8315
 1689SOL     OW14166   9.900   5.213   1.244  0.3720  0.4326  0.1227
 1689SOL    HW114167   9.804   5.235   1.263  0.1289 -1.7440  1.6723
 1689SOL    HW214168   9.908   5.173   1.153 -0.4515 -0.7895  0.5712
 1690SOL     OW14169   2.116   4.164   0.352 -0.3943 -0.1889 -0.4465
 1690SOL    HW114170   2.186   4.207   0.408  0.0655 -0.5195 -0.7667
 1690SOL    HW214171   2.027   4.172   0.398  0.1297 -1.2968  0.7894
 1691SOL     OW14172   2.434   1.440   1.000 -0.2841 -0.0510  0.0019
 1691SOL    HW114173   2.371   1.377   1.045  0.4500 -1.8970 -1.4668
 1691SOL    HW214174   2.426   1.531   1.040 -2.7946 -0.6183  0.8326
 1692SOL     OW14175   2.132   9.305   1.530 -0.1730  0.0944  0.1074
 1692SOL    HW114176   2.112   9.253   1.446  0.5186 -0.3260  0.1983
 1692SOL    HW214177   2.172   9.393   1.505 -0.5467  0.2266 -0.0252
 1693SOL     OW14178   9.678   1.599   0.648 -0.1492  0.3439 -0.6259
 1693SOL    HW114179   9.724   1.510   0.644 -1.1701 -0.1712 -1.0982
 1693SOL    HW214180   9.672   1.637   0.556 -2.0040 -0.2942 -0.7897
 1694SOL     OW14181   0.963   2.551   0.727 -0.3603 -0.2087 -0.7336
 1694SOL    HW114182   0.875   2.503   0.729 -0.1617 -0.5762 -0.6642
 1694SOL    HW214183   1.031   2.498   0.779 -0.4160  0.7034  0.2889
 1696SOL     OW14184   9.575   4.830   0.775  0.2125 -0.6114 -0.0848
 1696SOL    HW114185   9.527   4.903   0.727  1.2904 -0.4691 -0.9523
 1696SOL    HW214186   9.508   4.764   0.810 -0.6979  0.2880 -0.1074
 1697SOL     OW14187   1.881   4.589   0.621 -0.4783 -0.0602 -0.0787
 1697SOL    HW114188   1.924   4.679   0.625  0.3862 -0.5426  1.7817
 1697SOL    HW214189   1.950   4.519   0.607 -0.6857 -0.7820  2.3228
 1698SOL     OW14190   3.728   3.452   0.538 -0.3280 -0.8585 -0.5570
 1698SOL    HW114191   3.741   3.371   0.595  0.2330  0.1130  0.7277
 1698SOL    HW214192   3.684   3.524   0.592  1.0734  0.4065 -1.0640
 1699SOL     OW14193   1.592   6.153   1.455  0.2245  0.2282  0.1028
 1699SOL    HW114194   1.493   6.138   1.453  0.5061 -1.6856 -0.5243
 1699SOL    HW214195   1.634   6.088   1.519  1.2565 -0.1441 -0.9432
 1700SOL     OW14196   9.688   7.351   1.631 -0.2019  0.2819 -0.1520
 1700SOL    HW114197   9.599   7.329   1.589  0.7159 -0.1114 -1.9412
 1700SOL    HW214198   9.686   7.444   1.667 -1.5368  0.0691  0.3675
 1701SOL     OW14199   2.124   4.622   1.093 -0.4531  0.3088 -0.1053
 1701SOL    HW114200   2.072   4.625   1.178  1.4452 -0.3375  1.0928
 1701SOL    HW214201   2.113   4.531   1.051  0.7305 -0.2510  0.7948
 1703SOL     OW14202   9.240   7.697   2.165 -0.2025  0.2342  0.2154
 1703SOL    HW114203   9.280   7.636   2.233  1.4250 -0.1867 -1.0985
 1703SOL    HW214204   9.306   7.768   2.141  0.1345 -0.9569 -2.6004
 1704SOL     OW14205   0.263   4.576   1.366 -0.6962  0.3382  0.1039
 1704SOL    HW114206   0.189   4.611   1.424  0.6211 -0.7761  2.5570
 1704SOL    HW214207   0.346   4.630   1.381 -0.1046 -0.5098 -0.0656
 1705SOL     OW14208   1.521   7.335   1.331  0.6361 -0.7065 -0.2707
 1705SOL    HW114209   1.509   7.246   1.287  0.1464 -0.3541 -0.8624
 1705SOL    HW214210   1.551   7.402   1.263  2.4718 -0.7413  0.4563
 1706SOL     OW14211   3.493   8.369   2.039  0.2164 -0.0367  0.1318
 1706SOL    HW114212   3.492   8.271   2.024 -2.5085 -0.3405  1.9047
 1706SOL    HW214213   3.584   8.398   2.066  0.9239 -2.1526  0.0908
 1707SOL     OW14214   7.885   7.952   1.610  0.0651  0.2964  0.4857
 1707SOL    HW114215   7.825   8.030   1.590  1.8601  1.3349 -0.9991
 1707SOL    HW214216   7.949   7.939   1.534  1.3602 -1.1345  1.7935
 1709SOL     OW14217   9.296   5.437   0.843 -0.3213 -0.0958 -0.3554
 1709SOL    HW114218   9.348   5.362   0.884  2.3665  1.5688 -0.6318
 1709SOL    HW214219   9.283   5.510   0.910  0.2469  0.7255 -1.1205
 1711SOL     OW14220   2.551   4.397   1.097 -0.0050 -0.2831  0.0438
 1711SOL    HW114221   2.551   4.490   1.062  0.9802  0.0029  0.7951
 1711SOL    HW214222   2.582   4.396   1.192  0.5539 -1.4473 -0.1363
 1712SOL     OW14223   5.200   3.079   1.671  0.0328  0.0497  0.3828
 1712SOL    HW114224   5.130   3.116   1.610 -0.7568 -0.9414  0.6895
 1712SOL    HW214225   5.268   3.028   1.618 -0.7803 -1.0103  0.3639
 1713SOL     OW14226   8.834   9.878   2.274 -0.8899  0.2107  0.1586
 1713SOL    HW114227   8.765   9.874   2.202 -0.3515 -0.8209 -0.3077
 1713SOL    HW214228   8.893   9.958   2.260 -1.7929  0.9325  0.3970
 1715SOL     OW14229   9.279   6.441   0.609 -0.3230  0.3987 -0.2278
 1715SOL    HW114230   9.370   6.425   0.646  0.1327  1.5203 -0.8468
 1715SOL    HW214231   9.270   6.395   0.521 -0.4110  0.1633 -0.0969
 1716SOL     OW14232   9.318   3.135   1.447 -0.3291 -0.1757 -0.1395
 1716SOL    HW114233   9.408   3.090   1.443 -0.4744 -0.4563 -0.2903
 1716SOL    HW214234   9.327   3.225   1.490 -0.1386 -0.6116  0.7635
 1717SOL     OW14235   3.604   2.211   0.336  0.2575  0.1765  0.0249
 1717SOL    HW114236   3.643   2.245   0.422 -2.4694 -0.6701  1.6634
 1717SOL    HW214237   3.522   2.264   0.314  0.9049  0.3569 -2.0878
 1719SOL     OW14238   0.741   7.825   1.420 -0.2745  0.2020 -0.1191
 1719SOL    HW114239   0.741   7.893   1.347  1.9889 -0.7683 -1.0794
 1719SOL    HW214240   0.746   7.733   1.380  2.1015 -0.3037  1.2714
 1720SOL     OW14241   1.620   4.932   0.584 -0.5914 -0.1556  0.3155
 1720SOL    HW114242   1.635   4.863   0.655  0.0127  0.6457  0.9898
 1720SOL    HW214243   1.697   4.996   0.584 -0.8371  0.1406 -0.7309
 1721SOL     OW14244   9.393   6.946   1.892  0.2166 -0.3007  0.7462
 1721SOL    HW114245   9.377   6.949   1.793  0.4599 -0.2793  0.7048
 1721SOL    HW214246   9.440   7.030   1.921  0.1442 -0.3069  0.8793
 1722SOL     OW14247   8.219   8.786   1.443  0.4206  0.2116 -0.7868
 1722SOL    HW114248   8.270   8.701   1.455  0.3517  0.3496  0.6215
 1722SOL    HW214249   8.223   8.839   1.528 -0.3735  1.1509 -1.3244
 1723SOL     OW14250   8.538   8.825   0.520 -0.2556 -0.7824  0.9130
 1723SOL    HW114251   8.504   8.830   0.426 -0.1845  0.2567  0.9418
 1723SOL    HW214252   8.466   8.790   0.580 -0.4433 -1.0155  0.5532
 1726SOL     OW14253   9.307   1.784   1.151  0.5912 -0.1655  0.3606
 1726SOL    HW114254   9.282   1.688   1.148 -0.5277  0.1677 -1.5018
 1726SOL    HW214255   9.236   1.837   1.198  0.2183  0.0495 -0.4443
 1727SOL     OW14256   1.690   3.115   1.063 -1.0314 -0.0899 -0.2322
 1727SOL    HW114257   1.759   3.142   1.130 -1.2820  0.9900 -0.3898
 1727SOL    HW214258   1.606   3.087   1.111 -1.6026  1.7735 -0.0935
 1729SOL     OW14259   4.303   4.536   1.124 -0.5413 -0.4644  0.4009
 1729SOL    HW114260   4.347   4.625   1.129  0.8464 -0.8645 -2.9189
 1729SOL    HW214261   4.369   4.464   1.147 -0.8371 -0.7880  0.2544
 1730SOL     OW14262   2.281   5.738   1.475  0.6647  0.2525  0.0694
 1730SOL    HW114263   2.192   5.700   1.450  1.3839 -1.3177 -0.1703
 1730SOL    HW214264   2.282   5.837   1.457 -0.3983 -0.0467 -1.6808
 1731SOL     OW14265   9.427   0.519   0.934 -0.1014  0.3265  0.5516
 1731SOL    HW114266   9.426   0.530   1.033 -1.8451 -0.1801  0.6082
 1731SOL    HW214267   9.339   0.547   0.896 -0.3507 -1.8674 -0.5746
 1732SOL     OW14268   0.061   9.115   1.515 -0.2206 -0.5915 -0.0333
 1732SOL    HW114269   0.028   9.023   1.493 -0.7533 -0.1845 -0.9724
 1732SOL    HW214270   0.045   9.175   1.437 -1.3076  0.6810  1.1575
 1733SOL     OW14271   4.162   9.605   0.651  0.9071 -0.2649  0.8627
 1733SOL    HW114272   4.110   9.529   0.613  1.6587 -1.3836  2.0243
 1733SOL    HW214273   4.128   9.626   0.743  0.6182  0.8861  0.4944
 1735SOL     OW14274   2.135   6.853   1.152 -0.3734  0.6577 -0.7266
 1735SOL    HW114275   2.093   6.768   1.184 -0.9024  1.0970 -0.2553
 1735SOL    HW214276   2.076   6.931   1.175 -0.6048  1.0206 -2.4239
 1736SOL     OW14277   9.825   7.265   0.964 -0.0260  0.0805  0.2468
 1736SOL    HW114278   9.895   7.328   0.930  0.4892 -1.2704 -1.2649
 1736SOL    HW214279   9.797   7.203   0.890 -0.8104 -1.2017  1.5946
 1737SOL     OW14280   1.104   2.348   2.052 -0.5011 -0.3344 -0.5664
 1737SOL    HW114281   1.072   2.350   2.146  0.9082  0.1897 -0.0861
 1737SOL    HW214282   1.143   2.436   2.027  1.2685 -1.1664 -0.8661
 1739SOL     OW14283   9.781   9.007   1.868 -0.0312 -0.1704  0.0629
 1739SOL    HW114284   9.844   8.980   1.941  0.4817  0.5999 -0.0881
 1739SOL    HW214285   9.821   9.083   1.816 -1.2348  0.5541  0.1900
 1742SOL     OW14286   3.004   5.455   0.462  0.6334 -0.3596 -0.4433
 1742SOL    HW114287   2.939   5.428   0.392  0.3122 -1.2675  0.2034
 1742SOL    HW214288   2.983   5.548   0.493 -0.4010 -0.6800 -0.1767
 1743SOL     OW14289   0.465   8.351   1.166  0.1356 -0.2149 -0.3560
 1743SOL    HW114290   0.487   8.266   1.118 -1.8972 -0.7105 -0.4589
 1743SOL    HW214291   0.423   8.415   1.102 -0.8605 -0.1698  0.3348
 1744SOL     OW14292   1.231   7.877   1.069  0.2440 -0.2593 -0.4804
 1744SOL    HW114293   1.316   7.901   1.115 -1.0679  0.9478  1.3623
 1744SOL    HW214294   1.209   7.949   1.002 -0.1669  0.2516  0.2015
 1745SOL     OW14295   8.381   9.784   2.056 -0.0228 -0.0794 -0.0810
 1745SOL    HW114296   8.432   9.821   2.134 -0.3402 -0.5220  0.3374
 1745SOL    HW214297   8.440   9.782   1.976  0.2500  0.5623  0.0952
 1746SOL     OW14298  -0.021   5.556   1.659 -0.1318  0.3624 -0.7580
 1746SOL    HW114299   0.072   5.563   1.622  1.0926  2.5955  2.4418
 1746SOL    HW214300  -0.080   5.623   1.614  0.4050  0.5020 -1.2588
 1747SOL     OW14301   2.401   6.365   1.495  0.3176 -0.2637  0.2926
 1747SOL    HW114302   2.344   6.334   1.418 -2.3241  1.8179  1.3537
 1747SOL    HW214303   2.437   6.456   1.475  1.1124 -0.4623  0.7922
 1750SOL     OW14304   1.648   6.755   0.747 -0.0165  1.0470 -0.2918
 1750SOL    HW114305   1.581   6.823   0.719 -0.4876  0.3472 -0.8891
 1750SOL    HW214306   1.648   6.679   0.682  0.0825  0.1912  0.6821
 1751SOL     OW14307   9.217   1.534   1.037 -0.0029 -0.0444 -0.0355
 1751SOL    HW114308   9.136   1.576   0.997  0.4472  1.6683  0.8206
 1751SOL    HW214309   9.284   1.514   0.964 -1.2071 -1.5772 -0.7574
 1752SOL     OW14310   1.693   8.380   1.649  0.0380 -0.3359 -0.3332
 1752SOL    HW114311   1.782   8.404   1.610  0.1572  0.2098  0.2545
 1752SOL    HW214312   1.625   8.449   1.623  0.5218  1.0247  1.8768
 1753SOL     OW14313   9.034   3.490   1.510  0.1536 -0.4242  0.0172
 1753SOL    HW114314   8.981   3.417   1.466 -0.3702 -0.5469  0.8468
 1753SOL    HW214315   9.036   3.570   1.450 -1.1375 -0.3548  0.0528
 1754SOL     OW14316   4.540   1.750   1.205  0.2328  0.4809 -0.1713
 1754SOL    HW114317   4.572   1.806   1.129  0.4203  0.7399  0.1013
 1754SOL    HW214318   4.492   1.669   1.169 -0.0851  0.8418 -0.5584
 1755SOL     OW14319   0.666   3.885   1.444 -0.0935 -0.3743 -0.4709
 1755SOL    HW114320   0.664   3.859   1.347  0.3969  0.8654 -0.8299
 1755SOL    HW214321   0.630   3.978   1.454  1.2336  0.0673  0.3459
 1757SOL     OW14322   1.176   0.614   2.129 -0.4881 -0.1527  0.2190
 1757SOL    HW114323   1.267   0.645   2.155 -0.7443  0.6561  0.1502
 1757SOL    HW214324   1.181   0.518   2.100  0.0866 -0.5543  1.5903
 1760SOL     OW14325   0.072   3.105   1.752  0.0162  0.1980  0.1144
 1760SOL    HW114326   0.033   3.195   1.772 -1.2069 -0.4423  0.6471
 1760SOL    HW214327   0.171   3.108   1.768 -0.0117  1.4389  0.1416
 1761SOL     OW14328   0.476   3.842   2.190  0.6278 -0.2273  0.3616
 1761SOL    HW114329   0.576   3.834   2.196  0.4630 -1.9443  1.3432
 1761SOL    HW214330   0.449   3.863   2.097  1.8834 -0.3652 -0.0394
 1764SOL     OW14331   9.111   5.356   1.683 -0.1968  0.1654 -0.0508
 1764SOL    HW114332   9.094   5.436   1.625 -0.1001 -0.3324 -0.7701
 1764SOL    HW214333   9.175   5.294   1.637 -1.0962 -0.8371  0.0315
 1765SOL     OW14334   2.494   6.189   0.350 -0.2974 -0.6435 -0.5241
 1765SOL    HW114335   2.592   6.171   0.357 -0.1116  0.8050  0.8671
 1765SOL    HW214336   2.446   6.140   0.422 -0.6710 -1.7326 -1.4952
 1766SOL     OW14337   2.406   1.314   2.204  0.2915 -0.4364  0.0922
 1766SOL    HW114338   2.444   1.301   2.113  2.7422  0.4019  0.9542
 1766SOL    HW214339   2.370   1.227   2.238  1.1575 -1.1784 -0.8799
 1768SOL     OW14340   2.666   7.930   0.978 -0.1879 -0.6945  0.4184
 1768SOL    HW114341   2.660   7.913   0.880 -0.3785  0.8325  0.1482
 1768SOL    HW214342   2.574   7.931   1.017 -0.0182 -2.8747  0.9060
 1769SOL     OW14343   0.053   6.971   0.459  0.0798  0.2519  0.3446
 1769SOL    HW114344  -0.022   6.932   0.406 -2.1256  0.9372  2.8479
 1769SOL    HW214345   0.025   7.058   0.498  1.5361 -0.3106  2.7724
 1770SOL     OW14346   1.093   0.888   2.149 -0.0806  0.1788  0.1054
 1770SOL    HW114347   1.060   0.953   2.081  0.0031 -0.8080 -0.9033
 1770SOL    HW214348   1.085   0.795   2.112 -0.4169 -0.4066  1.6009
 1771SOL     OW14349   1.186   8.550   1.020 -0.1311  0.1679  0.0632
 1771SOL    HW114350   1.120   8.582   0.951 -0.8927  1.2557  1.2773
 1771SOL    HW214351   1.138   8.533   1.106  0.8107 -1.2295  0.3292
 1772SOL     OW14352   3.872   1.402   1.417 -0.1587 -0.3696  0.3556
 1772SOL    HW114353   3.826   1.410   1.329  0.8912 -1.1754 -0.2804
 1772SOL    HW214354   3.814   1.441   1.489 -2.3885 -2.5565 -0.2122
 1773SOL     OW14355   0.166   8.297   1.573  0.6514 -0.2481 -0.1042
 1773SOL    HW114356   0.168   8.321   1.670 -0.2955  2.9506 -0.8142
 1773SOL    HW214357   0.260   8.298   1.537  0.7670  1.4613  0.1681
 1775SOL     OW14358   0.024   2.890   0.588  1.2439  0.2346  0.3044
 1775SOL    HW114359  -0.013   2.982   0.587 -0.4170 -0.4024  0.6796
 1775SOL    HW214360   0.084   2.879   0.667 -0.9712  0.1156  2.0342
 1776SOL     OW14361   9.823   3.112   0.545  0.7945 -0.6404  0.6511
 1776SOL    HW114362   9.897   3.170   0.511  0.2093  0.0118  0.4920
 1776SOL    HW214363   9.741   3.125   0.488  0.5748 -1.4205  0.7754
 1778SOL     OW14364   3.758   2.401   1.313 -0.0186 -0.5930  0.1662
 1778SOL    HW114365   3.794   2.308   1.307 -2.1179 -1.3507 -1.4698
 1778SOL    HW214366   3.680   2.403   1.375  0.5439  0.2633  0.8561
 1779SOL     OW14367   3.011   0.002   1.217 -0.7505 -0.0452 -0.0914
 1779SOL    HW114368   3.025   0.031   1.123  0.9260 -0.2145  0.0910
 1779SOL    HW214369   2.979  -0.093   1.218  3.8066 -1.7429 -0.4318
 1782SOL     OW14370   9.186   5.661   0.950  0.6297  0.2011 -0.5116
 1782SOL    HW114371   9.171   5.755   0.982  0.8759 -0.5826  1.9448
 1782SOL    HW214372   9.129   5.645   0.869 -0.6130  1.9756 -0.0296
 1783SOL     OW14373   1.242   2.383   1.287  0.5547  0.4043 -0.1927
 1783SOL    HW114374   1.188   2.432   1.218  0.4317  0.3928 -0.1048
 1783SOL    HW214375   1.336   2.376   1.256  0.5151  0.4642 -0.3276
 1784SOL     OW14376   9.039   4.749   1.628  0.2687 -0.1656 -0.1318
 1784SOL    HW114377   9.136   4.740   1.649 -0.1621  0.7118  2.4122
 1784SOL    HW214378   9.013   4.845   1.627 -0.6388 -0.4078 -0.4747
 1785SOL     OW14379   2.190   1.465   1.911 -0.0482 -0.2147 -0.1762
 1785SOL    HW114380   2.147   1.549   1.943  0.9814 -0.0387  0.7839
 1785SOL    HW214381   2.280   1.486   1.872 -0.1851 -0.7528 -0.7970
 1786SOL     OW14382   2.373   9.289   1.695  0.4835 -0.6344  0.3735
 1786SOL    HW114383   2.354   9.290   1.596  0.1523 -0.4625  0.4342
 1786SOL    HW214384   2.347   9.201   1.733  1.3264 -0.9691  0.1762
 1787SOL     OW14385   1.052  -0.035   1.705  0.0642 -0.4503 -0.1059
 1787SOL    HW114386   1.059   0.019   1.622 -2.6520  1.0276  0.5493
 1787SOL    HW214387   1.142  -0.044   1.748  0.4696  4.3220  0.2341
 1790SOL     OW14388   9.182   3.436   0.938 -0.4387 -0.5208 -0.2258
 1790SOL    HW114389   9.172   3.528   0.900 -0.5089  0.0640  1.1586
 1790SOL    HW214390   9.279   3.412   0.944 -0.3928 -0.2851 -0.0204
 1791SOL     OW14391   2.783   7.368   2.172  0.6019 -0.2803 -0.2689
 1791SOL    HW114392   2.801   7.270   2.171  1.2522 -0.1547 -0.7692
 1791SOL    HW214393   2.837   7.413   2.101  0.3090  0.4396 -0.0398
 1793SOL     OW14394   1.941   0.389   0.704  0.2087 -0.9512 -0.3047
 1793SOL    HW114395   2.019   0.452   0.700 -0.5770  0.1026  0.5069
 1793SOL    HW214396   1.866   0.427   0.650 -0.5850 -0.7348  0.9429
 1794SOL     OW14397   9.673   7.945   1.591 -0.4811 -0.4659 -0.6542
 1794SOL    HW114398   9.665   7.951   1.691 -0.2040 -0.8832 -0.6063
 1794SOL    HW214399   9.763   7.911   1.567 -0.0971  0.8482 -1.0929
 1795SOL     OW14400   2.406   2.664   2.085  0.5159  0.7172 -0.0311
 1795SOL    HW114401   2.441   2.757   2.086 -1.7788  1.6213 -0.1822
 1795SOL    HW214402   2.351   2.648   2.168  0.3343 -0.2701 -0.3290
 1796SOL     OW14403   2.674   9.259   0.400  0.5366 -0.0539  0.2684
 1796SOL    HW114404   2.620   9.322   0.456  0.6681  0.1976  0.1106
 1796SOL    HW214405   2.703   9.304   0.316 -0.5143 -0.7614 -0.4804
 1797SOL     OW14406   8.877   1.254   2.013  0.2558 -0.1720  0.8041
 1797SOL    HW114407   8.857   1.258   2.111  0.3833 -2.1485  0.9303
 1797SOL    HW214408   8.975   1.245   2.000  0.3813  1.5204  0.4242
 1799SOL     OW14409   3.080   9.490   1.166 -0.4814  0.3760  0.2082
 1799SOL    HW114410   3.053   9.435   1.245 -2.6358  1.1848  0.0614
 1799SOL    HW214411   3.002   9.501   1.105  1.5734 -1.7555 -2.9896
 1800SOL     OW14412   0.191   9.458   2.019 -0.3190  0.1820 -0.3578
 1800SOL    HW114413   0.168   9.457   1.922  0.0718  1.5205 -0.4744
 1800SOL    HW214414   0.238   9.543   2.041  1.4597 -0.9895  0.5679
 1801SOL     OW14415   9.499   0.959   1.527 -0.3157  0.0779  0.4491
 1801SOL    HW114416   9.483   0.863   1.503 -1.0151  0.1271  0.6833
 1801SOL    HW214417   9.589   0.968   1.569  0.3879 -0.2207 -0.9598
 1802SOL     OW14418   0.468   1.365   2.329  0.1464  0.0532  0.1203
 1802SOL    HW114419   0.434   1.374   2.422 -0.8976 -2.7949  0.0816
 1802SOL    HW214420   0.514   1.276   2.319  1.4569  0.9121 -1.7003
 1803SOL     OW14421   9.808   4.992   2.120  0.9701  0.0852  0.3707
 1803SOL    HW114422   9.765   5.070   2.165 -0.8041  0.1099 -1.2756
 1803SOL    HW214423   9.778   4.988   2.024  1.3618 -2.3632  0.3137
 1804SOL     OW14424   0.518   9.847   2.204  0.5387  0.3630 -0.2886
 1804SOL    HW114425   0.445   9.854   2.136  0.8333  0.7891 -0.5622
 1804SOL    HW214426   0.574   9.767   2.185  0.4665  0.3380 -0.3934
 1806SOL     OW14427   3.354   2.481   0.625 -0.9171 -0.0410 -0.0134
 1806SOL    HW114428   3.432   2.490   0.563 -1.2147  2.8213 -0.0461
 1806SOL    HW214429   3.364   2.398   0.679  1.0521 -0.8346 -1.5181
 1807SOL     OW14430   8.008   8.463   1.127 -0.9761  0.0861  0.2115
 1807SOL    HW114431   7.933   8.411   1.167 -1.2098  0.5520  0.3798
 1807SOL    HW214432   8.089   8.454   1.185  0.1370 -3.2491 -1.7393
 1808SOL     OW14433   2.954   5.706   1.638  0.4128 -0.0926  0.3856
 1808SOL    HW114434   2.941   5.769   1.714 -0.5337  0.5573 -0.3060
 1808SOL    HW214435   2.991   5.619   1.672 -1.5348 -0.3958  1.8173
 1811SOL     OW14436   1.614   1.499   1.624 -0.0402  0.0646 -0.1234
 1811SOL    HW114437   1.682   1.467   1.690 -0.3017 -0.4753 -0.1096
 1811SOL    HW214438   1.532   1.444   1.633 -0.4202  0.6074 -0.2570
 1812SOL     OW14439   3.793   2.922   1.211 -0.1236  0.0079 -0.4367
 1812SOL    HW114440   3.784   2.823   1.197 -0.4566  0.1204 -1.0334
 1812SOL    HW214441   3.784   2.969   1.123  1.9882  0.4403 -0.4445
 1813SOL     OW14442   0.198   2.213   0.950  0.0587  0.0387 -0.3198
 1813SOL    HW114443   0.231   2.143   1.014  0.6907 -0.4102 -1.1221
 1813SOL    HW214444   0.232   2.303   0.979  1.1817 -0.2897 -0.5788
 1814SOL     OW14445   4.048   9.521   0.949 -0.0877  0.7565 -0.0643
 1814SOL    HW114446   4.001   9.596   0.996 -1.5446  0.5240 -1.1237
 1814SOL    HW214447   3.985   9.476   0.886  1.4217  0.1100 -1.1420
 1815SOL     OW14448   4.115   0.275   0.394  0.3838  0.4018 -0.3046
 1815SOL    HW114449   4.146   0.352   0.450  0.4210 -0.3191  0.6723
 1815SOL    HW214450   4.093   0.308   0.302  4.6060  0.8455 -1.2506
 1816SOL     OW14451   2.534   1.897   1.420  0.2867  0.0547  0.1718
 1816SOL    HW114452   2.531   1.939   1.511  0.5458  0.7061 -0.1248
 1816SOL    HW214453   2.451   1.920   1.370  0.0064 -0.5480  0.3441
 1817SOL     OW14454   0.028   7.544   0.364 -0.2220 -0.8439  0.5240
 1817SOL    HW114455  -0.046   7.585   0.418  0.7394 -1.3696  2.2798
 1817SOL    HW214456   0.086   7.616   0.326  0.6738 -0.5101  2.4702
 1819SOL     OW14457   2.813   3.699   0.325  0.1049 -0.0325  0.2639
 1819SOL    HW114458   2.847   3.606   0.308  0.2872 -0.0035  0.4685
 1819SOL    HW214459   2.715   3.696   0.339  0.1057 -0.1921  0.2371
 1821SOL     OW14460   0.460   7.154   0.471 -0.1181 -0.3286  0.2127
 1821SOL    HW114461   0.434   7.058   0.479  0.6519 -0.4600  1.2390
 1821SOL    HW214462   0.419   7.193   0.388 -1.2044 -1.2801  0.2915
 1823SOL     OW14463   7.515   0.461   1.867  0.0482 -0.0665  0.1271
 1823SOL    HW114464   7.524   0.523   1.789 -0.5527 -0.1389 -0.0037
 1823SOL    HW214465   7.425   0.417   1.865  0.5240 -1.0586  0.1403
 1824SOL     OW14466   8.587   8.923   1.263  0.5663 -0.6772 -0.2193
 1824SOL    HW114467   8.686   8.914   1.273  0.6936  0.8363  0.0650
 1824SOL    HW214468   8.555   8.859   1.193  1.7029 -1.3669 -0.1259
 1825SOL     OW14469   9.862   8.313   0.757 -0.5526  0.2352  0.1908
 1825SOL    HW114470   9.890   8.339   0.849  1.0782  0.3593 -0.3379
 1825SOL    HW214471   9.916   8.234   0.727 -0.3617  0.8412 -1.0634
 1826SOL     OW14472   0.004   6.872   1.862 -0.4548 -0.5676 -0.0986
 1826SOL    HW114473   0.070   6.872   1.937 -1.2817  1.2581  0.6550
 1826SOL    HW214474  -0.025   6.778   1.845  0.4398 -1.1179  1.2474
 1828SOL     OW14475   1.778   4.554   1.362  0.1620 -0.4375 -0.2589
 1828SOL    HW114476   1.778   4.488   1.287  1.6130 -1.3001  0.4661
 1828SOL    HW214477   1.765   4.646   1.326  2.8218 -0.6142 -1.8143
 1829SOL     OW14478   8.281   8.994   1.986  0.0153 -0.4695  0.3211
 1829SOL    HW114479   8.224   8.983   2.067 -1.0103 -0.6689 -0.4244
 1829SOL    HW214480   8.228   9.037   1.913  1.2984  0.9309  0.1751
 1830SOL     OW14481   2.189   7.493   2.255 -0.1856 -0.2887  0.3946
 1830SOL    HW114482   2.206   7.451   2.166  1.1630 -0.9873  0.9629
 1830SOL    HW214483   2.276   7.522   2.296 -0.9362  1.5849  0.7433
 1831SOL     OW14484  -0.065   7.957   1.358  0.0753 -0.4224 -0.3087
 1831SOL    HW114485  -0.069   7.885   1.288 -0.0451 -0.7816  0.0692
 1831SOL    HW214486   0.028   7.993   1.364  0.3533 -1.2375  0.2111
 1832SOL     OW14487   8.233   7.987   1.609 -0.2589  0.4613 -0.2095
 1832SOL    HW114488   8.148   7.949   1.572 -0.4139  0.6886 -0.0886
 1832SOL    HW214489   8.281   8.037   1.537 -0.3089  0.4690 -0.2382
 1833SOL     OW14490   7.755   0.690   1.305 -0.1370  0.3086 -0.1930
 1833SOL    HW114491   7.786   0.755   1.375  1.3871 -0.4474 -0.1576
 1833SOL    HW214492   7.667   0.651   1.332  1.1590 -1.1409  2.0867
 1835SOL     OW14493   9.501   0.147   1.446  0.3433  0.4967  0.5708
 1835SOL    HW114494   9.478   0.208   1.370  0.3960  0.5493  0.5970
 1835SOL    HW214495   9.561   0.075   1.412 -0.1259  0.1702  0.4328
 1836SOL     OW14496   4.566   2.789   2.312  0.5977 -0.2805 -0.2032
 1836SOL    HW114497   4.545   2.853   2.387  0.3999 -0.8038  0.1933
 1836SOL    HW214498   4.629   2.720   2.346  0.3662 -0.6225 -0.4767
 1837SOL     OW14499   8.196   7.894   2.065 -0.1964  0.1638  0.4180
 1837SOL    HW114500   8.247   7.834   2.127  1.8195  0.8905 -0.4870
 1837SOL    HW214501   8.099   7.891   2.088 -0.0546 -2.9127  0.8299
 1838SOL     OW14502   2.176   7.488   0.583  0.2110 -0.4063  0.2780
 1838SOL    HW114503   2.128   7.408   0.618  1.2963 -1.0945  0.2179
 1838SOL    HW214504   2.118   7.536   0.517  0.7354 -2.9332 -2.1097
 1839SOL     OW14505   1.931   7.707   1.993  0.1380  0.4206  0.1299
 1839SOL    HW114506   1.996   7.640   1.956 -0.8806  0.4250 -1.7445
 1839SOL    HW214507   1.940   7.711   2.092  1.8428 -0.7860  0.0436
 1840SOL     OW14508   0.194   3.804   1.249  0.2725  0.1400 -1.0416
 1840SOL    HW114509   0.284   3.799   1.294 -0.2212  0.6930  0.0402
 1840SOL    HW214510   0.194   3.745   1.168  2.1753  1.4814 -2.0554
 1843SOL     OW14511   1.386   4.291   1.284  0.0741  0.5556  0.0770
 1843SOL    HW114512   1.417   4.379   1.318  0.2940  0.2592  0.6583
 1843SOL    HW214513   1.392   4.289   1.185  0.3803  1.0774  0.0863
 1844SOL     OW14514   1.263   9.627   0.687  0.4315  0.0809  0.1740
 1844SOL    HW114515   1.205   9.552   0.654  1.0539 -0.9692  1.3916
 1844SOL    HW214516   1.225   9.661   0.774  0.8801  0.2950  0.2858
 1846SOL     OW14517   3.537   4.183   2.009  0.7593 -0.5720 -0.0134
 1846SOL    HW114518   3.635   4.201   2.022  0.2071  2.3736  0.4410
 1846SOL    HW214519   3.491   4.182   2.097  0.4709 -2.7248 -0.1672
 1848SOL     OW14520   1.233   4.508   2.143 -0.4090 -0.7989  0.7101
 1848SOL    HW114521   1.248   4.603   2.116 -1.3321 -1.2960 -1.6804
 1848SOL    HW214522   1.178   4.505   2.227  2.1569  0.7845  2.4976
 1849SOL     OW14523   2.514   6.107   0.974  0.2815 -0.0729 -1.0596
 1849SOL    HW114524   2.585   6.158   0.925 -1.0658  0.8847 -2.0531
 1849SOL    HW214525   2.478   6.035   0.915  0.2000 -0.3520 -0.6694
 1850SOL     OW14526   0.199   4.514   2.120  0.3799 -0.1259 -0.4113
 1850SOL    HW114527   0.234   4.483   2.209  0.0530  2.2827  0.5744
 1850SOL    HW214528   0.272   4.507   2.052  1.3026  0.1045  0.5335
 1852SOL     OW14529   2.042   8.845   1.174 -0.0015 -0.3394  0.6685
 1852SOL    HW114530   2.100   8.764   1.172 -1.3955 -1.3271 -1.5284
 1852SOL    HW214531   2.072   8.906   1.247  3.1636 -1.2740  0.2032
 1854SOL     OW14532   9.892   7.232   1.249  0.5121 -0.2001  0.6370
 1854SOL    HW114533   9.871   7.238   1.152  0.4727  2.5342  0.7681
 1854SOL    HW214534   9.813   7.262   1.303  0.7401 -1.1144  1.5071
 1855SOL     OW14535   3.290   9.637   1.393 -0.6382 -0.7460  0.0280
 1855SOL    HW114536   3.277   9.571   1.467 -1.7682 -0.6184 -0.0353
 1855SOL    HW214537   3.304   9.588   1.307  2.1069 -0.8951  0.5339
 1857SOL     OW14538   3.483   0.076   0.697  0.0833  0.3151 -0.2542
 1857SOL    HW114539   3.405   0.140   0.692  0.9156  1.4527  0.9210
 1857SOL    HW214540   3.455  -0.013   0.663 -1.0281  1.3962 -2.2553
 1858SOL     OW14541   8.861   8.070   1.867  0.1215  0.3114 -0.3917
 1858SOL    HW114542   8.939   8.062   1.929  1.8049  1.2120 -2.3366
 1858SOL    HW214543   8.807   8.150   1.892  0.5693  0.4619  0.1169
 1859SOL     OW14544   9.079   7.953   2.318 -0.4676  0.0190  0.4377
 1859SOL    HW114545   8.983   7.929   2.334 -0.5152 -0.2026 -0.1434
 1859SOL    HW214546   9.126   7.874   2.278 -0.0601  0.1458  0.6705
 1860SOL     OW14547   1.487   5.704   1.029  0.1238 -0.2905  0.7503
 1860SOL    HW114548   1.520   5.794   1.002  0.3025 -0.5353  0.1520
 1860SOL    HW214549   1.444   5.710   1.119  0.6299  0.2844  0.9595
 1861SOL     OW14550  -0.055   6.154   0.831 -0.1816  0.2023  0.1548
 1861SOL    HW114551  -0.090   6.118   0.744  2.0719 -1.1639 -0.2161
 1861SOL    HW214552  -0.012   6.081   0.883  1.0604  1.5884  1.1214
 1863SOL     OW14553   3.505   9.405   2.039  0.0344 -0.3395 -0.7188
 1863SOL    HW114554   3.486   9.307   2.028 -0.0265 -0.1310 -2.6744
 1863SOL    HW214555   3.419   9.455   2.045  0.0018 -0.1453 -2.4431
 1864SOL     OW14556   8.383   7.618   0.883 -0.1831 -0.3881 -0.4616
 1864SOL    HW114557   8.436   7.534   0.867  0.3484 -0.1070 -0.2132
 1864SOL    HW214558   8.302   7.618   0.825  0.6938 -0.2915 -1.7122
 1865SOL     OW14559   4.530   4.279   0.880 -0.3587 -0.2881  0.3959
 1865SOL    HW114560   4.489   4.269   0.789  0.5805 -2.0530  0.1309
 1865SOL    HW214561   4.508   4.198   0.935  0.5117 -0.0145  1.1544
 1867SOL     OW14562   9.349   2.870   0.335 -0.2623  0.1909 -0.0780
 1867SOL    HW114563   9.414   2.832   0.401  1.7180 -1.3314 -2.8088
 1867SOL    HW214564   9.340   2.968   0.351 -0.7888 -0.3319  3.2182
 1868SOL     OW14565   2.470   4.704   1.412 -0.4536  0.2380  0.3644
 1868SOL    HW114566   2.511   4.668   1.496  0.2525  0.0391 -0.0593
 1868SOL    HW214567   2.472   4.804   1.414  3.5142  0.2933 -1.2678
 1869SOL     OW14568   1.833   3.710   0.981 -0.5007  0.4048  0.0036
 1869SOL    HW114569   1.767   3.769   0.933 -0.1471  0.4911 -0.3791
 1869SOL    HW214570   1.799   3.615   0.979 -0.4026  0.3779 -0.5787
 1870SOL     OW14571   0.671   1.950   0.602  0.2888  0.1558  0.6594
 1870SOL    HW114572   0.694   1.967   0.506  1.2787 -1.2860  0.6257
 1870SOL    HW214573   0.709   2.024   0.658 -0.0309  0.8467 -0.0181
 1871SOL     OW14574   0.290   1.130   1.195  0.6637  0.0429  0.0272
 1871SOL    HW114575   0.220   1.198   1.218  0.6174  0.4589 -1.3193
 1871SOL    HW214576   0.307   1.072   1.274 -1.3970 -0.2135  0.3133
 1872SOL     OW14577   4.062  -0.053   0.745  0.0594  0.3226 -0.6982
 1872SOL    HW114578   4.116  -0.133   0.718 -2.0197 -1.2460 -0.2893
 1872SOL    HW214579   4.004  -0.025   0.668 -1.3540 -0.3682  0.1077
 1873SOL     OW14580   9.751   6.216   1.204  0.0640 -0.1842  0.0121
 1873SOL    HW114581   9.722   6.283   1.135 -0.9352 -0.2097  0.4003
 1873SOL    HW214582   9.850   6.203   1.198  0.4990  2.3476  0.8064
 1874SOL     OW14583   2.893   1.016   2.328  0.4821 -0.1455  0.2015
 1874SOL    HW114584   2.849   1.052   2.246  0.0075  1.7776  1.2723
 1874SOL    HW214585   2.985   0.984   2.306  0.9819  1.8876 -0.7637
 1877SOL     OW14586   1.076   5.642   0.429 -0.1239  0.1644  0.3004
 1877SOL    HW114587   1.159   5.695   0.412 -0.1638  0.6267  1.4963
 1877SOL    HW214588   1.079   5.558   0.375  1.8202 -0.5150  1.3797
 1878SOL     OW14589   3.228   4.845   1.865  0.4985 -0.3462 -0.2340
 1878SOL    HW114590   3.284   4.876   1.788  1.0119 -0.7822 -0.0406
 1878SOL    HW214591   3.199   4.924   1.919  2.4515 -0.2472  0.7115
 1879SOL     OW14592   0.215   5.188   2.128  0.2016 -0.2162 -0.1793
 1879SOL    HW114593   0.162   5.147   2.202  1.8018 -0.3857  0.8998
 1879SOL    HW214594   0.163   5.262   2.086 -1.0068 -0.5893  0.6521
 1880SOL     OW14595   1.339   2.068   0.729  0.2976  0.1196  0.3139
 1880SOL    HW114596   1.413   2.075   0.663  1.2146 -0.7283  1.2216
 1880SOL    HW214597   1.252   2.087   0.684  0.8257 -1.1236 -1.2779
 1881SOL     OW14598   2.225   4.792   0.851 -0.3890  0.1263  0.1136
 1881SOL    HW114599   2.218   4.725   0.924 -1.9759 -0.3965 -0.5042
 1881SOL    HW214600   2.304   4.771   0.794 -0.7764 -1.1055  0.0241
 1882SOL     OW14601   0.489   3.680   1.814  0.5711  0.1537 -0.3938
 1882SOL    HW114602   0.578   3.641   1.790  1.6266  1.2926  1.4656
 1882SOL    HW214603   0.470   3.759   1.755  0.3846 -0.6214 -1.3738
 1884SOL     OW14604   2.345   0.247   1.523  0.2765 -0.1791 -0.1548
 1884SOL    HW114605   2.405   0.283   1.594  1.2323  1.0005 -1.5101
 1884SOL    HW214606   2.400   0.196   1.456 -0.6156 -1.3772  0.0085
 1885SOL     OW14607   9.883   6.033   0.551  0.5022  0.1308 -0.4589
 1885SOL    HW114608   9.948   5.974   0.501 -0.2544 -0.7926 -0.3715
 1885SOL    HW214609   9.792   6.022   0.512  0.0887  0.1632  0.4946
 1887SOL     OW14610   1.061   9.890   0.600 -0.1045 -0.6390 -0.0026
 1887SOL    HW114611   1.032   9.833   0.678 -1.2695  0.3317  0.2973
 1887SOL    HW214612   1.159   9.909   0.607 -0.4950  0.7501  2.1135
 1889SOL     OW14613   0.630   8.947   2.178  0.2012  0.2547 -0.1902
 1889SOL    HW114614   0.684   8.895   2.245 -0.3565 -1.1082 -0.7692
 1889SOL    HW214615   0.607   8.887   2.102 -1.3665  1.0864 -0.3744
 1891SOL     OW14616   8.798  -0.083   1.380 -0.7915  0.6141  0.4989
 1891SOL    HW114617   8.856  -0.036   1.313  1.1846  0.8092  2.3233
 1891SOL    HW214618   8.704  -0.084   1.346  0.4825 -1.1635 -3.2960
 1892SOL     OW14619   7.949   0.494   1.318  0.0738 -0.3738  0.1496
 1892SOL    HW114620   7.986   0.504   1.226 -0.4803 -0.7706 -0.1133
 1892SOL    HW214621   7.871   0.555   1.329  1.6124  1.4932  1.1471
 1893SOL     OW14622   1.849   2.121   0.426 -0.1609 -0.1315 -0.6704
 1893SOL    HW114623   1.945   2.128   0.453 -0.7076  2.6431  0.7707
 1893SOL    HW214624   1.815   2.029   0.446  1.3789 -0.2394  1.7209
 1894SOL     OW14625   1.429   8.083   1.314 -0.0491 -0.0589 -0.0672
 1894SOL    HW114626   1.433   8.174   1.271 -1.3157 -0.5253 -1.2064
 1894SOL    HW214627   1.472   8.087   1.404 -1.2769  2.0021  0.4530
 1897SOL     OW14628   2.053   9.046   0.679 -0.1808  0.0066 -0.3386
 1897SOL    HW114629   2.024   9.072   0.586 -2.0612  0.5760  0.3980
 1897SOL    HW214630   1.991   8.977   0.715 -0.1523  0.6423  0.9473
 1898SOL     OW14631   2.017   2.524   1.662  0.1095  0.2049  0.1844
 1898SOL    HW114632   2.027   2.563   1.754  0.6672 -0.0443  0.2283
 1898SOL    HW214633   2.107   2.512   1.620 -0.2117  1.4281 -0.8649
 1899SOL     OW14634   0.935   4.980   1.019 -0.3707 -0.1445  0.5825
 1899SOL    HW114635   0.902   5.045   0.950  1.6001  1.2161  0.8734
 1899SOL    HW214636   0.905   4.888   0.996 -3.0344  0.8103  0.0263
 1900SOL     OW14637   4.140   1.027   0.734 -0.3616  0.2912  0.4846
 1900SOL    HW114638   4.182   1.033   0.825  0.1385 -0.5243  0.3154
 1900SOL    HW214639   4.121   1.119   0.700 -0.2859  0.6121  1.2911
 1901SOL     OW14640   9.395  -0.021   1.635  0.2530 -0.0003  0.1748
 1901SOL    HW114641   9.396   0.047   1.562 -0.1865  1.2490  1.3035
 1901SOL    HW214642   9.423  -0.110   1.599 -0.8690  0.3871 -1.7157
 1902SOL     OW14643   0.775   8.344   1.669  0.2669 -0.0230  0.3550
 1902SOL    HW114644   0.697   8.407   1.670 -1.1645 -1.6507 -2.6112
 1902SOL    HW214645   0.860   8.396   1.674 -0.9100  2.0828 -0.8016
 1903SOL     OW14646   1.186   7.584   1.313  0.5228  0.5947 -0.3541
 1903SOL    HW114647   1.197   7.672   1.360  0.7424 -0.0028  0.7242
 1903SOL    HW214648   1.211   7.510   1.375 -2.2162 -0.3908 -0.3624
 1904SOL     OW14649   3.151   9.125   1.870  0.6086 -0.0669  0.1032
 1904SOL    HW114650   3.137   9.219   1.902  0.8400  0.0399 -0.1041
 1904SOL    HW214651   3.164   9.126   1.770 -0.5399 -0.4399 -0.0487
 1905SOL     OW14652   4.035   3.933   1.057 -0.0383 -0.1728  0.3285
 1905SOL    HW114653   4.120   3.981   1.080  0.5589 -1.3536  0.6218
 1905SOL    HW214654   4.019   3.861   1.124 -0.4565 -0.9700 -0.6244
 1906SOL     OW14655   1.027   0.410   0.813  0.2090  0.1874  0.1193
 1906SOL    HW114656   1.107   0.465   0.792 -0.9134  1.7688 -0.1437
 1906SOL    HW214657   1.027   0.327   0.757  1.1785  0.6345 -0.5441
 1907SOL     OW14658   1.245   6.126   2.262 -0.0056  0.5771 -0.3485
 1907SOL    HW114659   1.168   6.094   2.316 -1.2741  0.5253 -2.1543
 1907SOL    HW214660   1.214   6.195   2.196  1.5465  0.8174 -0.8558
 1908SOL     OW14661   2.527   1.138   0.346  0.7045  0.0200  0.5627
 1908SOL    HW114662   2.476   1.225   0.345  1.8508  0.7088  1.2517
 1908SOL    HW214663   2.551   1.115   0.440 -0.2435 -1.4430  0.4558
 1909SOL     OW14664   7.957   8.761   1.347  0.4958  0.1578 -0.5028
 1909SOL    HW114665   8.045   8.796   1.378  0.4090  1.0558 -1.2299
 1909SOL    HW214666   7.960   8.748   1.248 -0.4415  0.9723 -0.6438
 1910SOL     OW14667   9.088   3.837   0.988  0.1966 -0.1810 -0.1276
 1910SOL    HW114668   9.024   3.765   1.014 -1.2314  1.1420  0.0590
 1910SOL    HW214669   9.097   3.902   1.063  0.2477  0.7044 -0.8911
 1911SOL     OW14670   7.799   9.083   2.280 -0.7910 -0.1485 -0.4841
 1911SOL    HW114671   7.750   8.997   2.269 -0.7758  0.1753 -3.6143
 1911SOL    HW214672   7.838   9.088   2.371 -1.9336 -2.8494  0.1978
 1912SOL     OW14673   2.472   7.896   1.778 -0.0716 -0.2222  0.0374
 1912SOL    HW114674   2.429   7.970   1.830 -0.7607 -0.4984 -0.1334
 1912SOL    HW214675   2.566   7.920   1.757 -0.3717  0.7116 -0.2315
 1913SOL     OW14676   0.470   6.239   2.308  0.1370 -0.3534  0.1764
 1913SOL    HW114677   0.405   6.314   2.318  0.0093 -0.6696  1.7529
 1913SOL    HW214678   0.451   6.189   2.223 -2.0148 -0.7937  0.8991
 1915SOL     OW14679   0.329  -0.017   1.182  0.0557  0.2455 -0.5578
 1915SOL    HW114680   0.312   0.040   1.101 -0.9407 -0.7841 -1.0928
 1915SOL    HW214681   0.422  -0.001   1.214 -0.0201  1.7612 -1.0247
 1916SOL     OW14682   0.963   2.902   1.355 -0.0595  0.2635  0.2878
 1916SOL    HW114683   0.882   2.953   1.384 -1.1962 -0.8727 -0.8617
 1916SOL    HW214684   0.997   2.939   1.269  0.7167  0.8100  0.8258
 1917SOL     OW14685   1.879   6.434   0.600 -0.4456  0.2345  0.3179
 1917SOL    HW114686   1.944   6.379   0.653  0.1004  0.9397  0.3860
 1917SOL    HW214687   1.925   6.515   0.564 -1.0969  0.3405 -0.2935
 1919SOL     OW14688   9.804   5.458   0.459 -0.0663  0.3437 -0.2399
 1919SOL    HW114689   9.800   5.361   0.486  4.1951  0.3139  0.6623
 1919SOL    HW214690   9.854   5.509   0.528  0.5857  2.5828 -2.3130
 1920SOL     OW14691   4.228   2.947   2.219 -0.3343  0.0361  0.7077
 1920SOL    HW114692   4.244   2.879   2.290 -0.3497 -1.0381 -0.3051
 1920SOL    HW214693   4.143   2.925   2.171 -0.2281  0.6604  0.2356
 1921SOL     OW14694   0.048   4.720   1.493  0.4006 -0.0455  0.2677
 1921SOL    HW114695  -0.027   4.661   1.463 -0.3192  0.4946  0.9762
 1921SOL    HW214696   0.063   4.708   1.591  0.6900  0.4644  0.2897
 1922SOL     OW14697   4.109   3.307   0.744 -0.4002 -0.5179 -0.2304
 1922SOL    HW114698   4.059   3.350   0.819 -0.7706  0.4929 -1.0557
 1922SOL    HW214699   4.046   3.284   0.670  0.0337 -1.1144 -0.4278
 1923SOL     OW14700   9.125   8.347   0.959  0.0282 -0.1325 -0.0736
 1923SOL    HW114701   9.049   8.364   1.021  2.5373  1.7320  2.6686
 1923SOL    HW214702   9.125   8.416   0.887 -1.1226 -0.4221 -0.3582
 1924SOL     OW14703   0.136   6.478   0.485 -0.1732  0.2592 -0.2378
 1924SOL    HW114704   0.087   6.490   0.399 -0.3519 -0.3113 -0.2190
 1924SOL    HW214705   0.117   6.386   0.521 -1.3024  1.0190  1.1590
 1926SOL     OW14706   1.564   1.357   1.254  0.2035  0.1887  0.1389
 1926SOL    HW114707   1.620   1.349   1.171  1.1598  0.6995  0.7225
 1926SOL    HW214708   1.599   1.431   1.311  0.2494 -0.8636  1.5317
 1927SOL     OW14709   9.700   0.437   1.731 -0.9168  0.6159 -0.1457
 1927SOL    HW114710   9.700   0.536   1.738  0.6617  0.8794 -2.9914
 1927SOL    HW214711   9.746   0.397   1.810  1.1234  2.3197 -0.4488
 1928SOL     OW14712   9.004   6.273   0.698  0.3360 -0.2591  0.4004
 1928SOL    HW114713   9.049   6.353   0.739 -0.1024 -1.0084  2.3871
 1928SOL    HW214714   9.044   6.190   0.735 -0.2888 -0.9703 -0.4960
 1929SOL     OW14715   1.265   6.700   0.606  0.3106  0.3004  0.0998
 1929SOL    HW114716   1.342   6.755   0.572  0.3520  1.1069  1.4684
 1929SOL    HW214717   1.185   6.759   0.617 -0.1478 -0.2796 -0.1103
 1930SOL     OW14718   9.604   1.610   1.109 -0.0251  0.5587  0.5341
 1930SOL    HW114719   9.703   1.616   1.097  0.1092  1.8114  2.0433
 1930SOL    HW214720   9.582   1.526   1.158  0.2822  0.2696  0.1833
 1933SOL     OW14721   2.335   7.883   0.805  0.1579  0.3336 -0.2549
 1933SOL    HW114722   2.237   7.899   0.821  0.1184  0.3934 -0.5563
 1933SOL    HW214723   2.347   7.803   0.747  0.3415 -0.4845  0.8844
 1936SOL     OW14724   2.830   4.344   1.272 -0.3404  0.7971 -0.1917
 1936SOL    HW114725   2.757   4.358   1.339 -0.6501 -3.5430  0.5400
 1936SOL    HW214726   2.894   4.420   1.275 -1.2745  1.5032  3.8177
 1937SOL     OW14727   8.053   0.836   1.848 -0.0343  0.4683 -0.5892
 1937SOL    HW114728   7.961   0.826   1.810  0.3827  0.5249 -1.6148
 1937SOL    HW214729   8.085   0.748   1.882  0.5991 -0.1224 -2.6811
 1938SOL     OW14730   9.641   5.767   0.659 -0.3200 -0.4201 -0.6607
 1938SOL    HW114731   9.728   5.717   0.663 -0.4743 -0.5803  0.7014
 1938SOL    HW214732   9.589   5.751   0.743 -0.9934  0.9234 -0.8125
 1940SOL     OW14733   1.176   6.091   1.902 -0.6153 -0.0137  0.3936
 1940SOL    HW114734   1.191   6.163   1.969  1.0495  1.3931 -1.4419
 1940SOL    HW214735   1.083   6.099   1.864 -0.3189  1.4195 -0.0630
 1941SOL     OW14736   9.636   6.949   0.535 -0.5130 -0.0435 -0.5479
 1941SOL    HW114737   9.564   7.000   0.489  0.3675  2.1974  0.5087
 1941SOL    HW214738   9.689   6.898   0.467 -1.7848 -0.0681 -1.5423
 1942SOL     OW14739  -0.067   6.609   2.287  0.9935  0.1088 -0.6750
 1942SOL    HW114740  -0.019   6.696   2.295  2.0411 -0.2807 -2.5541
 1942SOL    HW214741  -0.029   6.556   2.211  1.1409 -2.4777  1.1192
 1943SOL     OW14742   2.631   0.481   0.901 -0.0694  0.8760 -0.0558
 1943SOL    HW114743   2.639   0.388   0.937  0.5425  1.2266  0.7276
 1943SOL    HW214744   2.555   0.485   0.835  1.6095 -0.7778 -2.1364
 1944SOL     OW14745   0.033   8.077   0.694  0.6112  0.2592 -0.8393
 1944SOL    HW114746  -0.029   8.017   0.643  1.1528 -1.0475  0.0065
 1944SOL    HW214747   0.127   8.056   0.668  0.8924 -0.3707  0.6323
 1945SOL     OW14748   2.480   8.130   0.722 -0.6012  0.2582  0.2498
 1945SOL    HW114749   2.413   8.056   0.723 -0.1932 -0.1311  2.3321
 1945SOL    HW214750   2.462   8.191   0.645 -3.1524 -0.0143  0.5870
 1946SOL     OW14751   0.274   9.278   0.497 -0.1190 -0.3314 -0.5328
 1946SOL    HW114752   0.258   9.255   0.593 -1.3410 -0.2263 -0.7126
 1946SOL    HW214753   0.193   9.323   0.459  0.2536 -0.6315 -1.7007
 1948SOL     OW14754   3.251   4.799   2.156  0.0314 -0.1558  0.0194
 1948SOL    HW114755   3.337   4.837   2.189 -1.5132  1.3904  2.3619
 1948SOL    HW214756   3.247   4.808   2.056  2.6062 -0.3878 -0.1428
 1951SOL     OW14757   1.410   8.144   2.161  0.4682  0.0783 -0.1418
 1951SOL    HW114758   1.401   8.210   2.087  0.7213 -0.3745 -0.5803
 1951SOL    HW214759   1.487   8.171   2.220  0.2585  0.4446 -0.0345
 1952SOL     OW14760   3.765   0.514   1.006 -0.3043  0.1136 -0.1666
 1952SOL    HW114761   3.743   0.572   1.085 -0.5637  0.4050 -0.4499
 1952SOL    HW214762   3.747   0.564   0.922 -2.0425 -0.9145 -0.4311
 1953SOL     OW14763   0.777   4.522   1.880  0.2398 -0.1486  0.0640
 1953SOL    HW114764   0.691   4.568   1.858 -0.4100 -0.9392  0.9243
 1953SOL    HW214765   0.853   4.572   1.838 -0.7739 -0.4727 -2.2340
 1955SOL     OW14766   1.994   7.992   1.677  0.4933 -0.5477 -0.2291
 1955SOL    HW114767   2.014   8.089   1.682  0.7097 -0.6508  1.2507
 1955SOL    HW214768   2.066   7.945   1.626  2.5136 -0.4918  2.4913
 1957SOL     OW14769   0.381   4.794   0.500 -0.1936  0.3751  0.2996
 1957SOL    HW114770   0.402   4.699   0.479 -1.6228  0.0421  0.3001
 1957SOL    HW214771   0.298   4.821   0.450  0.1478  1.5904  0.3760
 1959SOL     OW14772   3.515   1.112   2.229  0.1710 -0.0065 -0.2138
 1959SOL    HW114773   3.476   1.200   2.254 -0.5537 -0.3551 -0.0870
 1959SOL    HW214774   3.559   1.071   2.309 -3.2578 -1.6974  0.9209
 1960SOL     OW14775   0.809   0.174   1.657  0.1386 -0.4779 -0.1963
 1960SOL    HW114776   0.819   0.266   1.694  0.7903 -1.4098  1.9781
 1960SOL    HW214777   0.898   0.129   1.654 -0.5826 -2.0951  1.5699
 1961SOL     OW14778   3.465   4.845   0.430 -0.5829  0.2037 -0.1644
 1961SOL    HW114779   3.461   4.746   0.435  0.2557  0.2824  2.5816
 1961SOL    HW214780   3.449   4.885   0.520 -0.1365  2.5402 -1.0617
 1962SOL     OW14781   0.656   1.963   1.162 -0.1415 -0.4288 -0.2463
 1962SOL    HW114782   0.715   1.909   1.222 -0.0089  0.8143  0.7506
 1962SOL    HW214783   0.599   1.902   1.108  1.0039 -1.6105 -0.1501
 1963SOL     OW14784   2.742   2.187   0.537 -0.4194  0.2980 -0.2715
 1963SOL    HW114785   2.669   2.199   0.470  0.3813 -1.2500 -1.4633
 1963SOL    HW214786   2.704   2.145   0.620 -1.0403  0.3064 -0.5498
 1964SOL     OW14787   9.157   6.995   1.115 -0.9558  0.6418 -0.0695
 1964SOL    HW114788   9.249   7.028   1.137 -0.5418  0.1003 -0.9483
 1964SOL    HW214789   9.111   6.965   1.199 -0.0580  0.2275  0.2716
 1965SOL     OW14790   1.175   7.139   1.511 -0.3204  0.5013  0.1336
 1965SOL    HW114791   1.160   7.095   1.599  1.2558  1.0005  0.6584
 1965SOL    HW214792   1.205   7.071   1.444 -1.3774  0.1486  0.0143
 1967SOL     OW14793   3.078   0.008   1.662 -0.1644 -0.1406 -0.1864
 1967SOL    HW114794   3.097  -0.059   1.733  0.6369 -0.7853 -1.0055
 1967SOL    HW214795   3.133   0.090   1.677 -0.9503  0.2465  0.6629
 1968SOL     OW14796   0.151   8.197   1.965  0.2122  0.0190  0.3019
 1968SOL    HW114797   0.114   8.190   2.058 -3.1663  0.2479 -0.9517
 1968SOL    HW214798   0.097   8.140   1.904  1.9683  0.4246 -1.6775
 1969SOL     OW14799   9.579   2.418   1.055  0.3880 -0.0695  0.2869
 1969SOL    HW114800   9.615   2.477   0.982 -1.2063  1.7854  0.9660
 1969SOL    HW214801   9.526   2.344   1.014  1.6114 -0.5138 -0.5368
 1970SOL     OW14802   3.477   3.467   0.932  0.0032 -0.1948 -0.3433
 1970SOL    HW114803   3.402   3.512   0.883  0.0088 -0.3257 -0.4741
 1970SOL    HW214804   3.440   3.410   1.005  0.1128  1.8815  1.3761
 1971SOL     OW14805   8.002   9.608   1.391 -0.2356  0.2120  0.5158
 1971SOL    HW114806   7.933   9.538   1.373  1.4943 -0.7698 -2.6546
 1971SOL    HW214807   8.022   9.611   1.489 -2.6864 -1.4227  1.1133
 1972SOL     OW14808   4.233   4.204   0.874 -0.0987 -0.0159  0.1684
 1972SOL    HW114809   4.247   4.186   0.971 -1.3141 -0.5874  0.2452
 1972SOL    HW214810   4.274   4.292   0.849 -0.4758  0.4920  1.3534
 1973SOL     OW14811   4.826   4.003   1.236  0.4815 -0.0662 -0.0924
 1973SOL    HW114812   4.800   4.083   1.291 -0.5214 -0.6359  0.2870
 1973SOL    HW214813   4.873   4.034   1.153 -0.0782  0.9329 -0.0549
 1974SOL     OW14814   1.639   2.914   2.306  0.3179 -0.2080 -1.0534
 1974SOL    HW114815   1.687   2.976   2.243  3.3529 -0.6822  0.7252
 1974SOL    HW214816   1.611   2.965   2.387  2.2555 -0.9628  0.1254
 1975SOL     OW14817   8.170   7.377   1.863  0.2848  0.3416 -0.1790
 1975SOL    HW114818   8.184   7.476   1.855  0.3335  0.2332 -1.5380
 1975SOL    HW214819   8.158   7.338   1.772 -1.0129 -0.7237  0.4434
 1976SOL     OW14820   9.663   0.282   2.293 -0.2133 -0.5538 -0.4889
 1976SOL    HW114821   9.732   0.212   2.276 -0.0261 -0.2542 -0.9782
 1976SOL    HW214822   9.618   0.306   2.207 -0.4527 -0.2597 -0.2819
 1977SOL     OW14823   4.172   1.313   0.581  0.3863  0.1557 -0.5349
 1977SOL    HW114824   4.218   1.294   0.494  0.1497  1.3492 -0.9320
 1977SOL    HW214825   4.150   1.411   0.586 -1.5863 -0.3050 -0.0901
 1978SOL     OW14826   2.751   5.421   2.157  0.0902  0.1845  0.0584
 1978SOL    HW114827   2.722   5.330   2.189  1.2650 -0.1066  0.3375
 1978SOL    HW214828   2.727   5.490   2.225 -1.3625  0.1711 -0.4335
 1979SOL     OW14829   0.924   4.670   0.927  0.3459 -0.2066  0.0926
 1979SOL    HW114830   1.020   4.698   0.934  0.6897 -0.5544 -2.6023
 1979SOL    HW214831   0.919   4.570   0.916 -0.0630  0.1283 -3.2853
 1980SOL     OW14832   3.170   5.207   1.362  0.1073  0.1345 -0.6370
 1980SOL    HW114833   3.160   5.108   1.365  2.5479 -0.1133  1.6394
 1980SOL    HW214834   3.105   5.249   1.425 -0.0251 -0.1286 -0.5956
 1982SOL     OW14835   9.598   3.689   1.681  0.2335 -0.1889 -0.8788
 1982SOL    HW114836   9.601   3.789   1.675  1.3706 -0.2218 -0.8490
 1982SOL    HW214837   9.503   3.660   1.695 -0.0464  0.9093 -0.4336
 1983SOL     OW14838   2.233   5.457   1.238 -0.3798  0.1021  0.0768
 1983SOL    HW114839   2.207   5.504   1.155  0.8172  0.6778  0.0119
 1983SOL    HW214840   2.198   5.506   1.318 -0.4598  0.2423 -0.0460
 1985SOL     OW14841   4.845   3.958   0.382 -0.2419  0.0518  0.5244
 1985SOL    HW114842   4.898   3.967   0.467 -0.5171 -2.1715  0.9516
 1985SOL    HW214843   4.906   3.931   0.308 -0.4233 -0.4210  0.5489
 1986SOL     OW14844   1.574   4.876   1.539 -0.5333  0.0616  0.0785
 1986SOL    HW114845   1.627   4.834   1.613 -0.4537 -0.6734 -0.3886
 1986SOL    HW214846   1.494   4.921   1.577 -1.3020 -1.6145  0.4755
 1988SOL     OW14847   8.869   1.699   0.358  0.0213 -0.1080 -0.0190
 1988SOL    HW114848   8.796   1.706   0.290  0.8219 -1.2507 -0.9901
 1988SOL    HW214849   8.931   1.777   0.348 -0.6754  0.5075  0.3735
 1989SOL     OW14850   0.671   1.545   2.239  0.4317 -0.4608  0.1135
 1989SOL    HW114851   0.602   1.475   2.259 -0.0556  0.2617  1.0044
 1989SOL    HW214852   0.712   1.577   2.324  0.3149  0.6631 -0.2468
 1993SOL     OW14853   2.225   6.967   0.934 -0.4524  0.7664 -0.0113
 1993SOL    HW114854   2.313   7.009   0.958  0.2545 -0.3659 -0.6031
 1993SOL    HW214855   2.194   6.910   1.009 -0.7661  1.2868  0.2593
 1994SOL     OW14856   0.388   5.983   0.915 -0.1296 -0.3088 -0.3969
 1994SOL    HW114857   0.381   6.036   0.830  0.3141 -0.8579 -0.7803
 1994SOL    HW214858   0.484   5.972   0.939 -0.2029 -1.2838 -0.5367
 1995SOL     OW14859   8.353   0.756   0.618  0.8553 -0.5066  0.7945
 1995SOL    HW114860   8.276   0.703   0.583  1.0032 -0.5074  0.4630
 1995SOL    HW214861   8.437   0.705   0.605  1.0009 -0.1845  0.4565
 1996SOL     OW14862  -0.011   5.861   1.221 -0.0623  0.3621  0.3133
 1996SOL    HW114863  -0.003   5.769   1.182  1.5986  1.5959 -2.4226
 1996SOL    HW214864   0.073   5.885   1.269 -0.2480  0.6655  0.4867
 1997SOL     OW14865   0.492   0.712   2.003 -0.5513  0.7071  0.1678
 1997SOL    HW114866   0.500   0.614   2.021  0.5594  0.8218  0.3184
 1997SOL    HW214867   0.405   0.730   1.958 -0.8315 -0.3311  0.2725
 1998SOL     OW14868   0.750   5.616   1.487  0.2507 -0.1610 -0.4892
 1998SOL    HW114869   0.689   5.557   1.540  0.4059 -1.3690 -1.6283
 1998SOL    HW214870   0.712   5.630   1.396  0.7830  0.5622 -0.6061
 1999SOL     OW14871   2.249   3.663   1.420  0.1850 -0.1241 -0.1642
 1999SOL    HW114872   2.157   3.650   1.457 -0.0479 -0.8110 -0.9561
 1999SOL    HW214873   2.249   3.742   1.358  0.4239  0.6340  0.7998
 2001SOL     OW14874   9.318   3.395   1.538  0.4807 -0.0347  0.0839
 2001SOL    HW114875   9.229   3.432   1.509  0.9245  0.3383 -0.8263
 2001SOL    HW214876   9.336   3.422   1.633  0.5363  1.6335 -0.3782
 2002SOL     OW14877   3.864   4.630   0.870 -0.6253  0.1450  0.4501
 2002SOL    HW114878   3.883   4.672   0.781  1.0246  1.9334  1.6047
 2002SOL    HW214879   3.937   4.565   0.892 -0.9344 -0.1639  0.5565
 2003SOL     OW14880   0.835   6.030   0.783 -0.4542 -0.5525  0.6014
 2003SOL    HW114881   0.834   6.023   0.684  2.4935  0.6146  0.4354
 2003SOL    HW214882   0.837   6.126   0.810 -1.6517 -0.8489  1.8026
 2004SOL     OW14883   3.903   0.498   0.408 -0.2198  0.0865  0.5539
 2004SOL    HW114884   3.887   0.462   0.316  0.5624  0.6503  0.1838
 2004SOL    HW214885   3.844   0.451   0.473 -2.0878  0.9171 -0.4935
 2005SOL     OW14886   8.827   3.590   1.692 -0.1777  0.2132  0.1532
 2005SOL    HW114887   8.883   3.590   1.775 -0.2525 -0.6313  0.2131
 2005SOL    HW214888   8.867   3.527   1.625 -1.4192 -0.9237  0.4580
 2006SOL     OW14889   8.430   8.005   2.125 -0.0660 -0.2161  0.3130
 2006SOL    HW114890   8.452   7.998   2.223  0.2350 -0.3473  0.2363
 2006SOL    HW214891   8.332   7.993   2.113  0.0478 -1.4819  0.4879
 2007SOL     OW14892   4.718   2.526   1.460 -0.0958 -0.1282  0.5841
 2007SOL    HW114893   4.734   2.427   1.464  2.2665  0.2569  0.9753
 2007SOL    HW214894   4.782   2.568   1.395 -0.9687  1.1893  0.5477
 2008SOL     OW14895   9.687   1.991   2.011 -0.3123  0.4854 -0.0566
 2008SOL    HW114896   9.736   2.015   1.928 -1.8541  0.8865 -0.8743
 2008SOL    HW214897   9.723   1.906   2.048 -0.2224 -0.1809 -1.6534
 2010SOL     OW14898   1.911   2.592   2.107 -0.2840  0.5438  0.2776
 2010SOL    HW114899   1.920   2.493   2.116 -0.3155  0.3951 -1.2173
 2010SOL    HW214900   1.937   2.636   2.193 -2.8599 -0.9063  1.8674
 2012SOL     OW14901   8.056   1.163   2.161  0.4316  0.4375  0.4020
 2012SOL    HW114902   7.992   1.090   2.186 -0.5237  1.0814 -0.1437
 2012SOL    HW214903   8.056   1.233   2.232  1.3043 -0.0501  0.8974
 2013SOL     OW14904   0.611   4.334   0.892 -0.2043  0.6910  0.1404
 2013SOL    HW114905   0.548   4.411   0.883 -0.6396  0.3593  0.3211
 2013SOL    HW214906   0.559   4.250   0.906  0.2695  0.3708 -0.0036
 2015SOL     OW14907   0.217   7.200   2.343 -0.3083  0.7776 -0.5769
 2015SOL    HW114908   0.287   7.271   2.356  0.6842 -0.1855 -0.5461
 2015SOL    HW214909   0.156   7.227   2.268  1.1338  0.8730 -1.7559
 2016SOL     OW14910   1.538   3.534   1.092 -0.7413 -0.1939 -1.3830
 2016SOL    HW114911   1.506   3.453   1.142 -0.7284 -0.1080 -1.2343
 2016SOL    HW214912   1.533   3.516   0.994  0.4103 -0.8156 -1.3356
 2017SOL     OW14913   9.026   7.126   2.226 -0.4660  0.0281 -0.6433
 2017SOL    HW114914   8.945   7.128   2.168 -0.9412  0.4106  0.0189
 2017SOL    HW214915   9.076   7.041   2.212 -0.9890 -0.2117 -1.0532
 2018SOL     OW14916   1.311   7.486   1.037  0.1983  0.4594 -0.1523
 2018SOL    HW114917   1.319   7.540   1.121 -0.3272 -0.7784  0.7019
 2018SOL    HW214918   1.390   7.425   1.029 -0.1373  0.0332 -0.1807
 2020SOL     OW14919   4.327   4.027   2.036 -0.5207 -0.4762  0.6067
 2020SOL    HW114920   4.257   3.974   1.988 -0.9965  1.5214 -0.9636
 2020SOL    HW214921   4.295   4.046   2.129 -0.5152 -2.5520  1.0617
 2021SOL     OW14922   1.491   8.647   0.505 -1.0275 -0.1289 -0.4270
 2021SOL    HW114923   1.452   8.568   0.458  0.2318  0.2633 -2.1568
 2021SOL    HW214924   1.573   8.678   0.457  0.0413  0.5597  1.7922
 2022SOL     OW14925   9.582   5.615   1.549  0.0731 -0.1655 -0.3362
 2022SOL    HW114926   9.595   5.518   1.568  1.5755  0.1873  0.4880
 2022SOL    HW214927   9.518   5.653   1.615 -0.0576 -0.4582 -0.2935
 2025SOL     OW14928   2.438   8.884   0.581 -0.0698  0.2466  0.5763
 2025SOL    HW114929   2.518   8.916   0.532 -0.7027  2.3082  0.8666
 2025SOL    HW214930   2.382   8.827   0.521  0.8299  0.0513 -0.0788
 2026SOL     OW14931   9.886   6.812   0.932  0.0983 -0.3311 -0.0443
 2026SOL    HW114932   9.972   6.773   0.899  0.8449  1.8387 -0.7818
 2026SOL    HW214933   9.890   6.824   1.031 -0.3315 -2.4983  0.2683
 2027SOL     OW14934   1.544   7.390   2.064  0.0775 -0.4160 -0.0207
 2027SOL    HW114935   1.584   7.460   2.123 -0.0722 -1.3779  1.2456
 2027SOL    HW214936   1.618   7.340   2.017  0.1519  1.2060 -1.6857
 2028SOL     OW14937   2.066   9.156   1.309 -0.1974 -0.0757  0.3082
 2028SOL    HW114938   2.048   9.174   1.213  1.1584  1.1761  0.2831
 2028SOL    HW214939   2.152   9.106   1.319  1.0867  2.2262  1.0338
 2029SOL     OW14940   0.932   3.934   1.520 -0.0458 -0.5322  0.2197
 2029SOL    HW114941   0.841   3.915   1.484  0.5792 -0.6213 -1.3293
 2029SOL    HW214942   0.992   3.855   1.505  0.6928  0.0792 -0.1125
 2030SOL     OW14943   2.242   6.267   1.258  0.2539 -0.1100 -0.4049
 2030SOL    HW114944   2.156   6.232   1.220 -0.0040 -0.3971  0.4376
 2030SOL    HW214945   2.296   6.309   1.184 -0.6269  0.1213 -0.9345
 2031SOL     OW14946   9.865   5.187   0.432 -0.4040  0.4270  0.2291
 2031SOL    HW114947   9.777   5.191   0.384 -0.5469  0.1470  0.4608
 2031SOL    HW214948   9.858   5.120   0.506  0.0529  0.2966  0.1517
 2032SOL     OW14949   0.158   7.518   1.925  0.7805 -0.0092  0.1856
 2032SOL    HW114950   0.238   7.474   1.883  0.4299  0.6928 -1.2664
 2032SOL    HW214951   0.168   7.618   1.917 -0.8235  0.0658 -1.1422
 2034SOL     OW14952   2.727   7.365   1.040 -0.3426 -0.3878 -0.3605
 2034SOL    HW114953   2.640   7.336   1.080 -1.0581  1.7349 -0.2961
 2034SOL    HW214954   2.757   7.450   1.084  1.9071 -1.2175 -0.2120
 2035SOL     OW14955   3.843   8.621   0.342  0.7887 -0.1866  0.7237
 2035SOL    HW114956   3.811   8.546   0.400  0.0035  1.1466  2.0413
 2035SOL    HW214957   3.918   8.669   0.388  0.9009  0.1960  0.1472
 2037SOL     OW14958   8.199   0.563   0.533  0.2990  0.2519  0.1529
 2037SOL    HW114959   8.196   0.532   0.438 -0.1503  1.3330 -0.1953
 2037SOL    HW214960   8.224   0.486   0.593  1.7946 -0.1581 -0.9644
 2039SOL     OW14961   0.080   4.478   0.453  0.0162  0.0616 -0.4968
 2039SOL    HW114962   0.059   4.381   0.437  1.2139 -0.2520 -0.2123
 2039SOL    HW214963   0.057   4.502   0.547  2.4879 -0.7225  0.3344
 2040SOL     OW14964   0.940   6.929   1.864  0.0521  0.0345 -0.2575
 2040SOL    HW114965   0.937   6.838   1.823  1.0669 -0.0738 -0.1011
 2040SOL    HW214966   1.020   6.979   1.831  0.9210 -0.0713  1.6196
 2041SOL     OW14967   1.953   5.163   1.115 -0.4152  0.3011 -0.3040
 2041SOL    HW114968   1.874   5.102   1.112  0.2715 -0.8373  2.5471
 2041SOL    HW214969   2.026   5.121   1.170  0.7741  2.8836  0.1948
 2043SOL     OW14970   0.027   4.282   2.026  0.2358  0.0561 -0.6575
 2043SOL    HW114971   0.096   4.352   2.044 -1.0758  0.7552  1.8746
 2043SOL    HW214972   0.072   4.196   2.003  2.0109  0.3565  1.5117
 2044SOL     OW14973   0.707   5.296   1.337  0.4354  0.0624  0.7006
 2044SOL    HW114974   0.645   5.218   1.340 -0.3139  0.6367  0.4700
 2044SOL    HW214975   0.653   5.380   1.328  1.2849  0.5080 -0.2712
 2045SOL     OW14976   7.191   9.245   0.549 -0.1745 -0.4722 -0.2802
 2045SOL    HW114977   7.250   9.291   0.483 -1.2265  0.4934 -0.5554
 2045SOL    HW214978   7.243   9.173   0.595  1.4999  0.9450  0.1293
 2046SOL     OW14979   9.443   6.377   2.051  0.4551  0.6123 -0.2456
 2046SOL    HW114980   9.370   6.378   2.119  0.3845  2.7238 -0.3190
 2046SOL    HW214981   9.523   6.330   2.088 -0.0757  0.5128  0.7727
 2047SOL     OW14982   9.200   5.680   0.499  0.4289 -0.8405  0.4547
 2047SOL    HW114983   9.217   5.586   0.530  0.6467 -0.4535  1.5252
 2047SOL    HW214984   9.279   5.737   0.522 -0.3425 -0.0652  1.1738
 2048SOL     OW14985   1.699   1.980   1.390  0.0716 -0.1887  0.0674
 2048SOL    HW114986   1.604   1.949   1.401 -0.1779  0.1092 -1.1547
 2048SOL    HW214987   1.754   1.948   1.467 -0.4312 -2.6862 -0.5582
 2049SOL     OW14988   2.290   3.902   0.654 -0.1984 -0.2357 -0.2448
 2049SOL    HW114989   2.350   3.981   0.659 -0.8807  0.1797  1.5581
 2049SOL    HW214990   2.330   3.826   0.705 -0.5383 -0.4100 -0.2359
 2050SOL     OW14991   1.943   1.335   0.860  0.2691 -0.2151  0.2976
 2050SOL    HW114992   1.966   1.400   0.933 -0.4365 -0.5498  0.8251
 2050SOL    HW214993   1.855   1.360   0.820  0.7124  0.0370 -0.5307
 2051SOL     OW14994   4.280   3.147   1.112  0.2430 -0.1352  0.1198
 2051SOL    HW114995   4.349   3.213   1.082  0.4457 -0.9859 -1.2747
 2051SOL    HW214996   4.238   3.103   1.033 -2.4848  0.9348  0.8950
 2052SOL     OW14997   3.959   2.460   1.089 -0.4252 -0.5943 -0.4314
 2052SOL    HW114998   3.881   2.433   1.147  0.9358  0.8714  2.1640
 2052SOL    HW214999   3.991   2.550   1.117  3.8275 -2.2355  0.2822
 2055SOL     OW15000   1.054   6.477   0.728 -0.0847  0.2264 -0.0058
 2055SOL    HW115001   1.011   6.516   0.647  0.2126 -1.2655 -0.9140
 2055SOL    HW215002   1.134   6.423   0.700  0.1550 -0.1103  1.2963
 2056SOL     OW15003   3.625   3.649   0.664  0.2953 -0.5123  0.2679
 2056SOL    HW115004   3.689   3.724   0.682  1.3162 -1.2439 -0.2787
 2056SOL    HW215005   3.538   3.687   0.631  0.3648  0.4975  1.1819
 2058SOL     OW15006   1.317   5.897   1.766  0.2696 -0.3614  0.3864
 2058SOL    HW115007   1.400   5.913   1.820  0.7465 -0.9900 -0.1536
 2058SOL    HW215008   1.236   5.920   1.821  0.6401 -3.1082  2.1451
 2059SOL     OW15009   1.407   5.927   2.212  0.6079 -0.0806  0.2506
 2059SOL    HW115010   1.357   5.845   2.183  1.5249 -1.2545  1.8559
 2059SOL    HW215011   1.345   6.005   2.216 -0.1201 -0.5190 -2.0587
 2060SOL     OW15012   1.907   2.707   0.838  0.4754 -0.3420 -0.3230
 2060SOL    HW115013   1.820   2.693   0.790  1.7115 -0.3282 -2.6344
 2060SOL    HW215014   1.915   2.803   0.864  1.0138  0.2633 -2.6106
 2061SOL     OW15015   3.431   9.848   1.244 -0.2234 -0.6657 -0.3740
 2061SOL    HW115016   3.361   9.874   1.177  0.2485 -0.0034 -0.6216
 2061SOL    HW215017   3.388   9.804   1.322 -0.8977 -0.4518 -0.6216
 2063SOL     OW15018   8.681   1.485   2.080  0.1213  0.0257  0.1860
 2063SOL    HW115019   8.648   1.422   2.010 -1.2431 -0.2016  1.0206
 2063SOL    HW215020   8.770   1.522   2.052 -0.1613 -0.4578 -1.4068
 2064SOL     OW15021   0.637   5.833   2.075  0.1311 -0.1217 -0.5009
 2064SOL    HW115022   0.717   5.880   2.113  0.2031 -0.4107 -0.2994
 2064SOL    HW215023   0.666   5.769   2.004  0.0522 -0.0211 -0.6241
 2065SOL     OW15024   8.324   9.072   0.809  0.4202  0.3642  0.2225
 2065SOL    HW115025   8.338   9.091   0.712  0.2806  0.7418  0.2780
 2065SOL    HW215026   8.407   9.030   0.847  0.5971  0.5343  0.0219
 2066SOL     OW15027   3.545   2.451   1.517 -0.3335  0.2132 -0.0701
 2066SOL    HW115028   3.531   2.421   1.612  0.4014 -1.2690 -0.4136
 2066SOL    HW215029   3.457   2.468   1.474 -0.7653 -0.9391  0.3184
 2068SOL     OW15030   0.403   9.537   1.802 -0.1721 -0.4285 -0.1247
 2068SOL    HW115031   0.453   9.601   1.744 -0.1278  0.4051  0.8100
 2068SOL    HW215032   0.314   9.517   1.761  0.3120 -0.7455 -1.0404
 2069SOL     OW15033   0.861   1.480   2.054  0.1277 -0.3665  0.8442
 2069SOL    HW115034   0.783   1.526   2.098  0.2421  0.6274  0.0390
 2069SOL    HW215035   0.926   1.451   2.124 -1.0078 -1.3105  1.5423
 2070SOL     OW15036   1.144   5.739   1.307 -0.2414  0.1027  1.2025
 2070SOL    HW115037   1.130   5.650   1.351  1.9773 -1.0721 -0.4366
 2070SOL    HW215038   1.215   5.789   1.356 -2.4689  1.6355  3.0002
 2072SOL     OW15039   9.708   0.862   0.869 -0.0949 -0.0736 -0.1116
 2072SOL    HW115040   9.688   0.960   0.871 -2.1614 -0.5075  1.7333
 2072SOL    HW215041   9.775   0.841   0.940  1.7847  0.2488 -1.7231
 2073SOL     OW15042   9.730   6.492   0.771  0.1358  0.0785 -0.1867
 2073SOL    HW115043   9.784   6.434   0.711 -0.1607  0.4837 -0.8561
 2073SOL    HW215044   9.760   6.587   0.761 -0.4908  0.2656 -0.3511
 2074SOL     OW15045   2.199   8.497   2.154 -0.4138 -0.0843  0.0224
 2074SOL    HW115046   2.195   8.488   2.254  1.0872 -0.8122  0.0336
 2074SOL    HW215047   2.194   8.594   2.129 -0.3255  0.1327  0.8241
 2075SOL     OW15048   2.768   4.929   0.904 -0.2991  0.3140 -0.4988
 2075SOL    HW115049   2.694   4.930   0.971 -0.2903 -1.1805 -0.4486
 2075SOL    HW215050   2.829   4.852   0.923 -0.1019  0.0791 -2.0220
 2077SOL     OW15051   8.890   0.293   1.425  0.3660  0.3821  0.2772
 2077SOL    HW115052   8.797   0.270   1.400  0.7436  0.1424 -0.9218
 2077SOL    HW215053   8.905   0.272   1.522 -0.6402 -0.1095  0.3252
 2078SOL     OW15054   9.921   6.815   1.203 -0.4683 -0.0062 -0.1243
 2078SOL    HW115055  10.020   6.830   1.207 -0.4014 -0.4483 -0.0132
 2078SOL    HW215056   9.875   6.878   1.265 -0.1907 -0.3069  0.3950
 2079SOL     OW15057   8.814   0.230   2.155 -0.1895  0.3588  0.5433
 2079SOL    HW115058   8.868   0.185   2.084  0.2914  0.4487  0.8455
 2079SOL    HW215059   8.793   0.324   2.128 -1.5733 -0.1762 -0.2854
 2081SOL     OW15060   1.270   1.587   1.116 -0.1591  0.2727  0.3432
 2081SOL    HW115061   1.289   1.683   1.095  0.3630 -0.2855 -1.8423
 2081SOL    HW215062   1.276   1.533   1.032 -1.5246 -1.5062  1.3615
 2082SOL     OW15063   3.632   1.735   1.903  0.2675 -0.1390  0.6633
 2082SOL    HW115064   3.657   1.765   1.995  0.8815  0.7144  0.2339
 2082SOL    HW215065   3.688   1.784   1.836 -0.5639 -0.3375 -0.1892
 2084SOL     OW15066   9.869   7.163   1.604 -0.1670 -0.6660 -0.6255
 2084SOL    HW115067   9.957   7.200   1.632  0.1186 -2.4747  1.0358
 2084SOL    HW215068   9.797   7.230   1.622  0.8127  0.6870 -1.6696
 2086SOL     OW15069   0.580   2.976   0.432  0.4963 -0.2639 -0.3000
 2086SOL    HW115070   0.594   2.901   0.368  1.1109 -0.9558  0.6227
 2086SOL    HW215071   0.659   2.983   0.493 -0.7979 -0.7236  1.4710
 2087SOL     OW15072   8.770   1.916   1.832 -0.0795  0.5995  0.2496
 2087SOL    HW115073   8.672   1.918   1.849 -0.5069  2.1190 -2.2019
 2087SOL    HW215074   8.787   1.913   1.734  2.3337  0.3321  0.6441
 2088SOL     OW15075   8.895   2.586   2.142 -0.0492 -0.4488  0.6875
 2088SOL    HW115076   8.809   2.537   2.131  0.3066 -1.3561  1.8428
 2088SOL    HW215077   8.966   2.540   2.089 -0.4230  0.7092 -0.8336
 2089SOL     OW15078   8.117   0.327   0.358 -0.1154  0.6939 -0.1210
 2089SOL    HW115079   8.214   0.325   0.383 -0.4195 -0.8841  1.0449
 2089SOL    HW215080   8.097   0.251   0.296 -0.5187  1.2750 -0.7071
 2091SOL     OW15081   1.069   6.934   2.107 -0.3477  0.1590  0.2165
 2091SOL    HW115082   1.011   6.959   2.030  2.5774  3.2952 -1.1006
 2091SOL    HW215083   1.150   6.885   2.074  0.1312  0.0704  1.4632
 2092SOL     OW15084   0.991   5.507   2.323  0.0392 -0.2920 -0.2349
 2092SOL    HW115085   1.083   5.499   2.363 -0.4805  0.4467  1.1250
 2092SOL    HW215086   0.998   5.556   2.236  0.7090  1.6136  0.8488
 2093SOL     OW15087   8.581   1.092   1.516 -0.5117  1.1254 -0.1486
 2093SOL    HW115088   8.549   1.074   1.609  0.4176 -0.2215 -0.0678
 2093SOL    HW215089   8.636   1.175   1.516 -0.1435  0.8937  0.6062
 2095SOL     OW15090   7.870   8.941   0.848 -0.1476 -0.2412 -0.0905
 2095SOL    HW115091   7.944   8.958   0.782 -0.0858 -1.5338 -0.3629
 2095SOL    HW215092   7.847   9.027   0.894  1.5166  0.1913 -0.0110
 2096SOL     OW15093   2.655   6.990   1.272 -0.2350 -0.1524  0.0086
 2096SOL    HW115094   2.577   6.941   1.232  0.2411 -1.8417  1.0946
 2096SOL    HW215095   2.620   7.062   1.333 -0.9801 -0.9914  0.6034
 2097SOL     OW15096   2.826   1.030   1.722  0.1704  0.7186 -0.4199
 2097SOL    HW115097   2.796   1.079   1.640 -1.3454  2.8152  1.3471
 2097SOL    HW215098   2.747   0.992   1.769  0.9602  0.2171  0.5315
 2098SOL     OW15099   1.151   6.226   0.595  0.0400  0.0632  0.1791
 2098SOL    HW115100   1.160   6.178   0.507  0.9208  0.2062  0.1866
 2098SOL    HW215101   1.207   6.308   0.594  0.8915 -0.4902  1.2626
 2100SOL     OW15102   8.370   8.725   0.973  0.2338  0.7242  0.4629
 2100SOL    HW115103   8.331   8.761   1.058  0.9071  0.4898  0.8699
 2100SOL    HW215104   8.468   8.743   0.972  0.4502 -0.4591  0.3372
 2102SOL     OW15105   1.666   2.605   0.649 -0.2978  0.4838  0.7242
 2102SOL    HW115106   1.582   2.658   0.636  0.7217  1.7831 -0.9089
 2102SOL    HW215107   1.644   2.512   0.676 -2.2679  0.7707  0.1483
 2105SOL     OW15108   1.317   8.967   0.552  0.2324 -0.0678 -0.1331
 2105SOL    HW115109   1.328   8.993   0.648 -1.2725  0.6808 -0.1443
 2105SOL    HW215110   1.335   9.046   0.494  2.4727 -0.8647 -0.5592
 2106SOL     OW15111   1.510   6.655   1.919  1.1234 -0.0311 -0.4901
 2106SOL    HW115112   1.604   6.689   1.921  1.4696 -0.9976  0.0418
 2106SOL    HW215113   1.495   6.605   1.833  1.2874 -0.4018 -0.3045
 2107SOL     OW15114   0.328   0.452   1.438  0.3150 -0.0259  0.5009
 2107SOL    HW115115   0.333   0.470   1.340  0.9864 -3.0986 -0.0910
 2107SOL    HW215116   0.251   0.501   1.478 -1.3067 -0.4855 -1.9788
 2108SOL     OW15117   9.899   4.420   2.228  0.8373 -0.3246 -0.4026
 2108SOL    HW115118   9.926   4.347   2.165 -1.3564 -1.5369  0.0190
 2108SOL    HW215119   9.823   4.471   2.188 -0.7605 -1.2869  1.3499
 2109SOL     OW15120   1.188   5.662   1.664 -0.3016 -0.3105 -0.4003
 2109SOL    HW115121   1.230   5.588   1.612  0.3315 -0.6759  0.6279
 2109SOL    HW215122   1.257   5.729   1.689 -0.5510 -0.2792  0.2187
 2111SOL     OW15123   0.919   1.017   0.812  0.2077  0.1599  0.0162
 2111SOL    HW115124   0.932   0.928   0.856  0.2650  0.1838  0.0469
 2111SOL    HW215125   0.841   1.064   0.855 -1.2827 -0.8466 -1.5370
 2112SOL     OW15126   1.374   1.600   1.388 -0.3240 -0.1157  0.5313
 2112SOL    HW115127   1.369   1.531   1.316  1.1811 -1.0147  1.2657
 2112SOL    HW215128   1.293   1.593   1.446 -0.4007 -0.9553  0.3241
 2113SOL     OW15129   0.183   0.312   0.318 -0.0778  0.7957  0.1823
 2113SOL    HW115130   0.168   0.409   0.336 -1.0594  0.6328  0.2574
 2113SOL    HW215131   0.238   0.272   0.392  0.6243  1.3609 -0.0230
 2114SOL     OW15132   8.434   8.722   1.834 -0.5208  0.0993 -0.3021
 2114SOL    HW115133   8.450   8.758   1.926  0.8122 -1.8687  0.2705
 2114SOL    HW215134   8.501   8.761   1.771  0.3928 -0.7366  0.1461
 2115SOL     OW15135   0.546   2.881   0.793 -0.0615 -0.1773  0.2417
 2115SOL    HW115136   0.553   2.826   0.876 -1.1314  0.0195  0.4737
 2115SOL    HW215137   0.495   2.831   0.723  1.4390 -0.6230 -0.5522
 2116SOL     OW15138   4.558   2.193   2.127  0.2716  0.2493  0.5489
 2116SOL    HW115139   4.616   2.275   2.122  0.4453  0.1787  1.4127
 2116SOL    HW215140   4.488   2.205   2.197  0.2228 -0.3039  0.5984
 2117SOL     OW15141   8.421   1.254   0.464  0.1778  0.2792  0.7656
 2117SOL    HW115142   8.380   1.176   0.513  0.6237 -0.6208 -0.2892
 2117SOL    HW215143   8.520   1.244   0.463  0.1392 -0.0195 -0.8496
 2118SOL     OW15144   3.088   9.663   1.674  0.1847  0.2193 -0.4085
 2118SOL    HW115145   3.173   9.615   1.654  0.2726  0.2228 -0.0481
 2118SOL    HW215146   3.024   9.650   1.598 -0.6775 -2.4807  0.7097
 2119SOL     OW15147   4.292   1.986   1.066 -0.5474 -0.0634  0.2891
 2119SOL    HW115148   4.235   1.918   1.110  2.0784 -1.1237  2.1908
 2119SOL    HW215149   4.342   1.943   0.990 -0.5925  0.3186  0.0409
 2122SOL     OW15150   3.675   9.807   1.347  0.0186  0.0140  0.8003
 2122SOL    HW115151   3.585   9.797   1.305 -0.0608 -0.8136  1.1696
 2122SOL    HW215152   3.680   9.895   1.395  0.6729  1.7638 -2.3290
 2123SOL     OW15153   0.054   6.929   1.576 -0.0531  0.4350  0.3603
 2123SOL    HW115154   0.029   7.021   1.547  1.8928  0.4782 -1.3218
 2123SOL    HW215155   0.034   6.917   1.673  1.0411  3.1268  0.9452
 2124SOL     OW15156   1.365   8.774   0.984 -0.0269 -0.1855  0.4005
 2124SOL    HW115157   1.295   8.798   1.050  1.1555  0.5277  1.4224
 2124SOL    HW215158   1.345   8.684   0.945 -1.3432 -0.1037  0.8807
 2126SOL     OW15159   9.516   3.885   1.008 -0.5472 -0.4297  0.3407
 2126SOL    HW115160   9.526   3.790   0.978  0.8303 -0.6799  1.5626
 2126SOL    HW215161   9.604   3.932   1.003 -0.8215  0.2451  1.5213
 2128SOL     OW15162   1.174   9.566   1.900  0.4817  0.0725 -0.0607
 2128SOL    HW115163   1.083   9.531   1.880  0.0215  1.8260 -1.2162
 2128SOL    HW215164   1.195   9.641   1.837  2.9173 -0.6185 -0.1118
 2129SOL     OW15165   1.341   3.504   0.478  0.5390  0.1325  0.2774
 2129SOL    HW115166   1.406   3.580   0.482 -0.6067  1.1627 -0.3585
 2129SOL    HW215167   1.281   3.516   0.399 -0.7759 -0.5210  1.1523
 2130SOL     OW15168   3.537   2.819   1.292  0.2471  0.7271  0.3880
 2130SOL    HW115169   3.516   2.790   1.386 -1.0233  0.2319 -0.0394
 2130SOL    HW215170   3.605   2.892   1.295  0.4755  0.4832  1.6849
 2131SOL     OW15171   8.624   6.816   0.583 -0.0261  0.7389  0.0627
 2131SOL    HW115172   8.724   6.815   0.586 -0.0533  1.1537  2.8946
 2131SOL    HW215173   8.589   6.723   0.592  0.1043  0.5791 -1.0802
 2132SOL     OW15174   9.875   9.558   0.530  0.9692 -0.0438 -0.7379
 2132SOL    HW115175   9.846   9.588   0.439 -1.2831 -0.7885 -0.2898
 2132SOL    HW215176   9.833   9.617   0.599  0.7799 -0.9475 -0.0782
 2135SOL     OW15177   0.153   6.476   1.261 -0.1026 -0.1621 -0.4560
 2135SOL    HW115178   0.104   6.464   1.175 -0.0033 -0.1187 -0.5193
 2135SOL    HW215179   0.088   6.481   1.336 -0.1501 -0.9498 -0.4428
 2136SOL     OW15180   2.271   2.500   1.607 -0.1115  0.5456 -0.3103
 2136SOL    HW115181   2.332   2.462   1.537 -0.5239  1.3645 -1.1261
 2136SOL    HW215182   2.304   2.474   1.698  1.6741  1.2845 -0.7174
 2138SOL     OW15183   9.712   4.325   1.159 -0.1827  0.0279  0.1785
 2138SOL    HW115184   9.749   4.388   1.090 -0.3172  0.6414  0.6541
 2138SOL    HW215185   9.787   4.287   1.213  0.0088 -1.2712 -0.9850
 2139SOL     OW15186   0.556   8.495   1.637 -0.1046  0.3560  0.0125
 2139SOL    HW115187   0.569   8.579   1.585  2.0565  0.6898  1.0205
 2139SOL    HW215188   0.511   8.516   1.724  2.1509  0.8261  1.1224
 2141SOL     OW15189   8.122   8.566   1.683  0.3448  0.7707  0.4840
 2141SOL    HW115190   8.212   8.562   1.638 -1.1333 -0.1393 -2.4845
 2141SOL    HW215191   8.090   8.474   1.702 -1.0636  0.9949 -0.7595
 2142SOL     OW15192   9.342   3.665   1.720  0.1297 -0.2497  0.1889
 2142SOL    HW115193   9.265   3.728   1.710  0.2638  0.3029  2.4597
 2142SOL    HW215194   9.308   3.571   1.728 -0.2690 -0.0753  0.5211
 2143SOL     OW15195   3.120   3.837   0.365  0.3885  0.2604 -0.1017
 2143SOL    HW115196   3.067   3.897   0.304 -0.5482 -0.1638  0.2892
 2143SOL    HW215197   3.163   3.892   0.436 -1.1448  0.3730  0.7422
 2144SOL     OW15198   2.140   4.518   0.713 -0.3068  0.1689 -0.4379
 2144SOL    HW115199   2.224   4.511   0.767  0.9756  0.3617 -2.3368
 2144SOL    HW215200   2.128   4.613   0.683 -0.8096 -0.0022 -0.7829
 2146SOL     OW15201   1.989   5.934   2.051  0.1949 -0.5102 -0.1732
 2146SOL    HW115202   2.050   5.859   2.078 -1.9706 -1.7648  1.3692
 2146SOL    HW215203   2.031   6.022   2.075  1.0143 -1.3898  1.6870
 2147SOL     OW15204   9.305   8.856   2.058 -0.5261  0.8373  1.1742
 2147SOL    HW115205   9.277   8.952   2.055  1.0323  1.2592 -0.6051
 2147SOL    HW215206   9.387   8.843   2.002 -1.2371 -1.7122  0.6588
 2148SOL     OW15207   2.771   6.030   1.718 -0.2751 -0.0246  0.4351
 2148SOL    HW115208   2.688   6.004   1.768  0.5517 -0.6409  1.4769
 2148SOL    HW215209   2.760   6.004   1.622 -1.5050  0.3754  0.4501
 2149SOL     OW15210   2.730   6.569   1.534 -0.6266  0.2498 -0.1011
 2149SOL    HW115211   2.707   6.625   1.613 -1.0871  0.6367 -0.5089
 2149SOL    HW215212   2.765   6.480   1.565 -2.1679 -0.1501  0.5157
 2150SOL     OW15213   2.857   8.684   1.436 -0.1988 -0.1982 -0.4260
 2150SOL    HW115214   2.931   8.725   1.489 -1.0455 -0.0058  0.6370
 2150SOL    HW215215   2.836   8.741   1.357 -0.1550  0.4967  0.0529
 2152SOL     OW15216   2.217   5.603   1.878  0.4651  0.2216 -0.0032
 2152SOL    HW115217   2.123   5.608   1.911  0.9000  0.4261  1.2270
 2152SOL    HW215218   2.246   5.507   1.874  0.2117  0.1606 -0.3582
 2155SOL     OW15219   0.059   7.439   0.659  0.0101 -0.0809  0.1785
 2155SOL    HW115220   0.134   7.454   0.724 -0.0250  2.1968 -0.2725
 2155SOL    HW215221   0.075   7.493   0.577 -0.9334 -1.4556 -0.9318
 2156SOL     OW15222   3.948   1.135   1.604  0.4563  0.0806 -0.0955
 2156SOL    HW115223   4.009   1.185   1.543  0.7643 -0.0690  0.0915
 2156SOL    HW215224   3.990   1.048   1.631  0.4558  0.2909  0.5839
 2159SOL     OW15225   2.397   2.747   0.908 -0.3869  0.0815 -0.3343
 2159SOL    HW115226   2.386   2.777   1.003  2.1419  1.5255 -0.4714
 2159SOL    HW215227   2.389   2.647   0.904 -0.2054 -0.0238  1.4578
 2160SOL     OW15228   4.713   2.253   1.561 -0.5626 -0.1975 -0.4006
 2160SOL    HW115229   4.743   2.221   1.651 -1.3454 -0.8374 -0.3686
 2160SOL    HW215230   4.628   2.208   1.535 -0.1158 -0.3520 -1.6656
 2161SOL     OW15231   9.472   4.085   1.928 -0.0137 -0.9778 -0.3659
 2161SOL    HW115232   9.485   4.025   2.007 -0.4644 -0.0874  0.3745
 2161SOL    HW215233   9.375   4.096   1.909  0.0373  0.3752  0.1388
 2162SOL     OW15234   8.160   8.075   1.864 -0.3693  0.4684 -0.2067
 2162SOL    HW115235   8.166   8.005   1.936 -1.1830  0.1099 -0.4809
 2162SOL    HW215236   8.214   8.045   1.786 -1.0190 -0.0467 -0.4699
 2163SOL     OW15237   0.520   4.116   1.409 -0.1826 -0.4122  0.3920
 2163SOL    HW115238   0.546   4.143   1.316 -0.6996 -1.4914 -0.0774
 2163SOL    HW215239   0.578   4.164   1.475  1.7082 -1.3415 -0.5621
 2165SOL     OW15240   7.646   0.368   2.271  0.4118  0.1135 -0.0925
 2165SOL    HW115241   7.681   0.392   2.362 -0.3031 -0.3381  0.3028
 2165SOL    HW215242   7.615   0.274   2.272  1.0725 -0.1174 -1.0139
 2166SOL     OW15243   0.139   3.699   1.004 -0.2402 -0.7159 -0.5617
 2166SOL    HW115244   0.064   3.760   0.979  0.0299 -0.9625 -2.0426
 2166SOL    HW215245   0.154   3.634   0.930  1.8103 -0.2985 -0.5370
 2167SOL     OW15246   1.193   9.126   1.781  0.2865 -0.0339  0.0180
 2167SOL    HW115247   1.251   9.201   1.814  0.6517 -1.6208  3.1469
 2167SOL    HW215248   1.244   9.040   1.785 -2.1682 -1.4315  2.6135
 2169SOL     OW15249   0.067   2.678   1.477  0.5205 -0.3825 -0.1101
 2169SOL    HW115250   0.099   2.744   1.544  0.5220  0.6799 -1.1446
 2169SOL    HW215251   0.120   2.686   1.393 -0.0714 -1.0735 -0.5640
 2170SOL     OW15252   4.241   0.779   1.516  0.3523 -0.5613 -0.0232
 2170SOL    HW115253   4.275   0.720   1.443 -2.0316 -1.9860 -0.0219
 2170SOL    HW215254   4.273   0.745   1.605  0.7339 -0.6066 -0.1781
 2171SOL     OW15255   1.513   3.531   0.789  0.4334 -0.5246  0.4455
 2171SOL    HW115256   1.580   3.457   0.785  1.5756  0.4756  0.6975
 2171SOL    HW215257   1.514   3.582   0.702  1.8952  1.0968  1.3748
 2174SOL     OW15258   2.496   0.800   1.471 -0.3264 -0.1566 -0.0886
 2174SOL    HW115259   2.594   0.780   1.476 -0.0699  1.0921 -0.1944
 2174SOL    HW215260   2.449   0.720   1.434  0.7983 -0.3352 -1.1832
 2176SOL     OW15261   4.127   9.638   1.287 -0.3511 -0.1892 -0.2210
 2176SOL    HW115262   4.044   9.632   1.343  1.0974  2.5391  2.4165
 2176SOL    HW215263   4.176   9.551   1.291 -0.7955 -0.3888  1.9962
 2177SOL     OW15264   2.378   2.963   1.949  0.0635  0.3727 -0.4712
 2177SOL    HW115265   2.469   3.002   1.961 -0.4606  1.6170 -0.4586
 2177SOL    HW215266   2.309   3.029   1.980 -0.9274  0.2505 -2.3633
 2178SOL     OW15267   0.013   3.052   0.893  0.2610  0.7125  0.4802
 2178SOL    HW115268  -0.012   3.121   0.961 -0.8956  1.3653 -0.5857
 2178SOL    HW215269  -0.007   2.961   0.929 -1.2533  1.1062  0.6548
 2179SOL     OW15270   1.936   7.166   2.154 -0.0640 -0.0954  0.2550
 2179SOL    HW115271   1.950   7.073   2.187  0.5981 -0.0989 -0.0211
 2179SOL    HW215272   1.936   7.229   2.231 -0.1448 -0.2836  0.4092
 2180SOL     OW15273   9.064   2.136   0.550  0.1732  0.8628 -0.4526
 2180SOL    HW115274   9.035   2.095   0.636 -0.8404  0.0952 -1.1492
 2180SOL    HW215275   9.027   2.228   0.542 -0.2500  0.7030 -0.3445
 2181SOL     OW15276   9.460   7.142   0.449  0.4447  0.0691 -0.1609
 2181SOL    HW115277   9.421   7.070   0.392  0.6857 -2.0504  2.2576
 2181SOL    HW215278   9.406   7.151   0.533  0.3311  2.8595 -0.4606
 2182SOL     OW15279   4.546   3.898   1.251 -0.2467 -0.1308 -0.2863
 2182SOL    HW115280   4.495   3.860   1.328  0.1956  0.7364  0.4427
 2182SOL    HW215281   4.643   3.877   1.262 -0.1202  0.4201 -0.3554
 2183SOL     OW15282   0.982   0.637   0.537  0.2343 -0.8997  0.0866
 2183SOL    HW115283   0.943   0.658   0.448  2.0768  0.7782 -0.3709
 2183SOL    HW215284   1.032   0.550   0.532  1.7810  0.0329 -1.0029
 2184SOL     OW15285   9.710   3.303   1.576 -0.1065  0.8559  0.1592
 2184SOL    HW115286   9.805   3.324   1.556 -0.1615 -0.5933 -1.8207
 2184SOL    HW215287   9.651   3.347   1.508 -0.6681 -0.1605 -0.0220
 2185SOL     OW15288   0.944   1.527   1.798  0.2853 -0.0408 -0.0377
 2185SOL    HW115289   0.907   1.484   1.880  1.6257  0.0319  0.6340
 2185SOL    HW215290   0.918   1.476   1.717 -1.0997 -0.0854  0.4335
 2186SOL     OW15291   0.998   1.356   2.264  0.2844  0.1206  0.3096
 2186SOL    HW115292   0.937   1.280   2.242  3.3368 -2.4486  0.2584
 2186SOL    HW215293   0.999   1.371   2.363 -2.2023  1.7939  0.1104
 2187SOL     OW15294   4.203   8.511   1.643  0.0287  0.7263  0.5349
 2187SOL    HW115295   4.203   8.611   1.642  2.3837  0.7494  0.9425
 2187SOL    HW215296   4.296   8.477   1.658 -0.5187 -1.5446 -0.8886
 2188SOL     OW15297   8.647   7.881   1.818  0.3597  0.2040  0.0013
 2188SOL    HW115298   8.712   7.943   1.863 -0.1071  1.0900 -0.5330
 2188SOL    HW215299   8.697   7.804   1.779  0.7221 -0.8400  2.4379
 2189SOL     OW15300   9.431   7.831   1.489  0.3329 -0.4434 -0.6439
 2189SOL    HW115301   9.341   7.874   1.493  0.5565 -0.1213  1.2374
 2189SOL    HW215302   9.494   7.880   1.550  1.0556 -2.3711  0.1742
 2190SOL     OW15303   3.029   4.561   1.281  0.1894  0.1446 -0.2699
 2190SOL    HW115304   2.945   4.615   1.291  0.0239 -0.2009  0.2034
 2190SOL    HW215305   3.054   4.557   1.184 -0.1667  0.5069 -0.3806
 2191SOL     OW15306   0.165   6.026   1.850 -0.9256 -0.0127  0.3500
 2191SOL    HW115307   0.123   5.936   1.861  0.0923 -0.2464  2.4450
 2191SOL    HW215308   0.139   6.063   1.761 -2.5572 -1.7326  0.0613
 2192SOL     OW15309   8.814   5.371   2.002  0.3485  0.3209  0.0160
 2192SOL    HW115310   8.719   5.389   2.027  0.0962 -1.0760  0.1237
 2192SOL    HW215311   8.859   5.456   1.976 -0.4982  1.2368  1.4584
 2193SOL     OW15312   3.061   8.788   0.750 -0.0650  0.3800 -0.1100
 2193SOL    HW115313   3.146   8.737   0.741 -0.2821  0.3793 -2.4280
 2193SOL    HW215314   3.065   8.871   0.695 -1.2628  0.7863  0.3933
 2194SOL     OW15315   0.747   5.210   0.985  0.1804 -0.1314 -0.3478
 2194SOL    HW115316   0.807   5.288   1.002 -0.4265  0.4805 -0.9631
 2194SOL    HW215317   0.707   5.180   1.071  0.8403 -0.1134 -0.0297
 2195SOL     OW15318   9.816   2.431   1.791  0.1529 -0.8125  0.1687
 2195SOL    HW115319   9.914   2.438   1.771  0.3685 -0.5489  1.2610
 2195SOL    HW215320   9.763   2.470   1.717  0.8780 -1.0844 -0.4956
 2196SOL     OW15321   9.165   9.886   0.648  0.3886  0.2234  0.2249
 2196SOL    HW115322   9.083   9.930   0.612  0.5176 -0.4292 -0.8844
 2196SOL    HW215323   9.246   9.937   0.619  0.6565 -1.7761 -2.6489
 2197SOL     OW15324   8.579   1.237   2.223 -0.0859  0.2335 -0.0592
 2197SOL    HW115325   8.592   1.302   2.148 -1.5900  0.2080 -0.3479
 2197SOL    HW215326   8.482   1.216   2.234  0.3209 -1.5899  0.3541
 2198SOL     OW15327   1.145   6.078   0.367  0.0190 -0.1978  0.0427
 2198SOL    HW115328   1.224   6.040   0.320  0.0359 -0.4533  0.2822
 2198SOL    HW215329   1.063   6.025   0.343 -0.1397  0.2568 -0.4559
 2199SOL     OW15330   8.597   9.621   0.782 -0.8867 -0.5207 -0.9100
 2199SOL    HW115331   8.519   9.656   0.833 -1.0796 -2.1647 -0.0705
 2199SOL    HW215332   8.681   9.642   0.832 -0.8413  0.4813 -1.3882
 2200SOL     OW15333   1.669   8.236   0.427 -0.6972 -0.9089  0.0559
 2200SOL    HW115334   1.729   8.238   0.346 -1.7259  0.3543 -0.7050
 2200SOL    HW215335   1.691   8.313   0.487 -1.9379 -0.0709 -0.5326
 2202SOL     OW15336   2.665   9.644   0.500  0.3988 -0.0364 -0.5003
 2202SOL    HW115337   2.639   9.562   0.549 -0.6087 -2.1105 -4.3039
 2202SOL    HW215338   2.607   9.720   0.528 -1.8770 -1.7841 -0.3694
 2204SOL     OW15339   1.432   4.045   0.369 -0.6897  0.0655  0.9298
 2204SOL    HW115340   1.467   4.050   0.275  1.8360  0.4887  1.8561
 2204SOL    HW215341   1.334   4.065   0.369 -0.5729  0.8523 -1.5125
 2205SOL     OW15342   8.171   0.591   1.941 -0.1563  0.3408 -0.5755
 2205SOL    HW115343   8.105   0.517   1.927 -0.2250  0.3835 -0.4799
 2205SOL    HW215344   8.203   0.591   2.035  0.5387 -0.1349 -0.8097
 2207SOL     OW15345   0.836   4.621   2.325  0.5339 -0.4970 -0.3145
 2207SOL    HW115346   0.777   4.667   2.392 -0.8788 -0.4407 -1.5767
 2207SOL    HW215347   0.844   4.677   2.243 -0.5111 -2.0635 -1.5304
 2208SOL     OW15348   2.334   0.834   0.839  0.0195 -0.1852  0.5730
 2208SOL    HW115349   2.300   0.917   0.794 -2.0463 -0.9864  0.6047
 2208SOL    HW215350   2.417   0.802   0.792 -0.2289  0.8501 -0.5971
 2209SOL     OW15351   2.679   8.426   0.680 -0.2952  0.4650 -0.1123
 2209SOL    HW115352   2.751   8.488   0.649  0.1366  0.0737  0.0759
 2209SOL    HW215353   2.699   8.398   0.775  0.2434 -0.9795 -0.6237
 2210SOL     OW15354   8.232   1.986   2.202 -0.0336  0.4325  0.0976
 2210SOL    HW115355   8.281   1.968   2.287  1.2804 -1.5173 -1.0484
 2210SOL    HW215356   8.189   1.902   2.168  0.5951  0.8675 -1.8703
 2211SOL     OW15357   0.728   6.610   0.987 -0.6597  0.5375  0.0193
 2211SOL    HW115358   0.681   6.692   0.956  0.4858  0.4551 -2.0129
 2211SOL    HW215359   0.826   6.619   0.970 -0.5027 -1.1458 -0.0602
 2212SOL     OW15360   0.718   1.149   0.970 -0.3787  0.6195 -0.1460
 2212SOL    HW115361   0.741   1.219   1.037 -0.6983  0.9830 -0.4135
 2212SOL    HW215362   0.623   1.162   0.939 -0.5987 -0.2293  0.1718
 2214SOL     OW15363   9.133   0.352   1.798  0.1126  0.3179  0.2970
 2214SOL    HW115364   9.144   0.421   1.869  2.2579 -0.3437  0.6478
 2214SOL    HW215365   9.175   0.385   1.713 -0.9024  0.3823 -0.1942
 2215SOL     OW15366   1.070   1.075   1.516 -0.0768  0.4969 -0.3679
 2215SOL    HW115367   0.998   1.081   1.586 -0.7409 -2.8783 -0.6595
 2215SOL    HW215368   1.149   1.026   1.554 -0.0788 -0.5458 -1.6713
 2216SOL     OW15369   3.890   3.670   2.248  0.4654 -0.0665 -0.5752
 2216SOL    HW115370   3.919   3.639   2.158 -0.0558  0.0031 -0.7672
 2216SOL    HW215371   3.826   3.747   2.239  1.5930  0.9353 -0.1029
 2217SOL     OW15372   0.581   6.842   0.919  0.4015 -0.1439  0.4382
 2217SOL    HW115373   0.588   6.942   0.914  0.4268 -0.1566  0.2174
 2217SOL    HW215374   0.485   6.816   0.924  0.2062 -0.2704 -3.1718
 2219SOL     OW15375   3.192   9.698   0.408  0.2811  0.2047 -0.7788
 2219SOL    HW115376   3.123   9.747   0.355 -0.8119 -1.3068 -0.7768
 2219SOL    HW215377   3.169   9.702   0.505  0.2186 -0.2638 -0.7739
 2220SOL     OW15378   0.276   6.119   2.077  0.0905 -0.4173 -0.1950
 2220SOL    HW115379   0.229   6.090   1.993 -0.6930 -1.8438  0.7022
 2220SOL    HW215380   0.218   6.182   2.128 -0.6726 -1.7976  0.6726
 2221SOL     OW15381   8.141   0.952   0.359 -0.4723 -0.7982  0.9577
 2221SOL    HW115382   8.058   0.916   0.318 -0.7307  0.9341 -0.0657
 2221SOL    HW215383   8.118   1.012   0.436 -0.2582  0.7846 -0.1834
 2222SOL     OW15384   8.830   6.998   1.435  0.1293 -0.1404 -0.4247
 2222SOL    HW115385   8.760   6.984   1.365 -2.3192  0.8990  1.7197
 2222SOL    HW215386   8.801   7.072   1.496  1.6581 -1.7629  2.3433
 2223SOL     OW15387   1.130   1.730   2.186  0.2228 -0.4031 -0.1924
 2223SOL    HW115388   1.085   1.725   2.096 -0.2155  2.9186 -0.2400
 2223SOL    HW215389   1.199   1.802   2.184  0.2025 -0.2995  2.1502
 2224SOL     OW15390   7.634   9.090   0.573  0.5551  0.0537 -0.1587
 2224SOL    HW115391   7.630   9.009   0.633  0.1798  0.5883  0.5457
 2224SOL    HW215392   7.580   9.164   0.614  0.7217  0.5929 -0.9114
 2226SOL     OW15393   0.321   0.164   1.674 -0.4290 -0.0721 -0.2891
 2226SOL    HW115394   0.312   0.144   1.577 -0.3788  2.2967 -0.8215
 2226SOL    HW215395   0.235   0.201   1.709 -0.7026 -1.6710  0.7717
 2227SOL     OW15396   2.933   5.650   0.646 -0.7527  0.0059 -0.0726
 2227SOL    HW115397   2.912   5.553   0.662  0.1455 -0.3235 -0.8410
 2227SOL    HW215398   2.989   5.684   0.721  0.9749 -0.7412 -0.9999
 2230SOL     OW15399   9.602   3.092   2.020  0.0702  0.4828  0.6546
 2230SOL    HW115400   9.561   3.160   1.959  1.3500  1.4587  0.8397
 2230SOL    HW215401   9.673   3.041   1.971  0.2543  0.4279  0.9763
 2232SOL     OW15402   1.832   9.127   1.471 -0.7530  0.0272  0.4516
 2232SOL    HW115403   1.750   9.106   1.418 -0.5107  1.4497 -0.4862
 2232SOL    HW215404   1.909   9.144   1.410  0.0749 -0.5404  1.3105
 2233SOL     OW15405   2.728   9.530   1.961  0.5566 -0.1506 -0.7062
 2233SOL    HW115406   2.760   9.438   1.941  0.7308  0.3122 -2.6508
 2233SOL    HW215407   2.723   9.543   2.060  0.5168 -2.2347 -0.4203
 2234SOL     OW15408   0.354   5.838   2.088 -0.2180  0.0240  0.2856
 2234SOL    HW115409   0.453   5.834   2.071 -0.2723  1.1400 -0.2921
 2234SOL    HW215410   0.330   5.928   2.124 -0.9708 -0.3891  0.8231
 2235SOL     OW15411   3.261   4.038   1.308 -0.4695  0.3651 -0.0028
 2235SOL    HW115412   3.304   4.060   1.221 -0.4676 -1.1714 -0.4026
 2235SOL    HW215413   3.162   4.050   1.302 -0.1931  3.5708  0.8151
 2236SOL     OW15414   2.586   7.637   0.656  0.2656 -0.1406  0.4058
 2236SOL    HW115415   2.507   7.622   0.715  0.7705 -0.9667  0.8868
 2236SOL    HW215416   2.616   7.732   0.663  0.0907 -0.1440  1.1874
 2237SOL     OW15417   9.330   6.271   2.262 -0.0085 -0.1886 -0.1728
 2237SOL    HW115418   9.354   6.186   2.216  0.7178  0.5673 -1.1993
 2237SOL    HW215419   9.247   6.257   2.316  0.9476 -1.9603  0.8896
 2238SOL     OW15420   8.150   0.200   2.063  0.7854 -0.1754  0.6505
 2238SOL    HW115421   8.219   0.168   2.127  1.1643  0.8676  0.7771
 2238SOL    HW215422   8.114   0.288   2.095 -1.1567 -1.0777  1.0059
 2239SOL     OW15423   7.819   0.010   1.206  0.2459 -0.7711  0.8354
 2239SOL    HW115424   7.844   0.044   1.297 -3.5695  0.3938  1.5470
 2239SOL    HW215425   7.745  -0.057   1.215 -2.0477  1.3270 -1.4942
 2240SOL     OW15426   1.825   7.024   0.615  0.2355  0.3908 -0.1041
 2240SOL    HW115427   1.756   6.973   0.563  1.5257 -1.0226 -0.4724
 2240SOL    HW215428   1.811   7.122   0.600 -1.2552  0.1115 -0.7320
 2241SOL     OW15429   1.479   8.321   1.161 -0.1376  0.0604 -0.0858
 2241SOL    HW115430   1.553   8.256   1.144 -0.6639 -0.2218 -1.3789
 2241SOL    HW215431   1.425   8.332   1.077 -0.5761  1.5025  0.3769
 2242SOL     OW15432   3.289   4.011   0.488  0.4610  0.7198  0.2977
 2242SOL    HW115433   3.271   4.099   0.445  1.3019  0.8321  0.1585
 2242SOL    HW215434   3.260   4.013   0.583  0.3167  1.0871  0.2465
 2243SOL     OW15435   9.155   5.556   1.944 -0.9968  0.1087  0.3756
 2243SOL    HW115436   9.209   5.640   1.941  1.0707 -1.2118 -0.9048
 2243SOL    HW215437   9.135   5.526   1.851 -1.4825 -0.9846  0.8205
 2244SOL     OW15438   1.242   6.970   0.415  0.4703 -0.1346 -0.5782
 2244SOL    HW115439   1.341   6.959   0.420  0.4337 -0.0918  0.3055
 2244SOL    HW215440   1.204   6.976   0.507 -0.4341 -0.8322 -0.9004
 2246SOL     OW15441   3.513   9.496   1.773 -0.3393 -0.0207 -0.6395
 2246SOL    HW115442   3.518   9.476   1.871 -1.3790 -2.4029 -1.0491
 2246SOL    HW215443   3.606   9.501   1.735  0.0037 -1.5220  0.0008
 2248SOL     OW15444   1.023   9.426   1.076  0.5169  0.0536  0.7221
 2248SOL    HW115445   1.120   9.434   1.098  0.8711 -1.5621 -0.1503
 2248SOL    HW215446   0.975   9.381   1.152  0.5450  0.3722  0.9294
 2249SOL     OW15447   9.696   5.027   1.613 -0.0534  0.4357  0.5701
 2249SOL    HW115448   9.651   4.990   1.694  0.1870 -0.8957  0.1121
 2249SOL    HW215449   9.794   5.037   1.630  0.1036 -0.4621  0.2451
 2250SOL     OW15450   1.359   7.528   1.916  0.4740  0.0491 -0.0025
 2250SOL    HW115451   1.417   7.458   1.956  1.4073  1.2109  0.6950
 2250SOL    HW215452   1.263   7.512   1.942  0.4353 -1.9828 -1.3251
 2251SOL     OW15453   1.444   0.049   0.844  0.0841  0.1409  0.0237
 2251SOL    HW115454   1.373   0.117   0.862  1.1594  1.0439  0.8583
 2251SOL    HW215455   1.506   0.043   0.922  0.7379 -0.8892 -0.5604
 2252SOL     OW15456   2.835   3.812   1.766  0.6737 -0.0980 -0.0919
 2252SOL    HW115457   2.867   3.861   1.685  3.1692 -0.5434  0.5872
 2252SOL    HW215458   2.735   3.820   1.772  0.8379  3.4031 -0.9302
 2253SOL     OW15459   0.213   6.689   1.561 -0.3352  0.0645  0.5854
 2253SOL    HW115460   0.150   6.765   1.577  0.3502  0.9580 -0.8171
 2253SOL    HW215461   0.172   6.625   1.496  0.0392  0.4558 -0.0431
 2254SOL     OW15462   3.323   8.167   0.725 -0.1536  0.8326 -0.2487
 2254SOL    HW115463   3.256   8.123   0.785 -0.7510 -0.1495 -1.6092
 2254SOL    HW215464   3.285   8.174   0.633  1.4861  0.5614 -0.9609
 2257SOL     OW15465   4.437   4.265   1.945  0.6428 -0.2372  0.3606
 2257SOL    HW115466   4.405   4.175   1.975  0.4700 -0.3782 -0.2569
 2257SOL    HW215467   4.437   4.270   1.846 -1.4526  1.2018  0.4147
 2258SOL     OW15468   3.512   8.575   1.659 -0.1561  0.0633  0.0067
 2258SOL    HW115469   3.463   8.650   1.704 -1.2678 -0.6603  0.0342
 2258SOL    HW215470   3.496   8.579   1.561  0.0788  0.0766 -0.0299
 2259SOL     OW15471  -0.021   2.407   1.122 -0.0395 -0.2529  0.1266
 2259SOL    HW115472  -0.096   2.419   1.187  0.3596  0.2828  0.4932
 2259SOL    HW215473   0.050   2.350   1.163  0.3690  0.3724  0.2890
 2260SOL     OW15474   3.525   4.084   0.326  0.6115 -0.8016 -0.0288
 2260SOL    HW115475   3.452   4.021   0.352  1.7736 -2.0366  0.3161
 2260SOL    HW215476   3.613   4.040   0.341  1.4352  0.7321 -0.2808
 2261SOL     OW15477   9.815   4.869   0.844 -0.2939  0.7022  0.0198
 2261SOL    HW115478   9.859   4.822   0.921 -0.8655 -0.4986 -0.3826
 2261SOL    HW215479   9.716   4.861   0.852 -0.3344 -1.1615 -1.8830
 2262SOL     OW15480   3.119   3.490   2.103 -0.6446  0.4974  0.0171
 2262SOL    HW115481   3.175   3.555   2.052 -0.5536  0.2559 -0.1948
 2262SOL    HW215482   3.136   3.398   2.069 -1.0846  0.4078  0.0349
 2263SOL     OW15483   3.573   4.701   0.872 -0.4659 -0.3434 -0.2975
 2263SOL    HW115484   3.664   4.663   0.858 -0.2538  0.2018 -0.4085
 2263SOL    HW215485   3.567   4.741   0.964 -0.0332  1.1574 -0.8996
 2264SOL     OW15486   2.312   8.669   0.437  0.7014  0.0168 -0.2503
 2264SOL    HW115487   2.344   8.593   0.381  0.6211  0.5434 -1.0186
 2264SOL    HW215488   2.239   8.718   0.389 -0.4240 -0.4297  0.9546
 2265SOL     OW15489   9.209   3.340   2.190 -0.3727  0.3282 -0.0914
 2265SOL    HW115490   9.229   3.256   2.141 -1.0853  0.3665 -0.4670
 2265SOL    HW215491   9.213   3.324   2.288  1.1224  0.2660 -0.1556
 2266SOL     OW15492   2.618   4.179   1.475  0.9243  0.1662 -0.4561
 2266SOL    HW115493   2.714   4.163   1.499  0.7666  0.0571  0.0987
 2266SOL    HW215494   2.560   4.112   1.520  0.2828  2.1207  1.7489
 2267SOL     OW15495   0.785   2.721   1.888 -0.0943 -0.1854 -0.2228
 2267SOL    HW115496   0.812   2.626   1.875 -1.7749 -0.7839  0.4308
 2267SOL    HW215497   0.700   2.739   1.837  0.5035  1.1162 -0.7850
 2268SOL     OW15498   7.802   8.494   1.482 -0.2584  0.2391  0.2660
 2268SOL    HW115499   7.878   8.545   1.442  2.0108 -0.5880  3.3057
 2268SOL    HW215500   7.804   8.503   1.582 -2.4341 -2.1601  0.5971
 2270SOL     OW15501   1.181   4.779   0.894 -0.2610  0.0860 -0.1883
 2270SOL    HW115502   1.196   4.799   0.797  0.3210 -0.5617 -0.2329
 2270SOL    HW215503   1.197   4.861   0.948 -2.4308  0.9722 -0.8134
 2271SOL     OW15504   3.371   2.153   1.110  0.2612  0.2508  0.1993
 2271SOL    HW115505   3.296   2.171   1.174  2.6164 -0.3771  3.2425
 2271SOL    HW215506   3.436   2.229   1.112  0.8558 -0.2223 -0.6923
 2272SOL     OW15507   3.685   3.848   2.214  0.9905 -0.0253  0.1813
 2272SOL    HW115508   3.609   3.840   2.278  1.4985 -1.9860  0.5828
 2272SOL    HW215509   3.651   3.851   2.121  0.3445  0.7137  0.4422
 2273SOL     OW15510   4.137   0.644   0.914  0.2634 -0.6827 -0.5498
 2273SOL    HW115511   4.115   0.565   0.856  0.2936 -0.9821 -0.1578
 2273SOL    HW215512   4.088   0.724   0.881  1.5214 -0.4744 -1.9600
 2274SOL     OW15513   0.413   1.120   1.879 -0.2978  0.0926 -0.5514
 2274SOL    HW115514   0.390   1.137   1.783 -1.3776 -1.1998 -0.5432
 2274SOL    HW215515   0.331   1.096   1.930  0.8204 -3.4473 -0.2640
 2275SOL     OW15516   1.094   7.663   1.003 -0.2537  0.9076 -0.2891
 2275SOL    HW115517   1.169   7.598   1.010 -2.4194 -1.7765 -1.2794
 2275SOL    HW215518   1.117   7.747   1.054  1.9467 -1.1874  2.2953
 2276SOL     OW15519   2.767   4.649   1.924 -0.1405 -0.0693 -0.1327
 2276SOL    HW115520   2.832   4.658   1.999 -2.2750  1.2636  1.6194
 2276SOL    HW215521   2.709   4.569   1.940  0.4831 -0.7705 -1.2635
 2277SOL     OW15522   0.263   0.750   1.291 -0.0324  0.1518  0.9145
 2277SOL    HW115523   0.359   0.773   1.308 -0.6450  2.0055  2.0472
 2277SOL    HW215524   0.210   0.762   1.375 -1.6436  1.3794 -0.2306
 2278SOL     OW15525   0.213   3.367   1.139 -0.6111 -0.0658 -0.5342
 2278SOL    HW115526   0.243   3.354   1.234 -0.4883 -0.0025 -0.5646
 2278SOL    HW215527   0.116   3.389   1.138 -0.4424  0.7119 -0.3713
 2279SOL     OW15528   3.159   8.553   1.726  0.0282  0.3454 -0.5477
 2279SOL    HW115529   3.188   8.634   1.675  0.8419  0.9314  0.7978
 2279SOL    HW215530   3.224   8.536   1.801 -0.8120 -0.8269 -0.0660
 2280SOL     OW15531   1.054   9.071   2.026  0.4147 -0.2744  0.0467
 2280SOL    HW115532   0.967   9.111   2.057  0.4748 -0.2536  0.1888
 2280SOL    HW215533   1.076   9.106   1.935  0.3246 -0.2009  0.0533
 2281SOL     OW15534   2.715   8.428   1.892  0.0214 -0.2199 -0.2268
 2281SOL    HW115535   2.805   8.471   1.891  0.7954 -1.7881 -1.9922
 2281SOL    HW215536   2.714   8.354   1.960 -0.3152  0.5600  0.6199
 2282SOL     OW15537   9.452   2.648   1.902 -0.0518 -0.1108 -0.2838
 2282SOL    HW115538   9.406   2.679   1.819 -0.9440  0.2087  0.3301
 2282SOL    HW215539   9.544   2.687   1.906 -0.5715  1.1171 -0.3405
 2283SOL     OW15540   2.794   0.270   1.505  0.3679  0.4220 -0.2187
 2283SOL    HW115541   2.743   0.341   1.553 -1.5556 -1.1540  0.1847
 2283SOL    HW215542   2.743   0.243   1.423  1.7092  0.3989 -1.0554
 2285SOL     OW15543   4.810   3.060   0.702 -0.1661 -0.1328  0.1211
 2285SOL    HW115544   4.856   2.989   0.649  0.1992  0.0153  0.2364
 2285SOL    HW215545   4.735   3.098   0.648 -0.0054 -0.2138 -0.1620
 2286SOL     OW15546   0.350   6.434   1.897  0.2296 -0.4201  0.4345
 2286SOL    HW115547   0.400   6.348   1.892  2.3428  0.5310  3.7109
 2286SOL    HW215548   0.378   6.493   1.821 -0.1904 -2.0214 -1.0063
 2287SOL     OW15549   1.040   8.816   2.008  0.5081 -0.3461  0.3843
 2287SOL    HW115550   1.036   8.913   2.033 -0.5773 -0.5413  1.0144
 2287SOL    HW215551   0.947   8.782   1.991  1.1354 -0.4734 -3.0798
 2288SOL     OW15552   2.199   2.453   1.241 -0.3479  0.2211 -0.1010
 2288SOL    HW115553   2.129   2.488   1.179  0.0108  1.4468  0.1788
 2288SOL    HW215554   2.223   2.359   1.214  0.1967  0.9252 -2.1627
 2289SOL     OW15555   9.232   7.485   1.975  0.2737  0.0858  0.5646
 2289SOL    HW115556   9.154   7.434   2.012  0.6338 -1.0856 -0.2699
 2289SOL    HW215557   9.257   7.559   2.039 -1.4358  0.4033  0.8833
 2290SOL     OW15558   8.681   1.357   0.397  0.2263 -0.0433 -0.2253
 2290SOL    HW115559   8.759   1.411   0.430 -1.1143  1.6798  0.1623
 2290SOL    HW215560   8.643   1.399   0.315  0.1930 -1.3380 -0.8856
 2294SOL     OW15561   4.299   4.618   0.642  0.4414 -0.6370 -0.5318
 2294SOL    HW115562   4.306   4.522   0.618  2.7280 -0.2072 -1.7668
 2294SOL    HW215563   4.277   4.672   0.561  0.5380  0.0262 -0.1271
 2295SOL     OW15564   4.153   8.936   0.584 -0.1414  0.4053  0.1715
 2295SOL    HW115565   4.139   9.019   0.638 -0.1792  0.7194 -0.3145
 2295SOL    HW215566   4.241   8.942   0.536 -1.0307  1.0600 -1.4369
 2296SOL     OW15567   3.746   0.565   1.637 -0.0066 -0.5683  0.0547
 2296SOL    HW115568   3.731   0.657   1.603 -1.9524 -0.0177  2.2257
 2296SOL    HW215569   3.828   0.562   1.693  0.7500 -0.4645 -1.0350
 2297SOL     OW15570   2.612   1.198   1.230 -0.5859  0.1123 -0.2973
 2297SOL    HW115571   2.653   1.288   1.221  1.1168 -0.6814 -0.7241
 2297SOL    HW215572   2.526   1.205   1.280 -0.3688  1.9270 -0.1460
 2298SOL     OW15573   1.082   3.220   0.498 -0.4904  0.0986 -0.2003
 2298SOL    HW115574   0.995   3.269   0.508 -0.3796  0.2515  0.0352
 2298SOL    HW215575   1.151   3.265   0.554  0.5794  2.0040 -2.9411
 2300SOL     OW15576   2.036   7.863   0.807  0.3611  0.2169  0.2031
 2300SOL    HW115577   2.007   7.926   0.880  0.2879 -0.4995  0.7959
 2300SOL    HW215578   1.983   7.779   0.813  1.8822 -0.7214  0.7084
 2301SOL     OW15579   7.653   9.353   1.173  0.2248 -0.0574 -0.1715
 2301SOL    HW115580   7.687   9.414   1.244  0.2668 -0.9440  0.5823
 2301SOL    HW215581   7.583   9.400   1.120 -0.3452  0.3775  0.9379
 2302SOL     OW15582   9.077   2.363   1.198  0.7030 -1.0807  0.4832
 2302SOL    HW115583   9.093   2.272   1.234  0.0289 -1.7671 -0.9273
 2302SOL    HW215584   9.080   2.361   1.098  2.8869  0.8445  0.4578
 2303SOL     OW15585   9.041   8.852   0.879  0.3117 -0.5517  0.0726
 2303SOL    HW115586   9.045   8.856   0.979  4.4012 -0.7010 -0.0053
 2303SOL    HW215587   9.095   8.775   0.847  3.4992  2.5457 -2.4045
 2304SOL     OW15588   1.081   4.141   2.080 -0.1253 -0.1641 -0.0876
 2304SOL    HW115589   1.028   4.205   2.025  1.4964  0.6141 -0.7686
 2304SOL    HW215590   1.085   4.173   2.174 -0.1632  0.2236 -0.2169
 2305SOL     OW15591   8.017   1.234   1.766  0.2766 -0.3264  0.4887
 2305SOL    HW115592   8.080   1.164   1.734  0.0354  0.3517 -1.5158
 2305SOL    HW215593   7.924   1.210   1.739  0.0782  0.2820  0.6318
 2306SOL     OW15594   9.566   4.635   0.397 -0.1732 -0.0494  0.6577
 2306SOL    HW115595   9.479   4.684   0.397 -1.1339 -1.5909 -2.5172
 2306SOL    HW215596   9.629   4.678   0.461 -2.4532  2.5888  1.2157
 2307SOL     OW15597   1.334   2.877   1.143 -0.3674  0.3849  0.6477
 2307SOL    HW115598   1.344   2.842   1.050 -0.7510 -1.9432  1.4325
 2307SOL    HW215599   1.237   2.896   1.161 -0.6035 -1.3396  1.2868
 2309SOL     OW15600   2.557   3.840   2.332 -0.2164 -0.4445  0.3345
 2309SOL    HW115601   2.558   3.920   2.392 -2.5431 -1.0845  1.2735
 2309SOL    HW215602   2.538   3.758   2.385 -0.7341 -1.2483 -1.0473
 2310SOL     OW15603   2.759   0.032   0.385 -0.2354  0.2691  0.0246
 2310SOL    HW115604   2.664   0.054   0.410 -1.2274 -1.7929 -1.7692
 2310SOL    HW215605   2.781   0.073   0.297  0.7733  1.2272  0.7023
 2311SOL     OW15606   4.826   3.486   0.455 -0.2257  0.7495  0.3439
 2311SOL    HW115607   4.811   3.387   0.450  0.2116  0.6566  0.8442
 2311SOL    HW215608   4.761   3.532   0.395  1.2450  0.0131 -1.8727
 2312SOL     OW15609   1.431   7.128   1.183 -0.5232 -0.2281  1.0250
 2312SOL    HW115610   1.462   7.152   1.092  2.1071 -2.0841  1.3647
 2312SOL    HW215611   1.388   7.038   1.181 -3.5887  1.1790  1.0516
 2313SOL     OW15612   8.155   8.833   1.739 -0.5757 -0.1010  0.3909
 2313SOL    HW115613   8.146   8.734   1.728  0.7836 -0.1607 -0.3424
 2313SOL    HW215614   8.242   8.853   1.784 -0.2491  0.8109 -0.6133
 2314SOL     OW15615   1.548   1.376   0.465 -0.1029 -0.0916 -0.2048
 2314SOL    HW115616   1.632   1.425   0.442  0.2894 -0.7639 -0.2218
 2314SOL    HW215617   1.508   1.337   0.381  0.2761 -0.8799 -0.0251
 2316SOL     OW15618   2.467   0.907   1.767  0.1869 -0.5200  0.4231
 2316SOL    HW115619   2.417   0.853   1.835  0.3979 -1.3037 -0.0281
 2316SOL    HW215620   2.462   0.861   1.678  0.0286  0.4229 -0.0635
 2318SOL     OW15621   9.205   8.643   1.915  0.1150  0.0811  0.0605
 2318SOL    HW115622   9.241   8.707   1.983  1.3426  0.1587 -0.6326
 2318SOL    HW215623   9.245   8.664   1.826 -0.0859 -1.1483 -0.3287
 2319SOL     OW15624   0.098   3.087   1.186  0.0284 -0.0687  0.3952
 2319SOL    HW115625   0.106   3.177   1.144  1.0358 -0.0098  0.6864
 2319SOL    HW215626   0.019   3.085   1.247  0.3323  0.8123  0.8275
 2320SOL     OW15627   9.494   5.028   1.431  0.0466  0.2182  0.1487
 2320SOL    HW115628   9.512   5.002   1.336 -0.6635 -0.0160  0.0748
 2320SOL    HW215629   9.579   5.026   1.483  0.3115 -0.3929 -0.3065
 2321SOL     OW15630   2.151   4.364   2.256  0.4001 -0.1124 -0.2136
 2321SOL    HW115631   2.115   4.393   2.167  1.7290  1.3349 -0.3101
 2321SOL    HW215632   2.247   4.393   2.264  0.8143 -1.7484  0.9999
 2322SOL     OW15633   1.366   8.874   1.775 -0.3493 -0.1745 -0.2322
 2322SOL    HW115634   1.331   8.808   1.709  0.0833  0.3266 -0.9616
 2322SOL    HW215635   1.454   8.909   1.744  0.3480 -0.7002  1.1229
 2323SOL     OW15636   0.743   5.696   1.041  0.4682  0.5630 -0.2258
 2323SOL    HW115637   0.688   5.674   1.121  0.5936  2.9294  0.5446
 2323SOL    HW215638   0.840   5.695   1.066  0.6806 -1.5357 -1.0675
 2324SOL     OW15639   9.784   3.585   1.850 -0.0055 -0.0082 -0.5412
 2324SOL    HW115640   9.724   3.634   1.788 -0.0236  0.2766 -0.3000
 2324SOL    HW215641   9.729   3.534   1.916  0.0109 -0.5223 -0.9235
 2325SOL     OW15642   1.761   2.259   1.262 -0.5120  0.5693  0.7558
 2325SOL    HW115643   1.838   2.314   1.293 -0.0151  0.0642  0.4313
 2325SOL    HW215644   1.756   2.174   1.315 -1.2357  0.8923  1.2113
 2326SOL     OW15645   4.170   2.118   0.561 -0.5741 -0.2269  0.3998
 2326SOL    HW115646   4.207   2.211   0.563  0.3389 -0.5604 -0.5545
 2326SOL    HW215647   4.097   2.113   0.493 -0.4277 -0.2759  0.2451
 2327SOL     OW15648   1.595   6.053   1.053 -0.2489  0.0636 -0.1505
 2327SOL    HW115649   1.628   5.990   0.983 -1.5433 -0.6893 -0.1012
 2327SOL    HW215650   1.495   6.058   1.049 -0.4977 -1.3828  2.7816
 2328SOL     OW15651   3.074   8.365   2.099  0.7717 -0.5494 -0.2703
 2328SOL    HW115652   3.064   8.393   2.195  0.0056 -1.3253 -0.1180
 2328SOL    HW215653   3.154   8.411   2.059  0.1702  0.9911  0.2801
 2329SOL     OW15654   9.802   3.031   1.618  0.1662 -0.2204  0.0806
 2329SOL    HW115655   9.893   3.040   1.657  0.8835  0.1716 -1.6549
 2329SOL    HW215656   9.761   3.122   1.609 -0.0832 -0.3305  0.0920
 2330SOL     OW15657   3.229   2.395   1.925  0.3200  0.7418 -0.2505
 2330SOL    HW115658   3.256   2.300   1.944  0.1380  0.5838 -0.7871
 2330SOL    HW215659   3.167   2.397   1.846 -0.6794  1.1790  0.5375
 2331SOL     OW15660   8.896   0.651   0.689  0.0948  0.4565  0.0162
 2331SOL    HW115661   8.898   0.652   0.589  0.2593  0.6071  0.0217
 2331SOL    HW215662   8.864   0.739   0.723 -2.2086 -0.3594  0.0436
 2332SOL     OW15663   9.762   7.583   0.521 -0.6460  0.1577  0.3539
 2332SOL    HW115664   9.766   7.614   0.616  2.2895  2.3814 -0.4335
 2332SOL    HW215665   9.751   7.483   0.519 -1.9320  0.1940  2.9780
 2333SOL     OW15666   0.260   3.339   1.444 -0.0472  0.4600  0.5129
 2333SOL    HW115667   0.310   3.402   1.504  0.9482  0.8158 -0.6865
 2333SOL    HW215668   0.269   3.246   1.480  2.5630  0.3267 -0.3761
 2334SOL     OW15669   0.459   5.043   1.781 -0.0022  0.0182  0.3091
 2334SOL    HW115670   0.368   5.037   1.739 -0.5806 -1.2813  1.6836
 2334SOL    HW215671   0.490   5.138   1.781 -1.8517  0.6546  0.8064
 2335SOL     OW15672   9.476   0.746   1.808  0.6890  0.2834 -0.1661
 2335SOL    HW115673   9.380   0.768   1.793  0.7714  0.6959 -0.1017
 2335SOL    HW215674   9.514   0.807   1.878  0.1277 -2.0688  2.2671
 2336SOL     OW15675   3.044   2.543   1.674 -0.6885 -0.8606  0.0432
 2336SOL    HW115676   2.954   2.513   1.707 -1.4172  1.7847  0.5866
 2336SOL    HW215677   3.107   2.465   1.673 -1.9504 -2.0011  3.2594
 2337SOL     OW15678   0.398   5.493   2.322  0.3181 -0.2357  0.3523
 2337SOL    HW115679   0.480   5.543   2.348  0.3821 -0.5735  0.7991
 2337SOL    HW215680   0.379   5.423   2.390  0.8039 -1.4939 -0.7962
 2338SOL     OW15681   1.699   2.947   1.363  0.4624 -0.0369 -0.5637
 2338SOL    HW115682   1.671   2.917   1.455 -0.7238 -1.0583 -1.2291
 2338SOL    HW215683   1.758   2.877   1.323 -0.1245 -0.2381 -1.0866
 2339SOL     OW15684   0.081   2.397   0.595  0.7232 -0.0834 -0.4373
 2339SOL    HW115685   0.063   2.353   0.683 -2.0663  1.9145  0.0603
 2339SOL    HW215686   0.158   2.352   0.550  1.6633 -1.6643  2.6414
 2340SOL     OW15687   0.491   0.701   0.937 -0.1471 -0.0828 -0.2877
 2340SOL    HW115688   0.417   0.637   0.916 -0.4459  0.0277  0.4200
 2340SOL    HW215689   0.455   0.794   0.940  0.0243 -0.0263  0.0309
 2341SOL     OW15690   8.560   7.325   2.344 -0.1753  0.2226  0.1803
 2341SOL    HW115691   8.472   7.319   2.298  0.4463 -2.9824 -0.7291
 2341SOL    HW215692   8.560   7.268   2.426  1.2757 -0.3886 -0.2203
 2342SOL     OW15693   9.123   0.746   2.169 -0.0153 -0.0879 -0.3967
 2342SOL    HW115694   9.130   0.673   2.238  0.0151  0.1002 -0.1991
 2342SOL    HW215695   9.187   0.819   2.193  0.3199 -0.2241 -0.8728
 2343SOL     OW15696   1.274   0.548   0.802 -0.2673  0.6268 -0.1992
 2343SOL    HW115697   1.316   0.607   0.733 -0.9659  0.6122 -0.6337
 2343SOL    HW215698   1.325   0.557   0.888  1.3714 -0.2995 -1.0458
 2345SOL     OW15699   9.711   6.620   0.416 -0.1107 -0.5751  0.5047
 2345SOL    HW115700   9.627   6.665   0.386  0.1246 -0.5625 -0.1467
 2345SOL    HW215701   9.689   6.528   0.450 -0.2269 -1.0810 -0.9158
 2346SOL     OW15702   9.098   9.073   1.823  0.2238 -0.5300 -0.1941
 2346SOL    HW115703   9.143   9.045   1.908 -0.5363  0.1551  0.4530
 2346SOL    HW215704   9.008   9.111   1.845 -0.2001 -0.8371 -1.3616
 2349SOL     OW15705   2.855   4.010   1.504  0.5118 -0.0319  0.3709
 2349SOL    HW115706   2.902   4.015   1.416 -0.6147  0.8629 -0.2054
 2349SOL    HW215707   2.781   3.943   1.499  0.6249 -0.1809  0.7156
 2350SOL     OW15708   0.499   4.709   1.562  0.3861  0.1288 -0.0017
 2350SOL    HW115709   0.534   4.780   1.623  1.5052 -1.9053  1.8102
 2350SOL    HW215710   0.548   4.624   1.579 -0.9465 -1.0981 -2.1072
 2351SOL     OW15711   0.812   6.036   0.517  0.0079 -0.0577 -0.1738
 2351SOL    HW115712   0.753   6.113   0.492 -3.5871 -2.0684  1.7891
 2351SOL    HW215713   0.830   5.980   0.436 -1.0069  0.4067 -0.7212
 2352SOL     OW15714   4.438   2.183   1.250 -0.3018  0.5972 -0.3291
 2352SOL    HW115715   4.401   2.111   1.192  0.5892  0.2626 -0.4887
 2352SOL    HW215716   4.456   2.147   1.342  3.3225 -0.3224 -1.3294
 2353SOL     OW15717   0.814   6.777   0.643  0.9812  0.2939 -0.3971
 2353SOL    HW115718   0.830   6.818   0.732 -3.1752 -0.9454  1.0585
 2353SOL    HW215719   0.798   6.849   0.575  1.4954  1.1999  0.4463
 2354SOL     OW15720   9.089   6.995   1.887 -0.3262 -0.6123  0.0613
 2354SOL    HW115721   9.186   6.999   1.866 -0.4056 -0.7968 -0.3533
 2354SOL    HW215722   9.043   7.074   1.844 -0.6874 -1.6734 -1.5502
 2355SOL     OW15723   9.410   9.140   1.075  0.4235 -0.4232  0.2346
 2355SOL    HW115724   9.349   9.123   1.151  0.3420 -1.2690 -0.0191
 2355SOL    HW215725   9.452   9.230   1.085  0.4885 -0.5786  1.3207
 2357SOL     OW15726   8.960   7.621   1.100  0.5027  0.1048 -0.2251
 2357SOL    HW115727   8.991   7.608   1.194 -2.6939  3.1494  1.3451
 2357SOL    HW215728   9.002   7.703   1.062 -1.6986  1.4489  0.1826
 2358SOL     OW15729   1.212   4.112   1.411  0.5013  0.0489 -0.1544
 2358SOL    HW115730   1.259   4.111   1.499 -0.2513 -1.1275  0.2421
 2358SOL    HW215731   1.256   4.179   1.351  0.2399  1.7657  1.5217
 2361SOL     OW15732   8.530   9.667   1.721 -0.2943  0.3401 -0.3695
 2361SOL    HW115733   8.565   9.586   1.673 -0.6930  0.3455 -0.6659
 2361SOL    HW215734   8.452   9.704   1.672 -1.5582 -0.4472  0.9988
 2362SOL     OW15735   1.396   6.263   0.954  0.1656  0.3799  0.4233
 2362SOL    HW115736   1.390   6.167   0.925  0.8660  0.0184  1.4260
 2362SOL    HW215737   1.308   6.292   0.990 -0.1299  0.2001 -0.1489
 2364SOL     OW15738   9.742   2.164   0.885  0.0245  0.2221  0.0883
 2364SOL    HW115739   9.796   2.137   0.965  0.3106  0.0820 -0.1539
 2364SOL    HW215740   9.645   2.154   0.907  0.1276 -2.5427 -0.5150
 2365SOL     OW15741   1.358   1.570   0.637  0.4313 -0.1038  0.2145
 2365SOL    HW115742   1.404   1.515   0.567 -1.4636  1.1393 -2.0552
 2365SOL    HW215743   1.417   1.646   0.663  0.6854  0.0778 -0.8703
 2366SOL     OW15744   2.729   6.408   1.908 -0.1822 -0.7943  0.0162
 2366SOL    HW115745   2.754   6.444   1.818  0.5937 -0.2000  0.4708
 2366SOL    HW215746   2.635   6.372   1.904 -0.4872  0.0720 -0.7726
 2368SOL     OW15747   8.995   0.645   1.161  0.5806  0.2277  0.6791
 2368SOL    HW115748   8.981   0.738   1.196  0.6714 -0.0920  1.5742
 2368SOL    HW215749   8.918   0.619   1.103  0.0066  0.4395  1.3412
 2369SOL     OW15750   8.005   0.088   0.541  0.1265 -0.2671  0.5793
 2369SOL    HW115751   7.906   0.097   0.550 -0.0677 -0.7166 -1.0261
 2369SOL    HW215752   8.039   0.151   0.471  0.5607 -2.2255 -1.0102
 2370SOL     OW15753   0.875   5.459   0.785  0.1696 -0.1994 -0.3935
 2370SOL    HW115754   0.829   5.509   0.858 -0.5269 -1.9307  0.3867
 2370SOL    HW215755   0.808   5.436   0.713  0.5596  0.3214 -0.9237
 2371SOL     OW15756   1.203   7.882   1.376 -0.4526 -0.1608  0.0981
 2371SOL    HW115757   1.291   7.919   1.346  0.2108 -0.4464  1.6424
 2371SOL    HW215758   1.136   7.894   1.303  0.7457  0.4671 -0.9350
 2373SOL     OW15759   3.781   3.406   2.338  0.1649  0.0384  0.1069
 2373SOL    HW115760   3.801   3.504   2.331 -1.4834  0.3786 -0.0732
 2373SOL    HW215761   3.803   3.361   2.252  1.7242  0.0894  0.4680
 2374SOL     OW15762   2.072   5.377   2.100  0.2854 -0.6699 -0.2194
 2374SOL    HW115763   2.095   5.338   2.011 -0.2265  1.2300 -1.2083
 2374SOL    HW215764   2.150   5.431   2.134 -0.1219 -0.0327 -0.2905
 2375SOL     OW15765   2.108   1.261   2.049 -0.0695  0.2826 -0.2832
 2375SOL    HW115766   2.150   1.341   2.007 -2.1422  1.3319 -0.4308
 2375SOL    HW215767   2.117   1.183   1.988 -0.1158  0.9844 -1.2014
 2376SOL     OW15768   9.905   6.275   2.050  0.3033  0.4126  0.3380
 2376SOL    HW115769   9.942   6.360   2.013  2.4549 -0.6908 -0.0789
 2376SOL    HW215770   9.968   6.236   2.117 -0.4688 -1.0854  0.2292
 2377SOL     OW15771   1.423   0.719   1.297  0.0793  0.4143 -0.1120
 2377SOL    HW115772   1.387   0.664   1.372  0.6885 -1.0275 -0.8595
 2377SOL    HW215773   1.348   0.765   1.250 -0.7030 -1.7147 -0.9993
 2378SOL     OW15774   9.028   8.847   1.162  0.2605  0.0552  0.3224
 2378SOL    HW115775   9.026   8.946   1.177 -3.6612  0.0935  0.1307
 2378SOL    HW215776   9.108   8.808   1.207  0.7366  3.0603  2.2079
 2379SOL     OW15777   3.092   8.776   1.581  0.0680 -0.4397  0.1564
 2379SOL    HW115778   3.144   8.839   1.524  0.2649 -1.2580 -0.5813
 2379SOL    HW215779   3.066   8.821   1.666  0.4879  0.5259 -0.2257
 2380SOL     OW15780   9.457   9.215   1.719  0.4727 -0.1889  0.9140
 2380SOL    HW115781   9.361   9.241   1.730  0.3366 -0.0337 -0.6342
 2380SOL    HW215782   9.503   9.221   1.808 -0.3256  2.1562  1.2024
 2381SOL     OW15783   0.238   9.602   1.107 -0.3942  0.2645 -0.1311
 2381SOL    HW115784   0.205   9.674   1.169  1.3645  1.2805 -0.3430
 2381SOL    HW215785   0.181   9.600   1.025 -1.0791  0.7279  0.3254
 2382SOL     OW15786   2.861   4.688   1.000 -0.1182  0.4136 -0.4523
 2382SOL    HW115787   2.827   4.672   1.092  0.0253 -0.6619 -0.5785
 2382SOL    HW215788   2.838   4.610   0.942  1.0760  0.4175 -0.9539
 2383SOL     OW15789   0.004   3.391   0.343 -0.6965 -0.6902  0.0337
 2383SOL    HW115790  -0.067   3.460   0.355  0.9337  0.8594  0.8969
 2383SOL    HW215791   0.050   3.406   0.256  1.3926  0.9691  1.3754
 2384SOL     OW15792   1.262   5.437   1.538  0.3018  0.0999 -0.5504
 2384SOL    HW115793   1.266   5.392   1.627  0.3674  0.7052 -0.2468
 2384SOL    HW215794   1.174   5.416   1.494 -0.1395  0.6012  0.0800
 2385SOL     OW15795   1.222   5.377   1.090 -0.0165  0.4350 -0.4532
 2385SOL    HW115796   1.256   5.420   1.006 -0.5094  0.9434 -0.3935
 2385SOL    HW215797   1.283   5.398   1.166 -0.0365  0.6965 -0.5084
 2386SOL     OW15798   8.913   7.682   0.642  0.6461 -0.2413  0.2394
 2386SOL    HW115799   8.852   7.654   0.717  1.1574 -0.3751  0.6035
 2386SOL    HW215800   9.008   7.673   0.671  0.8806 -1.7066 -0.9253
 2388SOL     OW15801   9.457   8.443   0.927  0.2256 -0.0017  0.1384
 2388SOL    HW115802   9.502   8.431   0.838 -0.7630 -0.9646 -0.2408
 2388SOL    HW215803   9.427   8.355   0.962  1.2248  0.2812  1.7793
 2391SOL     OW15804   3.181   5.389   1.118 -0.0560  0.4652 -0.4845
 2391SOL    HW115805   3.170   5.330   1.198 -0.1345 -0.9849 -1.5517
 2391SOL    HW215806   3.263   5.445   1.130 -1.1704  1.7544  1.5136
 2392SOL     OW15807   4.761   3.746   1.467 -0.0913 -0.5397 -0.1616
 2392SOL    HW115808   4.759   3.832   1.417  0.4718 -1.3540 -1.6119
 2392SOL    HW215809   4.713   3.757   1.555 -2.7486  0.3922 -1.6653
 2393SOL     OW15810   1.787   0.573   2.109  0.0073  0.7214 -0.1817
 2393SOL    HW115811   1.716   0.506   2.089  0.4223  0.4981 -0.9117
 2393SOL    HW215812   1.766   0.619   2.196  0.0257 -0.7480  0.6120
 2394SOL     OW15813   0.445   2.322   2.321 -0.4933  0.1104 -0.0295
 2394SOL    HW115814   0.502   2.240   2.316 -0.7467  0.0068 -1.3576
 2394SOL    HW215815   0.386   2.316   2.401  1.0954  0.0591  1.1853
 2395SOL     OW15816   3.157   7.950   0.351  0.0252 -0.4379 -0.1367
 2395SOL    HW115817   3.074   7.959   0.297  1.1632  1.6316 -1.5767
 2395SOL    HW215818   3.166   8.029   0.412  0.6289 -0.9728  0.4793
 2396SOL     OW15819   1.882   0.141   2.182  0.2125 -0.2790 -0.0326
 2396SOL    HW115820   1.896   0.042   2.184 -2.0592 -0.5831  2.1721
 2396SOL    HW215821   1.789   0.163   2.211  1.0357  2.5746  0.6367
 2398SOL     OW15822   4.145   0.461   2.190 -0.5612 -0.2992  0.3219
 2398SOL    HW115823   4.074   0.530   2.173 -0.9412 -0.8517 -0.3240
 2398SOL    HW215824   4.157   0.405   2.109  1.1611  0.2709  0.1606
 2399SOL     OW15825   3.947   0.868   0.818 -0.3029  0.1153 -0.5839
 2399SOL    HW115826   3.920   0.899   0.909  1.1835 -2.2889  0.7414
 2399SOL    HW215827   4.016   0.929   0.781  1.4442 -0.6199  1.3223
 2400SOL     OW15828   0.826   7.964   1.664  0.2432 -0.1230  0.2182
 2400SOL    HW115829   0.752   8.004   1.718  0.4818 -0.3025  0.6795
 2400SOL    HW215830   0.787   7.910   1.589 -0.1002  1.8809 -1.1174
 2401SOL     OW15831   3.736   3.365   1.928 -0.3773 -0.4307  1.0522
 2401SOL    HW115832   3.736   3.465   1.918 -0.4154 -0.6212 -1.1932
 2401SOL    HW215833   3.644   3.333   1.950 -0.7370 -0.1095  0.0373
 2402SOL     OW15834   2.796   4.125   2.266 -0.1879 -0.1943  0.0340
 2402SOL    HW115835   2.853   4.061   2.215 -0.8779 -1.6363  1.0413
 2402SOL    HW215836   2.834   4.137   2.358 -0.5808  0.1472  0.1546
 2403SOL     OW15837   2.145   2.196   1.203  0.4183  1.1676 -0.2035
 2403SOL    HW115838   2.092   2.161   1.280  2.0694 -1.6898 -0.2875
 2403SOL    HW215839   2.087   2.201   1.122  0.1440 -1.5124 -0.1970
 2405SOL     OW15840   2.660   7.532   1.856  0.2145 -0.2326  0.5148
 2405SOL    HW115841   2.676   7.437   1.884  1.1417 -0.2813 -0.1730
 2405SOL    HW215842   2.679   7.593   1.933  0.3603 -0.5511  0.7312
 2406SOL     OW15843   7.843   9.445   0.390  0.6268 -0.2824 -0.0085
 2406SOL    HW115844   7.841   9.392   0.475 -1.1621 -0.5719 -0.2016
 2406SOL    HW215845   7.776   9.519   0.395 -0.4293 -1.0989 -1.6581
 2407SOL     OW15846   4.353   2.629   1.646 -0.4235 -0.3266  0.3121
 2407SOL    HW115847   4.325   2.657   1.737  0.3115 -2.4062  1.2142
 2407SOL    HW215848   4.435   2.571   1.652 -1.0686 -1.4889 -1.5394
 2408SOL     OW15849   9.901   9.719   1.069  0.5147 -0.3208  0.3906
 2408SOL    HW115850   9.804   9.727   1.092  0.4591 -1.4545  0.5655
 2408SOL    HW215851   9.954   9.705   1.153  0.6803 -1.0480  0.1701
 2409SOL     OW15852   9.325   5.209   0.364 -0.2206 -0.0150  0.0471
 2409SOL    HW115853   9.411   5.197   0.313 -0.8557 -1.0978 -0.7935
 2409SOL    HW215854   9.330   5.293   0.418  0.6751  0.8684 -1.3876
 2410SOL     OW15855   0.663   9.187   1.340 -0.5214 -0.2334  0.4637
 2410SOL    HW115856   0.582   9.243   1.352 -0.5465 -0.1369 -0.1873
 2410SOL    HW215857   0.637   9.096   1.307 -0.5926 -1.0298  2.6120
 2411SOL     OW15858   3.060   3.144   0.332  0.2479  0.2552  0.6422
 2411SOL    HW115859   3.026   3.073   0.394 -0.2450  0.5708  0.7316
 2411SOL    HW215860   3.143   3.184   0.369  0.6980 -0.4860  0.4458
 2414SOL     OW15861   4.368   2.868   1.522  0.3899 -0.1428 -0.3570
 2414SOL    HW115862   4.292   2.893   1.463 -0.3438  0.2075  0.7243
 2414SOL    HW215863   4.356   2.773   1.553 -0.0465  0.1896  0.4910
 2417SOL     OW15864   1.465   1.847   1.383  0.1603 -0.2253 -0.3107
 2417SOL    HW115865   1.427   1.755   1.376 -0.8795  0.1340  0.3678
 2417SOL    HW215866   1.422   1.906   1.314 -1.2399  0.4122  1.0747
 2418SOL     OW15867   0.884   5.839   1.391 -0.1435  0.0159  0.0603
 2418SOL    HW115868   0.859   5.746   1.418  0.1876 -0.2142 -0.4125
 2418SOL    HW215869   0.966   5.836   1.333 -1.2134  0.4574 -1.4918
 2419SOL     OW15870   0.717   6.614   2.204 -0.3156 -0.2051  0.0975
 2419SOL    HW115871   0.812   6.594   2.229 -0.0147  0.9115 -0.1271
 2419SOL    HW215872   0.687   6.698   2.251 -1.1150 -0.4166 -0.0251
 2420SOL     OW15873   1.751   5.817   1.266  0.1156  0.1108 -0.0763
 2420SOL    HW115874   1.653   5.800   1.262  0.0706  0.5448 -0.9517
 2420SOL    HW215875   1.792   5.763   1.339 -0.7340 -0.2786  0.1077
 2421SOL     OW15876   0.128   1.283   1.921  0.3730 -0.2788  0.0371
 2421SOL    HW115877   0.198   1.303   1.989  0.1325  0.8471 -0.0481
 2421SOL    HW215878   0.098   1.367   1.877 -0.6023 -0.8211 -0.3618
 2422SOL     OW15879   9.901   9.130   0.445 -0.1403  0.4383  0.3230
 2422SOL    HW115880   9.960   9.201   0.409 -0.4765  0.6836  0.2562
 2422SOL    HW215881   9.921   9.115   0.542 -0.5433  1.1036  0.5106
 2423SOL     OW15882   1.848   0.321   0.990 -0.1602 -0.3705  1.1855
 2423SOL    HW115883   1.875   0.340   0.896 -1.0809 -1.1398  0.7577
 2423SOL    HW215884   1.865   0.402   1.047 -0.8203  0.5562  0.0873
 2424SOL     OW15885   9.371   6.165   1.868 -0.3951  0.0210  0.0887
 2424SOL    HW115886   9.286   6.142   1.915 -0.1473 -0.2698  0.4014
 2424SOL    HW215887   9.417   6.240   1.917  0.0864 -0.5830  0.5826
 2425SOL     OW15888   2.911   1.275   0.960 -0.5521 -0.6233  0.5126
 2425SOL    HW115889   2.963   1.238   1.038 -1.2983 -1.8880  0.4225
 2425SOL    HW215890   2.815   1.248   0.969 -0.5726 -1.0635 -1.0392
 2427SOL     OW15891   3.831   8.120   0.772  0.1606 -0.2940 -0.1651
 2427SOL    HW115892   3.748   8.155   0.730  0.5359  1.0469  0.1918
 2427SOL    HW215893   3.808   8.049   0.839 -0.6100 -0.6626 -0.8210
 2428SOL     OW15894   4.692   3.640   0.980 -0.2318  0.2989 -0.2553
 2428SOL    HW115895   4.704   3.738   0.965  1.5109  0.0763 -0.4366
 2428SOL    HW215896   4.700   3.592   0.892  0.9301 -0.1794  0.1052
 2429SOL     OW15897   3.439   8.612   1.094 -0.3081 -0.0657 -0.5251
 2429SOL    HW115898   3.512   8.557   1.135 -0.0995 -0.9601 -2.0810
 2429SOL    HW215899   3.479   8.692   1.050 -0.3204 -0.2965 -0.9524
 2430SOL     OW15900   0.796   3.416   2.116 -0.2646 -0.1057 -0.0712
 2430SOL    HW115901   0.873   3.473   2.088  2.2946 -2.9798  0.7954
 2430SOL    HW215902   0.796   3.407   2.216 -0.7485 -1.4191 -0.1793
 2431SOL     OW15903   0.977   2.181   0.484  0.0884 -1.0246 -0.4595
 2431SOL    HW115904   0.898   2.242   0.479  0.7441  0.0086  1.2613
 2431SOL    HW215905   1.061   2.235   0.487  0.6375 -1.9532  2.0020
 2432SOL     OW15906   8.799   9.809   0.960 -0.1502 -0.2333 -0.0387
 2432SOL    HW115907   8.856   9.811   0.878  1.6696  1.2765  1.2010
 2432SOL    HW215908   8.737   9.888   0.959 -1.0144 -0.9059 -0.5394
 2433SOL     OW15909  -0.024   1.765   1.951  0.0130 -0.1164  0.6088
 2433SOL    HW115910   0.037   1.843   1.957  0.0452 -0.0402 -0.6012
 2433SOL    HW215911  -0.095   1.772   2.021 -1.3813  2.2109 -0.9830
 2434SOL     OW15912   1.363   9.386   1.603 -0.4032 -0.1083 -0.3440
 2434SOL    HW115913   1.452   9.341   1.606 -0.4798 -0.2551 -0.3041
 2434SOL    HW215914   1.301   9.335   1.544  0.2975  1.3275 -2.4005
 2435SOL     OW15915   8.553   1.818   1.536 -0.5331  0.1590  0.1108
 2435SOL    HW115916   8.653   1.819   1.534 -0.5533  0.5636 -1.0703
 2435SOL    HW215917   8.522   1.804   1.630  0.6309  0.5533  0.5674
 2438SOL     OW15918   2.433   6.532   2.323  0.2217  0.1845 -0.8438
 2438SOL    HW115919   2.484   6.467   2.267 -1.6647 -0.2509 -2.1245
 2438SOL    HW215920   2.335   6.524   2.302 -0.2593  1.8688  0.6228
 2439SOL     OW15921   0.022   0.815   2.211  0.8024  0.3481 -0.5185
 2439SOL    HW115922   0.118   0.793   2.233  0.1948 -1.6849  0.1861
 2439SOL    HW215923   0.008   0.807   2.113  1.4617  1.1288 -0.6882
 2440SOL     OW15924   0.592   3.125   0.886  0.2291 -0.1606  0.1586
 2440SOL    HW115925   0.505   3.172   0.904  0.9597  0.7420  1.4363
 2440SOL    HW215926   0.574   3.036   0.843 -1.3179 -0.0101  0.4663
 2441SOL     OW15927   1.353   8.942   1.378 -0.4615  0.5432 -0.3389
 2441SOL    HW115928   1.319   8.871   1.440 -0.1983 -1.6020 -2.6007
 2441SOL    HW215929   1.307   8.934   1.290  1.6132  1.3874 -1.5233
 2442SOL     OW15930   3.156   8.547   1.338  0.4340  0.4984  0.7842
 2442SOL    HW115931   3.109   8.635   1.330  0.2905  0.1997 -2.1954
 2442SOL    HW215932   3.100   8.485   1.392 -0.0153  1.8484  1.9085
 2443SOL     OW15933   8.396   1.177   1.935 -0.1118  0.3450 -0.3502
 2443SOL    HW115934   8.326   1.243   1.907 -0.2032 -0.2492 -1.5219
 2443SOL    HW215935   8.352   1.093   1.967  0.0420  0.2012 -0.5138
 2444SOL     OW15936   3.094   0.832   0.706 -0.1224  0.0969  0.2492
 2444SOL    HW115937   3.029   0.906   0.687  1.2418  1.2198 -0.1772
 2444SOL    HW215938   3.045   0.750   0.734 -1.7582  0.6314 -1.0307
 2446SOL     OW15939   2.257   0.174   0.369  0.2951  0.9224 -0.0455
 2446SOL    HW115940   2.276   0.082   0.334  1.1079  1.2331 -0.4321
 2446SOL    HW215941   2.158   0.187   0.376  0.1692  0.1015 -0.2069
 2450SOL     OW15942   0.287   0.988   2.128 -0.3547  0.2265  0.3367
 2450SOL    HW115943   0.379   0.951   2.139 -0.8394 -0.9460  0.4635
 2450SOL    HW215944   0.270   1.056   2.199 -0.2382 -0.8683  1.4257
 2451SOL     OW15945   0.564   9.818   0.627 -0.2394  0.5635 -0.6495
 2451SOL    HW115946   0.566   9.892   0.694 -0.5070 -0.1968  0.2184
 2451SOL    HW215947   0.561   9.730   0.675  0.3054 -0.0183 -1.6658
 2452SOL     OW15948   3.994   0.300   0.975 -0.1543  0.2970 -0.2319
 2452SOL    HW115949   3.917   0.340   1.025  0.0537  1.2470 -0.6667
 2452SOL    HW215950   4.004   0.204   1.001 -1.7419  0.0511 -0.4726
 2453SOL     OW15951   0.438   8.856   0.317  0.6871 -0.0261  0.3579
 2453SOL    HW115952   0.404   8.776   0.367  1.3744  0.5761  1.8184
 2453SOL    HW215953   0.366   8.925   0.312  0.4842 -0.2509  0.1542
 2454SOL     OW15954   9.186   0.143   0.814 -0.1717 -0.6828 -0.8351
 2454SOL    HW115955   9.210   0.175   0.723 -1.6765  0.2570 -0.9322
 2454SOL    HW215956   9.090   0.167   0.833  0.6943  1.0153  1.7774
 2457SOL     OW15957   2.211   1.275   1.122 -0.2911  0.0029 -0.4617
 2457SOL    HW115958   2.210   1.176   1.111  0.4704  0.1854 -2.3115
 2457SOL    HW215959   2.130   1.304   1.173 -1.0906 -1.4647 -0.8820
 2458SOL     OW15960   0.868   6.286   0.816 -0.0059 -0.0756 -0.5940
 2458SOL    HW115961   0.949   6.332   0.780  0.9006  0.9176  2.5522
 2458SOL    HW215962   0.790   6.348   0.815  0.7528  0.9419  1.8937
 2459SOL     OW15963   1.672   5.269   2.165  0.0747  0.5579  0.0933
 2459SOL    HW115964   1.615   5.268   2.083 -1.2639 -1.7589  1.0268
 2459SOL    HW215965   1.759   5.223   2.146 -0.1676  0.1648 -0.0686
 2461SOL     OW15966   2.227   0.000   1.276 -0.6872 -0.0801  0.1845
 2461SOL    HW115967   2.228  -0.081   1.218  0.2388  0.6167 -0.8115
 2461SOL    HW215968   2.311   0.005   1.329 -1.9705 -1.2429  2.3749
 2462SOL     OW15969   7.864   1.072   1.319 -0.8340  0.7413 -0.7449
 2462SOL    HW115970   7.813   1.103   1.239 -0.2738  2.1764 -0.5692
 2462SOL    HW215971   7.927   1.144   1.348 -0.8361  0.1434  0.8161
 2463SOL     OW15972   2.221  -0.001   1.659  0.2755  0.3077  0.1909
 2463SOL    HW115973   2.129  -0.002   1.698 -0.3397  0.1675 -1.2272
 2463SOL    HW215974   2.223   0.059   1.579  0.8845 -1.2934 -1.0270
 2464SOL     OW15975   4.203   9.366   1.223 -0.2684 -0.1385 -0.1893
 2464SOL    HW115976   4.161   9.357   1.133 -1.3894  0.0956  0.2908
 2464SOL    HW215977   4.154   9.309   1.289  0.5876 -0.3692  0.2588
 2465SOL     OW15978   9.726   0.490   0.889  0.5329  0.0305 -0.0079
 2465SOL    HW115979   9.668   0.510   0.810  1.6536 -0.8815 -1.0675
 2465SOL    HW215980   9.676   0.431   0.952 -0.2053  0.4076 -0.2328
 2466SOL     OW15981   4.683   4.067   1.630 -0.6564  0.5782  0.2344
 2466SOL    HW115982   4.599   4.106   1.669 -3.1443 -4.4622  0.4922
 2466SOL    HW215983   4.741   4.033   1.704 -0.8231 -0.3891 -0.0607
 2468SOL     OW15984   1.252   9.231   1.402  0.4815  0.4632 -0.6101
 2468SOL    HW115985   1.155   9.226   1.423  0.4936  1.1311 -0.3948
 2468SOL    HW215986   1.291   9.139   1.402 -0.0030  0.2618 -0.0124
 2469SOL     OW15987   0.661   4.566   1.254  0.0577 -0.2093  0.1508
 2469SOL    HW115988   0.590   4.501   1.226  0.2450 -0.2819 -0.1613
 2469SOL    HW215989   0.661   4.575   1.354  0.8250 -1.5976  0.2830
 2470SOL     OW15990   2.129   0.650   0.832 -0.3370  0.2388  0.2335
 2470SOL    HW115991   2.046   0.677   0.783  1.9344  0.5655 -3.6125
 2470SOL    HW215992   2.181   0.731   0.857  0.4786 -0.1052 -0.3544
 2471SOL     OW15993   0.107   6.261   2.261  0.1417 -0.3315 -0.0185
 2471SOL    HW115994   0.078   6.310   2.344  2.1011 -2.1233  1.7978
 2471SOL    HW215995   0.072   6.167   2.265  0.4602 -0.4918 -1.1066
 2472SOL     OW15996   2.418   1.700   1.046  0.5259 -0.5261  0.0153
 2472SOL    HW115997   2.422   1.755   0.962 -0.1443 -1.5136 -0.6738
 2472SOL    HW215998   2.397   1.759   1.124  0.3662  0.2823 -0.6376
 2473SOL     OW15999   0.481   1.600   1.318  0.5463 -0.3790 -0.2685
 2473SOL    HW116000   0.432   1.618   1.403 -1.5770  0.8462 -1.7227
 2473SOL    HW216001   0.564   1.547   1.338  0.5167  0.5828  2.6506
 2474SOL     OW16002   9.416   6.751   2.076 -0.0551  0.3472 -0.2472
 2474SOL    HW116003   9.508   6.750   2.116 -1.2226  0.3001  2.5692
 2474SOL    HW216004   9.415   6.810   1.996  2.1813  1.1515  0.2733
 2475SOL     OW16005   0.927  -0.021   0.375 -0.3853 -0.2552  0.1515
 2475SOL    HW116006   0.885  -0.094   0.321  0.6208 -1.0760  0.4820
 2475SOL    HW216007   0.979  -0.060   0.451 -0.0127  0.8119  0.4604
 2476SOL     OW16008   9.892   3.017   1.345 -0.1579 -0.3700  0.2705
 2476SOL    HW116009   9.826   3.062   1.285 -0.6820 -1.4478  0.0377
 2476SOL    HW216010   9.847   2.989   1.430  0.6450  1.4061  1.3039
 2477SOL     OW16011   9.094   4.490   1.222  0.5399 -0.4495 -0.0157
 2477SOL    HW116012   9.059   4.571   1.270  0.4127  0.1194 -1.0388
 2477SOL    HW216013   9.120   4.420   1.288 -0.8047 -0.1704  0.8380
 2479SOL     OW16014   1.967   0.902   1.591  0.0762  0.2171  0.2334
 2479SOL    HW116015   1.946   0.877   1.496 -1.8825 -1.9366  1.1648
 2479SOL    HW216016   1.891   0.955   1.629  0.2452 -0.0933  1.0107
 2480SOL     OW16017   3.383   9.839   0.608  0.3197 -0.0778  0.6178
 2480SOL    HW116018   3.284   9.849   0.622  0.1301 -0.5309 -0.4055
 2480SOL    HW216019   3.408   9.743   0.616  0.6167 -0.0152  0.4452
 2481SOL     OW16020   0.346   5.693   1.133 -0.4748 -0.4433 -0.5091
 2481SOL    HW116021   0.325   5.791   1.139 -1.3097 -0.6606  0.3672
 2481SOL    HW216022   0.348   5.665   1.038 -1.2714  0.2233 -0.7307
 2482SOL     OW16023   0.819   1.063   1.326 -0.1202 -0.8113 -0.2693
 2482SOL    HW116024   0.844   1.141   1.269 -1.4915 -0.7252 -0.7446
 2482SOL    HW216025   0.861   1.075   1.417 -0.1671  0.3802 -0.3919
 2483SOL     OW16026   8.451   0.685   0.923  0.1959  0.2539 -0.3475
 2483SOL    HW116027   8.393   0.764   0.902  2.4684  2.0115 -0.2359
 2483SOL    HW216028   8.484   0.644   0.839  0.9149  0.8835 -0.3748
 2484SOL     OW16029   0.940   6.823   1.284 -0.1342  0.3387 -0.0757
 2484SOL    HW116030   0.977   6.837   1.192 -1.9996 -0.2809 -0.9346
 2484SOL    HW216031   0.840   6.827   1.281 -0.2320 -0.2562  1.8366
 2485SOL     OW16032   9.304   4.261   0.893  0.3651 -0.5003 -0.2076
 2485SOL    HW116033   9.301   4.161   0.884  2.3504 -0.8752  2.6102
 2485SOL    HW216034   9.220   4.292   0.938  0.9504 -1.2177  1.3967
 2486SOL     OW16035   0.929   3.963   0.577 -0.2376 -0.2078 -0.2068
 2486SOL    HW116036   1.019   3.934   0.544  0.2750 -0.9298  1.7744
 2486SOL    HW216037   0.939   4.033   0.647 -1.1779 -0.6423  0.3898
 2487SOL     OW16038   4.240   9.131   2.086 -0.1715  0.6067  0.5790
 2487SOL    HW116039   4.183   9.049   2.079  1.6734 -0.6381 -0.2915
 2487SOL    HW216040   4.225   9.188   2.006  2.6168 -1.6146 -1.6253
 2488SOL     OW16041   8.470   9.863   0.325 -0.0434 -0.1445 -0.2667
 2488SOL    HW116042   8.455   9.800   0.248  1.4428  0.5238 -1.1209
 2488SOL    HW216043   8.526   9.818   0.394 -2.7625 -1.3382  1.2311
 2489SOL     OW16044   2.698   7.407   0.505 -0.5833  0.5375  0.2697
 2489SOL    HW116045   2.698   7.326   0.564 -0.2104  0.6255  0.3930
 2489SOL    HW216046   2.653   7.483   0.552 -1.8157  0.1237 -0.2344
 2490SOL     OW16047   0.229   7.021   0.963  0.3735  0.2397 -0.5611
 2490SOL    HW116048   0.207   6.966   0.883  2.7264 -1.4821 -0.0495
 2490SOL    HW216049   0.328   7.038   0.966  0.3226  0.2229  2.0119
 2491SOL     OW16050   0.527   4.143   0.502  0.6854  0.7231 -0.1192
 2491SOL    HW116051   0.540   4.158   0.404 -2.5873  0.5480 -0.6229
 2491SOL    HW216052   0.452   4.199   0.535  2.1339  1.2207  2.4591
 2492SOL     OW16053   2.600   5.109   1.217 -0.0354  0.2517  0.2179
 2492SOL    HW116054   2.700   5.120   1.222  0.1397 -1.2062  0.0489
 2492SOL    HW216055   2.559   5.193   1.183  1.1836  0.6863 -0.2050
 2493SOL     OW16056   2.270   8.730   1.515 -0.2120  0.5946  0.5599
 2493SOL    HW116057   2.251   8.700   1.422  1.6373  0.6122  0.1455
 2493SOL    HW216058   2.189   8.718   1.572 -0.3609 -2.6255 -0.2467
 2494SOL     OW16059   9.811   0.373   1.359 -0.5880 -0.0108 -0.4726
 2494SOL    HW116060   9.855   0.455   1.320  0.5956  0.1614  1.1722
 2494SOL    HW216061   9.880   0.301   1.371 -1.6295 -1.2802 -1.9321
 2497SOL     OW16062   9.630   9.473   0.324  0.1764  0.4021  0.2891
 2497SOL    HW116063   9.536   9.460   0.291  0.5195 -0.3693 -0.4029
 2497SOL    HW216064   9.683   9.390   0.306  1.6503  1.7141 -1.5699
 2498SOL     OW16065   9.692   0.728   0.477 -0.1517 -0.0115 -0.5427
 2498SOL    HW116066   9.756   0.762   0.546 -0.1265  0.6797 -0.9026
 2498SOL    HW216067   9.664   0.635   0.500  0.6071 -0.1340 -0.1243
 2500SOL     OW16068   3.776  -0.004   0.901 -0.4590 -0.1003  0.2396
 2500SOL    HW116069   3.873  -0.028   0.903 -0.7817 -1.4350  0.9648
 2500SOL    HW216070   3.762   0.077   0.845  1.2769  1.0381  1.4410
 2501SOL     OW16071   9.781   6.963   1.399  0.0862  0.0591  0.2035
 2501SOL    HW116072   9.822   7.008   1.478  1.3232  0.2961 -0.5543
 2501SOL    HW216073   9.686   6.991   1.391  0.3841  1.2581  0.7064
 2502SOL     OW16074   2.359   9.354   2.231  0.4882 -0.3322  0.0696
 2502SOL    HW116075   2.389   9.450   2.228 -0.2249  0.1491  4.4929
 2502SOL    HW216076   2.263   9.349   2.202  0.4920  0.3387 -0.0789
 2503SOL     OW16077   8.971   0.913   1.219 -0.2257 -0.2039 -0.0781
 2503SOL    HW116078   8.884   0.938   1.261 -0.4967 -2.2091  0.6180
 2503SOL    HW216079   8.968   0.933   1.121 -1.5171 -0.3633 -0.0779
 2504SOL     OW16080   7.794   0.780   1.757 -0.4421 -0.0962  0.2005
 2504SOL    HW116081   7.730   0.704   1.767 -0.5083 -0.0126  0.4100
 2504SOL    HW216082   7.794   0.811   1.662 -0.7231 -0.0897  0.2016
 2506SOL     OW16083   0.606   7.701   2.209  0.4300  0.1916  0.4267
 2506SOL    HW116084   0.586   7.773   2.276  1.2207  0.9469 -0.1305
 2506SOL    HW216085   0.602   7.612   2.254 -2.4751  0.4139  0.7088
 2507SOL     OW16086   9.168   1.874   1.810 -0.3427  0.1889 -0.4314
 2507SOL    HW116087   9.201   1.792   1.856  0.1755  0.2741 -0.6499
 2507SOL    HW216088   9.104   1.922   1.870 -0.0344  0.0486  0.0154
 2508SOL     OW16089   1.033   8.296   1.268  0.2097 -0.0941  0.5974
 2508SOL    HW116090   1.053   8.230   1.195  3.2390 -2.3774  3.3471
 2508SOL    HW216091   0.936   8.294   1.289  0.1246 -3.2550  0.1497
 2509SOL     OW16092   2.754   1.601   2.340 -0.3701  0.2117 -0.0517
 2509SOL    HW116093   2.806   1.524   2.303 -1.0382  0.3248 -1.2536
 2509SOL    HW216094   2.816   1.673   2.368  0.1642  0.0494 -0.7937
 2510SOL     OW16095   0.240   9.317   1.565  0.1668  0.2986 -0.1366
 2510SOL    HW116096   0.322   9.311   1.507 -1.4586  0.0483 -2.4935
 2510SOL    HW216097   0.183   9.235   1.551 -0.5772  0.5596  1.3149
 2511SOL     OW16098   0.624   6.513   0.336  0.1447  0.6033 -0.1427
 2511SOL    HW116099   0.686   6.441   0.305 -2.3981 -1.7655  0.0796
 2511SOL    HW216100   0.629   6.521   0.436 -0.8808 -0.5569  0.0146
 2512SOL     OW16101   0.011   8.132   2.197 -0.0531  0.0591  0.1078
 2512SOL    HW116102  -0.012   8.069   2.271 -0.5849  0.1214 -0.0050
 2512SOL    HW216103  -0.072   8.179   2.165  0.1101 -0.2277 -0.7650
 2513SOL     OW16104   3.513   8.833   0.978 -0.2590 -0.1105  0.0242
 2513SOL    HW116105   3.541   8.903   1.044 -0.1085 -0.0447 -0.1099
 2513SOL    HW216106   3.443   8.870   0.918  1.4960  0.7153 -1.5823
 2514SOL     OW16107   2.948   7.904   0.973  0.3089  0.6123  0.0650
 2514SOL    HW116108   2.850   7.912   0.986  0.2445 -2.0680  1.7377
 2514SOL    HW216109   2.985   7.836   1.036  3.2533  1.5562 -0.5264
 2515SOL     OW16110   3.977   3.471   0.930  0.4644  0.5481 -0.0722
 2515SOL    HW116111   3.995   3.389   0.984 -1.1334  0.2246 -0.0167
 2515SOL    HW216112   3.980   3.552   0.989  1.2510  0.4571  0.0179
 2516SOL     OW16113   9.191   7.752   1.648 -0.8090  0.4265  0.2792
 2516SOL    HW116114   9.096   7.743   1.675 -0.8547  1.2043  0.3682
 2516SOL    HW216115   9.200   7.825   1.580 -0.5994 -1.0133 -1.3057
 2517SOL     OW16116   0.810   2.020   0.354  0.2693  0.2855 -0.8282
 2517SOL    HW116117   0.799   2.069   0.267  0.2980 -0.2833 -1.1546
 2517SOL    HW216118   0.874   2.070   0.413 -0.7818  1.3786 -0.6045
 2518SOL     OW16119   3.684   8.107   2.304  0.6275  0.5630  0.2688
 2518SOL    HW116120   3.631   8.192   2.312 -0.5890 -0.2133  0.4925
 2518SOL    HW216121   3.714   8.078   2.395  1.2273  0.8603  0.1695
 2519SOL     OW16122   2.069   6.407   2.114  0.4340 -0.2330  0.4909
 2519SOL    HW116123   1.973   6.382   2.097 -0.4963  0.6778  4.0235
 2519SOL    HW216124   2.126   6.325   2.105 -0.7927 -0.9882 -0.6771
 2520SOL     OW16125   3.387   0.687   1.006  0.5037  0.0723 -0.4318
 2520SOL    HW116126   3.418   0.738   0.925 -0.5573 -0.7423 -1.3736
 2520SOL    HW216127   3.312   0.736   1.049  0.0166 -0.2811 -0.8707
 2522SOL     OW16128   1.779   5.098   1.794 -0.4818 -0.2441 -0.7365
 2522SOL    HW116129   1.813   5.036   1.723 -2.9493 -2.1381 -0.3640
 2522SOL    HW216130   1.701   5.055   1.840 -1.6841  2.8079  0.1706
 2524SOL     OW16131   8.103   1.095   0.598  0.0391  0.3234  0.1617
 2524SOL    HW116132   8.041   1.017   0.595 -0.3922  0.7396 -2.0023
 2524SOL    HW216133   8.191   1.066   0.636  0.4393 -1.6102 -2.1451
 2525SOL     OW16134   3.767   4.863   1.052  0.4364 -0.0540 -0.1775
 2525SOL    HW116135   3.796   4.949   1.011 -0.8128 -0.1798 -1.3653
 2525SOL    HW216136   3.811   4.787   1.005  1.1636 -0.1017  0.5571
 2526SOL     OW16137   0.112   4.978   1.375  0.5333  0.1894 -0.4664
 2526SOL    HW116138   0.032   5.020   1.333  1.5789  0.7220 -1.9458
 2526SOL    HW216139   0.087   4.887   1.410 -0.7793  0.4725 -0.6288
 2528SOL     OW16140   1.277   2.114   2.046 -0.4461 -0.4510  0.1109
 2528SOL    HW116141   1.311   2.116   1.953  2.0684  0.0670  1.0142
 2528SOL    HW216142   1.224   2.197   2.064  0.9262  0.5042 -0.1846
 2530SOL     OW16143   0.876   2.441   1.886 -0.0055 -0.2400  0.3182
 2530SOL    HW116144   0.903   2.452   1.790 -0.0533  2.2648  0.5698
 2530SOL    HW216145   0.950   2.397   1.937  1.3244  1.3700 -0.1956
 2531SOL     OW16146   1.096   7.750   1.804  0.5329  0.5633 -0.2974
 2531SOL    HW116147   1.169   7.700   1.756  1.2660  0.4250  0.9174
 2531SOL    HW216148   1.072   7.832   1.753  2.1384  1.0510 -0.3095
 2532SOL     OW16149   2.279   6.760   1.576 -0.2488 -0.0541  0.0710
 2532SOL    HW116150   2.180   6.762   1.567 -0.1017  3.0656 -1.2405
 2532SOL    HW216151   2.305   6.787   1.669 -0.5796 -0.6293  0.3366
 2533SOL     OW16152   2.842   5.749   1.239  0.1210 -0.1502 -0.1083
 2533SOL    HW116153   2.811   5.655   1.247  0.3588 -0.0532  2.7025
 2533SOL    HW216154   2.799   5.793   1.161 -1.0623 -2.1734 -0.6181
 2534SOL     OW16155   0.283   7.943   0.623  1.2055 -0.1702  0.0215
 2534SOL    HW116156   0.261   7.854   0.662  0.4496  0.9767  2.2567
 2534SOL    HW216157   0.359   7.984   0.674  0.3472  1.2555  0.1628
 2535SOL     OW16158   0.540   1.734   0.661 -0.1359 -0.0056  0.1348
 2535SOL    HW116159   0.592   1.816   0.636 -0.8715  0.3429 -0.2670
 2535SOL    HW216160   0.602   1.667   0.702  0.4269  0.8564  0.7208
 2538SOL     OW16161   0.284   4.107   1.295  0.1386 -0.5304  0.2215
 2538SOL    HW116162   0.374   4.134   1.330  0.4058 -0.3305 -0.6002
 2538SOL    HW216163   0.265   4.013   1.321  0.8809 -0.7946 -0.1484
 2539SOL     OW16164   0.088   1.312   1.232 -0.1164  0.6756  0.2369
 2539SOL    HW116165   0.000   1.353   1.256  1.1432  3.2216  0.7580
 2539SOL    HW216166   0.150   1.384   1.198  1.2523 -1.3153 -1.6089
 2540SOL     OW16167   2.442   8.934   2.298 -0.5622 -0.4298  1.2479
 2540SOL    HW116168   2.511   8.870   2.264  0.4892  1.1128  0.4187
 2540SOL    HW216169   2.455   8.949   2.396  0.2422 -0.2065  1.1099
 2541SOL     OW16170   4.044   8.845   0.342  0.0133 -0.3167 -0.2862
 2541SOL    HW116171   4.080   8.877   0.429  1.8274  1.5581 -1.6629
 2541SOL    HW216172   4.007   8.923   0.291  0.4350 -1.1026 -1.8275
 2543SOL     OW16173   9.199   5.327   2.096 -0.7209  0.1145  0.2011
 2543SOL    HW116174   9.199   5.411   2.042  0.9148 -1.1607 -1.8811
 2543SOL    HW216175   9.130   5.264   2.060 -2.6971  0.9611  2.4406
 2545SOL     OW16176   2.503   0.070   0.513 -0.3421 -0.0347  0.1275
 2545SOL    HW116177   2.426   0.127   0.484  0.6378  1.3537  0.2583
 2545SOL    HW216178   2.470  -0.023   0.530 -1.4265 -0.2938 -2.9607
 2546SOL     OW16179   8.114   1.397   0.814  0.5502  0.0635  0.1547
 2546SOL    HW116180   8.110   1.457   0.894  3.0412  0.6477 -0.1129
 2546SOL    HW216181   8.087   1.449   0.732  0.4888  0.1762  0.2459
 2547SOL     OW16182   2.756   7.573   1.596  0.0322  0.2369 -0.3734
 2547SOL    HW116183   2.715   7.577   1.687 -0.0767 -0.2880 -0.3948
 2547SOL    HW216184   2.809   7.489   1.587  0.9336  0.8108 -0.4258
 2548SOL     OW16185   3.282   2.527   1.425 -0.2120 -1.0990  0.8892
 2548SOL    HW116186   3.261   2.430   1.439 -0.0623 -1.2239  0.2268
 2548SOL    HW216187   3.201   2.582   1.445  0.1377 -1.2346  2.7951
 2549SOL     OW16188   9.399   4.683   2.304  0.4596  0.4451  0.0641
 2549SOL    HW116189   9.480   4.655   2.355  0.4115  2.4322  1.2786
 2549SOL    HW216190   9.426   4.742   2.228  0.3310 -0.7448 -0.9257
 2551SOL     OW16191   8.755   8.308   1.426 -0.6486 -0.0290  0.5411
 2551SOL    HW116192   8.791   8.248   1.354  0.6009  0.8910  0.3896
 2551SOL    HW216193   8.778   8.403   1.404 -0.9947  0.3316  1.7299
 2552SOL     OW16194   3.840   2.646   0.557 -0.5550  0.2321 -0.0362
 2552SOL    HW116195   3.902   2.665   0.634 -0.8562 -0.4461  0.3805
 2552SOL    HW216196   3.841   2.723   0.494 -1.0038  1.2092  1.1200
 2553SOL     OW16197   9.228   6.184   1.642  0.0207 -0.6761 -0.4138
 2553SOL    HW116198   9.272   6.161   1.728  1.4877  0.2461 -0.8977
 2553SOL    HW216199   9.143   6.233   1.659  1.1383  0.9678  0.4990
 2555SOL     OW16200   7.629   0.274   0.717 -0.0136 -0.0090  0.0207
 2555SOL    HW116201   7.675   0.356   0.682  1.8353 -1.0873 -0.0965
 2555SOL    HW216202   7.631   0.276   0.817 -1.1650  0.7446  0.0383
 2556SOL     OW16203   9.256   0.814   1.638 -0.1515  0.0605 -0.2871
 2556SOL    HW116204   9.300   0.857   1.559 -0.0527  1.5611  0.5713
 2556SOL    HW216205   9.157   0.828   1.632  0.0556  2.2857  1.0772
 2557SOL     OW16206   2.243   0.390   0.809 -0.2678  0.4834  0.2039
 2557SOL    HW116207   2.186   0.463   0.845 -0.0965  0.6828  0.0675
 2557SOL    HW216208   2.301   0.353   0.882 -2.3195 -1.3763  0.9448
 2558SOL     OW16209   0.740   2.170   0.772 -0.1626  0.2106  0.1863
 2558SOL    HW116210   0.715   2.159   0.868  4.0892 -0.7347  1.2949
 2558SOL    HW216211   0.732   2.267   0.747  1.2295  0.9157  2.3066
 2559SOL     OW16212   2.349   8.929   1.908  0.5502 -0.3833  0.7112
 2559SOL    HW116213   2.361   8.977   1.995  0.4378  1.0812 -0.0662
 2559SOL    HW216214   2.287   8.982   1.849  0.9240 -1.1719 -0.4036
 2560SOL     OW16215   1.526   2.361   0.730 -0.5456 -0.1167  0.0311
 2560SOL    HW116216   1.440   2.410   0.716  0.0585  0.5876 -1.2836
 2560SOL    HW216217   1.529   2.282   0.668  0.0203  0.2189 -0.3705
 2561SOL     OW16218   2.222   4.818   1.567  1.0190  0.3343  0.3780
 2561SOL    HW116219   2.287   4.742   1.571  0.1040 -0.3988  1.9437
 2561SOL    HW216220   2.228   4.862   1.477  0.9173 -2.1663 -0.9114
 2564SOL     OW16221   2.015   6.658   1.295  0.2385  0.0276  0.8458
 2564SOL    HW116222   2.024   6.567   1.334  2.9241  0.1419  0.5874
 2564SOL    HW216223   1.995   6.724   1.367 -1.1460 -0.6737  1.1122
 2567SOL     OW16224   3.715   4.521   0.472  0.1670 -0.2039  0.0845
 2567SOL    HW116225   3.784   4.569   0.527  0.3234 -1.3366  0.8848
 2567SOL    HW216226   3.738   4.529   0.375  1.5085 -0.6904  0.3484
 2568SOL     OW16227   2.477   7.218   1.735 -0.0982 -0.3253  0.1113
 2568SOL    HW116228   2.435   7.304   1.708  1.6827  0.1039 -1.3445
 2568SOL    HW216229   2.483   7.214   1.835  0.1745  1.4014  0.1788
 2569SOL     OW16230   1.628   2.814   1.580  0.4630  0.8009  0.2384
 2569SOL    HW116231   1.683   2.818   1.663  2.6400 -1.3162 -1.0260
 2569SOL    HW216232   1.664   2.742   1.520 -2.1302  1.1090 -1.7751
 2570SOL     OW16233   9.722   0.292   0.356 -0.1645  0.3544 -0.3429
 2570SOL    HW116234   9.746   0.194   0.360  0.8829  0.6134 -0.0645
 2570SOL    HW216235   9.668   0.310   0.274  0.3372 -0.3102 -0.8266
 2571SOL     OW16236   1.086   8.582   1.280  0.3478  0.1565 -0.2732
 2571SOL    HW116237   1.079   8.482   1.286 -1.5642  0.1434 -1.9500
 2571SOL    HW216238   1.014   8.624   1.335  0.4533  0.5786 -0.4565
 2572SOL     OW16239   1.662   4.435   0.832 -0.0282 -0.1406  0.2733
 2572SOL    HW116240   1.732   4.375   0.872  1.1627  0.4845 -0.8268
 2572SOL    HW216241   1.700   4.527   0.823 -0.3639 -0.2085 -2.0095
 2573SOL     OW16242   4.265   2.820   0.614 -0.0343 -0.4014  1.0649
 2573SOL    HW116243   4.363   2.818   0.636  0.2903 -1.7698 -0.4112
 2573SOL    HW216244   4.245   2.900   0.558  0.3407 -0.4262  0.8961
 2574SOL     OW16245   3.951   1.265   0.765  0.4906 -0.2144 -1.0969
 2574SOL    HW116246   4.022   1.288   0.698  0.1023 -0.2905 -1.5359
 2574SOL    HW216247   3.868   1.318   0.745 -0.3846 -1.9286 -2.0505
 2575SOL     OW16248   9.101   3.794   1.786  0.6319 -0.0156  0.2245
 2575SOL    HW116249   9.084   3.710   1.837 -0.1969 -0.4125 -0.7100
 2575SOL    HW216250   9.015   3.833   1.754  1.1335  0.3123 -0.7576
 2576SOL     OW16251   9.243   8.174   1.247  1.0190 -0.6476 -0.0091
 2576SOL    HW116252   9.182   8.226   1.306  2.5442  1.3384 -0.1504
 2576SOL    HW216253   9.334   8.170   1.289  1.6799 -0.6556 -1.4199
 2577SOL     OW16254   1.991   2.088   1.408  0.0551 -0.3765 -0.0458
 2577SOL    HW116255   1.953   2.007   1.454  0.5623 -0.6581 -0.1184
 2577SOL    HW216256   2.004   2.161   1.474  0.1901 -0.5685  0.1407
 2578SOL     OW16257   4.057   1.028   1.238 -0.2878 -0.0329 -0.1735
 2578SOL    HW116258   4.142   0.975   1.241 -0.7756 -0.8253 -0.3181
 2578SOL    HW216259   4.072   1.117   1.280  0.4966 -0.3421  0.2116
 2579SOL     OW16260   1.961   8.891   1.676 -0.1025  0.1665  0.1189
 2579SOL    HW116261   1.971   8.792   1.688  0.5163  0.2051 -0.0809
 2579SOL    HW216262   1.890   8.909   1.607 -2.3202 -0.0865  2.2465
 2580SOL     OW16263   4.343   0.116   0.432  0.2819 -0.6224  0.2766
 2580SOL    HW116264   4.275   0.187   0.412 -0.2259 -1.0099  0.6208
 2580SOL    HW216265   4.435   0.154   0.418 -0.0102 -0.3091 -0.8995
 2581SOL     OW16266   1.345   1.391   1.624  0.1674 -0.4740 -1.0485
 2581SOL    HW116267   1.274   1.406   1.693 -0.0288  0.3522 -1.4241
 2581SOL    HW216268   1.307   1.339   1.547  0.4000 -1.4424 -0.5246
 2582SOL     OW16269   0.990   3.565   2.006  0.4149  0.4813  0.2650
 2582SOL    HW116270   1.053   3.527   1.938  1.3650 -0.6404  1.7354
 2582SOL    HW216271   1.042   3.619   2.072 -0.3590  0.6743  0.7133
 2583SOL     OW16272   0.939   4.898   0.600 -0.1047  0.2671 -0.5956
 2583SOL    HW116273   0.926   4.994   0.574 -1.4827 -0.0492 -1.1155
 2583SOL    HW216274   0.861   4.868   0.655  0.3513 -0.5311 -0.3917
 2584SOL     OW16275   2.017   6.663   0.511 -0.0515  0.6165  0.0360
 2584SOL    HW116276   2.050   6.710   0.429 -1.2327  1.8473  0.2411
 2584SOL    HW216277   2.074   6.687   0.589  0.8660 -0.2835 -0.3553
 2585SOL     OW16278   3.935   2.548   1.686 -0.3021 -0.3401 -0.0652
 2585SOL    HW116279   3.900   2.459   1.655 -0.8144 -0.1916  0.0858
 2585SOL    HW216280   3.861   2.601   1.726  0.0604  0.0521  0.0936
 2586SOL     OW16281   3.681   1.180   1.682 -0.1267 -0.0436 -0.1386
 2586SOL    HW116282   3.780   1.192   1.691 -0.5473  2.4152  1.4843
 2586SOL    HW216283   3.635   1.217   1.763 -2.3683 -1.4817 -0.7085
 2587SOL     OW16284   8.865   5.255   0.689 -0.0413 -0.2981 -0.1451
 2587SOL    HW116285   8.918   5.299   0.616  0.5405 -1.1824 -0.2766
 2587SOL    HW216286   8.898   5.287   0.778 -0.0682  0.0243 -0.2495
 2588SOL     OW16287   8.501   7.806   0.676 -0.4069  0.2875 -0.1837
 2588SOL    HW116288   8.527   7.797   0.580 -0.7744 -0.4723 -0.2218
 2588SOL    HW216289   8.490   7.715   0.716 -1.8788  0.5765  0.1237
 2589SOL     OW16290   3.421   2.253   0.761  0.0500 -0.0210  0.1605
 2589SOL    HW116291   3.424   2.246   0.861  1.7060 -1.9066  0.0072
 2589SOL    HW216292   3.515   2.258   0.725 -0.5378  1.0634 -1.2878
 2590SOL     OW16293   3.717   2.642   1.198 -0.5872 -0.0668  0.4450
 2590SOL    HW116294   3.734   2.554   1.242  0.5735  0.6943  1.5582
 2590SOL    HW216295   3.628   2.677   1.228 -1.3907 -1.1758 -0.5688
 2591SOL     OW16296   4.154   1.180   2.174 -0.0226 -0.2592  0.3176
 2591SOL    HW116297   4.132   1.103   2.115 -0.1762  0.3160 -0.3825
 2591SOL    HW216298   4.104   1.261   2.143  0.6359  0.2806  0.6524
 2593SOL     OW16299   8.022   8.088   0.891  0.3503  0.3432 -0.1810
 2593SOL    HW116300   8.097   8.029   0.863 -0.1984 -0.6530  0.4437
 2593SOL    HW216301   8.006   8.157   0.820  0.8819 -0.3526 -0.9862
 2594SOL     OW16302   2.920   3.546   1.705  0.4316  0.2101 -0.5593
 2594SOL    HW116303   2.887   3.639   1.716 -0.5645 -0.2504  0.5100
 2594SOL    HW216304   2.843   3.482   1.710  1.4669 -0.9198  2.4256
 2595SOL     OW16305   2.330   8.088   1.882  0.3062 -0.2479  0.7476
 2595SOL    HW116306   2.324   8.188   1.878 -0.2046 -0.3509 -1.3643
 2595SOL    HW216307   2.238   8.049   1.883  0.5092 -0.7424  0.2473
 2596SOL     OW16308   7.538   9.521   0.499  0.5561 -0.1507  0.1370
 2596SOL    HW116309   7.596   9.558   0.572  1.6790 -0.8202 -0.3918
 2596SOL    HW216310   7.509   9.595   0.438  0.3186  0.2858  0.7799
 2597SOL     OW16311   0.344   1.789   1.968  0.1946  0.7466  0.2512
 2597SOL    HW116312   0.315   1.884   1.959 -0.1446  0.5500 -0.7816
 2597SOL    HW216313   0.316   1.754   2.057 -0.9681  1.1689  0.0584
 2598SOL     OW16314   7.630   9.860   1.389  0.1011 -0.1404  0.1517
 2598SOL    HW116315   7.621   9.956   1.415 -1.3209 -0.2887  0.2111
 2598SOL    HW216316   7.599   9.848   1.294  0.2718 -0.5472  0.1472
 2599SOL     OW16317   0.873   6.629   1.794 -0.4549  0.2559 -0.7869
 2599SOL    HW116318   0.850   6.659   1.701 -0.9628  0.6508 -0.5359
 2599SOL    HW216319   0.806   6.665   1.858 -1.2111 -1.5774 -0.5016
 2602SOL     OW16320   3.244   4.596   1.758  0.3452  0.5568 -0.1640
 2602SOL    HW116321   3.199   4.580   1.670  0.4116  1.1823 -0.3162
 2602SOL    HW216322   3.194   4.668   1.808  0.6060  0.5651  0.0840
 2603SOL     OW16323   0.501   1.357   1.968  0.2671 -0.5838  0.3387
 2603SOL    HW116324   0.454   1.403   2.043 -0.8679 -2.5113  0.8501
 2603SOL    HW216325   0.480   1.259   1.970  1.0709 -0.8441 -1.8768
 2604SOL     OW16326   9.104   8.004   0.526 -0.2596 -0.3318  0.0042
 2604SOL    HW116327   9.154   8.087   0.505 -0.5114 -0.4036 -0.9236
 2604SOL    HW216328   9.012   8.028   0.558 -0.5074 -0.2626 -0.7514
 2605SOL     OW16329   1.989   0.078   1.241  0.6579 -0.4554 -0.2338
 2605SOL    HW116330   2.080   0.040   1.255  0.5805 -0.1113  1.2605
 2605SOL    HW216331   1.996   0.165   1.193  1.0589 -0.7664 -0.7491
 2606SOL     OW16332   8.803   2.067   1.404 -0.1698  0.2912  0.5535
 2606SOL    HW116333   8.808   1.986   1.345  0.2384 -1.8412  3.4290
 2606SOL    HW216334   8.875   2.131   1.378 -0.7529 -0.0372 -2.0331
 2607SOL     OW16335   8.057   8.271   1.679  0.7077 -0.1022  0.0995
 2607SOL    HW116336   8.077   8.269   1.581 -0.8748 -0.4861 -0.2270
 2607SOL    HW216337   8.090   8.186   1.722  2.0941  0.4048  0.0484
 2608SOL     OW16338   1.648   3.866   0.839 -0.5411  0.2394 -0.4384
 2608SOL    HW116339   1.611   3.946   0.885 -0.1493  0.0712  0.1746
 2608SOL    HW216340   1.577   3.826   0.780 -1.7083 -0.6956  1.5242
 2609SOL     OW16341   9.684   0.730   1.617 -0.0163  0.1545  0.6066
 2609SOL    HW116342   9.601   0.721   1.673 -0.9895 -0.4564 -0.9166
 2609SOL    HW216343   9.724   0.820   1.631 -2.8697  1.7693 -1.2407
 2610SOL     OW16344   7.249   9.637   1.047 -0.3206 -0.4291  0.0763
 2610SOL    HW116345   7.282   9.675   0.961 -1.1948 -0.9416 -0.4959
 2610SOL    HW216346   7.160   9.676   1.069  0.5464  0.7837  1.4974
 2611SOL     OW16347   9.494   8.559   2.204  0.2957  0.2596  0.1063
 2611SOL    HW116348   9.594   8.553   2.198  0.2550 -1.4004  0.7555
 2611SOL    HW216349   9.468   8.608   2.288  0.5601 -0.3340  0.5398
 2612SOL     OW16350   2.340   2.254   0.581 -0.0177 -0.5404  0.4614
 2612SOL    HW116351   2.403   2.228   0.508  1.0348  1.0580  0.7833
 2612SOL    HW216352   2.366   2.207   0.665 -0.4557 -1.3887  0.1324
 2613SOL     OW16353   2.782   0.007   1.057  0.6257 -0.3093  0.1536
 2613SOL    HW116354   2.761  -0.040   1.143  1.2956 -2.3352 -0.7481
 2613SOL    HW216355   2.840   0.086   1.076 -0.4651  0.1560  1.7035
 2615SOL     OW16356   0.890   1.375   0.318 -0.2421  0.4686  0.2982
 2615SOL    HW116357   0.917   1.279   0.311 -2.4618 -0.0330 -1.8070
 2615SOL    HW216358   0.791   1.381   0.329 -0.0682  2.5132  0.8399
 2616SOL     OW16359   1.716   4.540   2.036 -0.0359 -0.2376  0.2928
 2616SOL    HW116360   1.720   4.443   2.061 -1.2930  0.0164  1.5484
 2616SOL    HW216361   1.757   4.595   2.109 -1.3595  0.3236  0.6340
 2617SOL     OW16362   9.592   3.967   1.650 -0.6886 -0.1241 -0.0358
 2617SOL    HW116363   9.685   3.991   1.675 -1.4351 -0.2447  3.0557
 2617SOL    HW216364   9.529   4.003   1.719 -2.8510 -0.8187 -1.5978
 2619SOL     OW16365   1.498   1.810   0.741  0.2774 -0.1949 -0.1893
 2619SOL    HW116366   1.452   1.895   0.768  0.3622  0.0218 -0.7081
 2619SOL    HW216367   1.555   1.777   0.816 -0.8725 -0.5685  0.5371
 2620SOL     OW16368   9.464   9.672   1.020  0.2618 -0.5103 -0.5027
 2620SOL    HW116369   9.412   9.603   0.970 -2.3955  1.2420 -0.2699
 2620SOL    HW216370   9.427   9.763   0.998  0.6176  0.4702  2.7881
 2621SOL     OW16371   0.965   9.233   0.398 -0.2980 -0.4493 -0.5639
 2621SOL    HW116372   0.867   9.214   0.403 -0.2787 -0.0252  1.5251
 2621SOL    HW216373   0.981   9.305   0.330 -1.5465  0.3232 -0.0452
 2622SOL     OW16374   0.639   2.080   2.240  0.2312 -0.4359 -0.0653
 2622SOL    HW116375   0.732   2.078   2.276  0.1713 -0.2608  0.1033
 2622SOL    HW216376   0.640   2.117   2.147  0.2929 -0.1027  0.0651
 2623SOL     OW16377  -0.058   7.785   1.635 -0.0888 -0.1039  0.6069
 2623SOL    HW116378   0.022   7.844   1.644  1.4189 -2.1432  1.1074
 2623SOL    HW216379  -0.037   7.710   1.572 -0.6196 -2.1489  2.7471
 2625SOL     OW16380   0.412   1.810   0.385  0.1897 -0.2180  0.3085
 2625SOL    HW116381   0.391   1.842   0.478 -0.9650  0.1619 -0.0763
 2625SOL    HW216382   0.446   1.886   0.330 -0.8146 -0.0435 -0.0819
 2626SOL     OW16383   1.794   9.497   0.518  0.3732  0.3703  0.2909
 2626SOL    HW116384   1.736   9.548   0.581 -0.4031  0.4543 -0.4815
 2626SOL    HW216385   1.789   9.399   0.539 -1.0853  0.2467 -0.6082
 2627SOL     OW16386   2.565   4.897   1.068  0.2205 -0.4714 -0.1916
 2627SOL    HW116387   2.552   4.991   1.098  0.6812  0.2689 -2.2337
 2627SOL    HW216388   2.500   4.838   1.115 -2.5738  1.3940 -1.5956
 2628SOL     OW16389   1.523   4.309   0.472  0.8459 -0.2008  0.4682
 2628SOL    HW116390   1.597   4.244   0.456  0.3829 -0.7515  0.5436
 2628SOL    HW216391   1.560   4.402   0.475  1.1935 -0.2253 -1.9953
 2629SOL     OW16392   0.004   8.847   1.468 -0.1556 -0.4532  0.0755
 2629SOL    HW116393   0.068   8.797   1.526 -0.8587 -1.8771 -0.3213
 2629SOL    HW216394   0.042   8.856   1.376  0.1914  0.1856  0.2858
 2630SOL     OW16395   9.923   5.330   2.245 -0.1053  0.4311 -0.5302
 2630SOL    HW116396   9.945   5.393   2.320 -1.0099  1.7270 -1.3349
 2630SOL    HW216397   9.966   5.362   2.161  1.3039 -1.2816 -0.4958
 2631SOL     OW16398   3.078   2.785   1.778  0.5102  0.1917 -0.4321
 2631SOL    HW116399   3.073   2.687   1.761  1.7651 -0.0164  0.3005
 2631SOL    HW216400   3.168   2.819   1.752  0.7030  0.7994  0.9575
 2632SOL     OW16401   9.223   5.351   1.107  0.3720  0.4089  0.4464
 2632SOL    HW116402   9.283   5.302   1.044  0.3651  0.9765 -0.0074
 2632SOL    HW216403   9.268   5.434   1.139  0.0382  0.5685  0.5086
 2633SOL     OW16404   2.678   4.734   0.664  0.2802 -0.1592  0.5977
 2633SOL    HW116405   2.685   4.651   0.609 -1.1715  1.5165 -2.1851
 2633SOL    HW216406   2.724   4.810   0.618 -0.5842  1.1957  1.8962
 2635SOL     OW16407   4.170   3.856   1.928  0.0407  0.1241  0.0022
 2635SOL    HW116408   4.202   3.762   1.923 -1.9203 -0.5461 -0.2473
 2635SOL    HW216409   4.087   3.861   1.983 -1.1968  1.3290 -1.8787
 2636SOL     OW16410   1.719   1.295   1.010  0.4971  0.0168 -0.1396
 2636SOL    HW116411   1.678   1.271   0.922 -0.7445  0.9140  0.1744
 2636SOL    HW216412   1.818   1.290   1.003  0.3775 -1.0573 -1.2571
 2637SOL     OW16413   0.772   6.090   1.382  0.3408  0.5929 -0.1104
 2637SOL    HW116414   0.695   6.087   1.318  0.1173  1.7601  0.0910
 2637SOL    HW216415   0.810   5.998   1.393 -1.2602 -0.0673  0.0707
 2638SOL     OW16416   9.834   1.773   0.838 -0.8566  0.1054 -0.0841
 2638SOL    HW116417   9.908   1.838   0.823 -0.1518 -0.9869 -1.5529
 2638SOL    HW216418   9.793   1.749   0.750  0.9267 -3.7325  0.0275
 2639SOL     OW16419   1.973   7.843   1.310  0.3212  0.1640  0.1777
 2639SOL    HW116420   1.935   7.936   1.314  1.3829  0.6238 -0.4226
 2639SOL    HW216421   2.022   7.824   1.395 -0.1783  0.0248  0.4382
 2640SOL     OW16422   1.987   3.491   1.964 -0.0196 -0.4253 -0.0191
 2640SOL    HW116423   1.983   3.589   1.983 -0.3440  0.0797 -2.5432
 2640SOL    HW216424   1.900   3.449   1.986 -0.9726  0.4604 -2.0092
 2641SOL     OW16425   3.707   0.154   2.336  0.0692 -0.1224  0.8265
 2641SOL    HW116426   3.665   0.146   2.426  0.5308  0.9189  1.1345
 2641SOL    HW216427   3.807   0.147   2.345  0.0843 -0.6735  0.3148
 2642SOL     OW16428   3.308   1.206   1.759 -0.0339 -0.0882  0.7198
 2642SOL    HW116429   3.222   1.177   1.802 -0.2326  1.0802  1.1302
 2642SOL    HW216430   3.339   1.136   1.695 -2.3490  0.3405 -0.9214
 2643SOL     OW16431   2.748   2.407   1.112  0.5445  0.4170  0.2015
 2643SOL    HW116432   2.754   2.339   1.038  1.8201 -0.8516  1.4392
 2643SOL    HW216433   2.683   2.376   1.181  0.7967  0.6530  0.5497
 2644SOL     OW16434   8.975   0.113   1.218 -0.0772 -0.4728 -0.0075
 2644SOL    HW116435   8.897   0.154   1.170  1.3066  0.0773 -1.8668
 2644SOL    HW216436   8.994   0.165   1.301  1.3925  2.5100 -2.1264
 2645SOL     OW16437   4.255   4.101   1.147 -0.7656 -0.2921  0.2150
 2645SOL    HW116438   4.256   4.175   1.214 -0.6979 -0.0732 -0.0260
 2645SOL    HW216439   4.344   4.055   1.146 -1.1824 -1.1233  1.1871
 2646SOL     OW16440   7.951   8.796   1.956  0.1552  0.3084  0.2668
 2646SOL    HW116441   8.010   8.741   2.015  0.4290  0.3075 -0.0046
 2646SOL    HW216442   7.982   8.787   1.861 -1.2843 -1.0086 -0.0983
 2647SOL     OW16443   1.787   2.822   1.811 -0.5647 -0.3345  0.9644
 2647SOL    HW116444   1.880   2.787   1.822 -0.3130 -0.6946 -1.8944
 2647SOL    HW216445   1.778   2.910   1.858  2.2783  1.3969 -1.5576
 2648SOL     OW16446   1.279   5.905   1.472 -0.2148 -0.2983 -0.0111
 2648SOL    HW116447   1.268   6.001   1.446  0.8987 -0.2241 -0.2322
 2648SOL    HW216448   1.332   5.899   1.557 -0.0051 -0.7394 -0.1734
 2649SOL     OW16449   0.018   2.384   1.515  0.4878 -0.0741 -0.7830
 2649SOL    HW116450   0.056   2.477   1.517 -0.0257  0.1681 -1.7174
 2649SOL    HW216451   0.069   2.329   1.449  0.4563 -0.3093 -0.6107
 2650SOL     OW16452   9.463   4.608   0.898  0.1446 -0.0256  0.1126
 2650SOL    HW116453   9.418   4.556   0.971  1.4799 -0.5281  0.6018
 2650SOL    HW216454   9.452   4.559   0.812  0.3782 -0.5319  0.3625
 2652SOL     OW16455   3.366   1.393   1.462 -0.3699 -0.3249 -0.1576
 2652SOL    HW116456   3.316   1.427   1.382 -2.5653 -0.9510  0.9166
 2652SOL    HW216457   3.384   1.469   1.524 -0.7729 -0.2398 -0.1394
 2653SOL     OW16458   2.694   9.055   1.932 -0.6629  0.6195  0.0006
 2653SOL    HW116459   2.613   9.027   1.880 -0.6767  1.2779 -0.3360
 2653SOL    HW216460   2.681   9.031   2.028 -1.0605  0.3007 -0.1284
 2655SOL     OW16461   2.776   3.091   1.658 -0.2002 -0.2353  0.1423
 2655SOL    HW116462   2.740   3.034   1.732  1.0834 -1.0235  0.1754
 2655SOL    HW216463   2.871   3.066   1.640  0.4125  1.9691  0.2018
 2658SOL     OW16464   2.959   0.762   1.568  0.8162  0.3452  0.5795
 2658SOL    HW116465   2.939   0.843   1.625 -1.6787  0.5093 -0.4483
 2658SOL    HW216466   2.991   0.688   1.626  1.7253  1.6116  1.7382
 2659SOL     OW16467   2.580   5.727   0.561 -0.5087 -0.1951  0.1523
 2659SOL    HW116468   2.518   5.661   0.518 -1.3163  0.0679  0.8868
 2659SOL    HW216469   2.591   5.806   0.501 -0.6341 -0.3930 -0.1298
 2660SOL     OW16470   1.372   4.005   0.863 -0.2974 -0.5781 -0.2756
 2660SOL    HW116471   1.399   4.095   0.831  0.1968 -0.7189 -0.2607
 2660SOL    HW216472   1.288   4.012   0.916 -0.4392 -0.1726 -0.5518
 2661SOL     OW16473   0.796   7.589   0.492  0.5913 -0.0390 -0.3996
 2661SOL    HW116474   0.839   7.499   0.489 -0.3422 -0.5425  0.8106
 2661SOL    HW216475   0.744   7.604   0.408  0.2327 -0.9044 -0.3384
 2662SOL     OW16476   2.384   1.565   1.389  0.3348 -0.0799 -0.0740
 2662SOL    HW116477   2.453   1.619   1.340  0.2147  0.4020  0.2851
 2662SOL    HW216478   2.369   1.604   1.479 -0.2757 -0.2962 -0.0801
 2663SOL     OW16479   1.031   4.701   1.789 -0.3650 -0.8549  0.0426
 2663SOL    HW116480   1.125   4.685   1.818  0.0848  0.9320 -0.3512
 2663SOL    HW216481   1.016   4.659   1.699  0.9407  1.2670 -1.2098
 2664SOL     OW16482   1.077   4.339   1.675 -0.6861 -0.6993  0.3276
 2664SOL    HW116483   1.141   4.351   1.752 -0.0143 -1.1401 -0.1552
 2664SOL    HW216484   1.129   4.330   1.590 -1.4838  2.0665 -0.4979
 2665SOL     OW16485   3.185   2.328   1.612  0.2834  0.4649 -0.7011
 2665SOL    HW116486   3.254   2.261   1.639 -0.2031  0.4064  0.4496
 2665SOL    HW216487   3.114   2.282   1.559 -0.1792 -0.0032  0.3020
 2666SOL     OW16488   3.355   0.761   0.726  0.1006 -0.0431 -0.2755
 2666SOL    HW116489   3.355   0.694   0.652 -0.7962 -0.7550  0.3665
 2666SOL    HW216490   3.270   0.814   0.723 -0.5800 -1.0184  1.0789
 2667SOL     OW16491   4.106   3.481   0.510  0.0745 -0.6732 -0.1577
 2667SOL    HW116492   4.191   3.430   0.504  0.6114  0.3455 -1.6831
 2667SOL    HW216493   4.125   3.579   0.499 -1.2500 -0.4082 -0.1894
 2668SOL     OW16494   1.785   4.741   2.215 -0.2993  0.6094  0.3603
 2668SOL    HW116495   1.812   4.780   2.303  0.0536  0.2419  0.4177
 2668SOL    HW216496   1.831   4.792   2.141  0.6355 -0.0638  0.4617
 2669SOL     OW16497   2.590   4.131   1.206 -0.2194 -0.4683  0.2124
 2669SOL    HW116498   2.545   4.143   1.294 -1.2261 -3.1784  0.1309
 2669SOL    HW216499   2.676   4.181   1.204  0.1209 -0.9102  2.9706
 2670SOL     OW16500   9.452   5.765   0.886 -0.4306 -0.7176 -0.6414
 2670SOL    HW116501   9.357   5.743   0.909  0.3133 -2.1280  1.2428
 2670SOL    HW216502   9.505   5.681   0.879  0.3725 -0.0371 -3.2862
 2672SOL     OW16503   0.183   8.064   1.398  0.1501 -0.0787  0.3819
 2672SOL    HW116504   0.237   7.990   1.436  0.6640  0.5299  0.8599
 2672SOL    HW216505   0.161   8.129   1.471 -0.9521 -0.1601  0.1285
 2673SOL     OW16506   5.223   3.178   1.965  0.1541 -0.0134 -0.4972
 2673SOL    HW116507   5.236   3.141   1.873  0.6524  1.0624 -0.8678
 2673SOL    HW216508   5.129   3.208   1.976  0.4871  1.3071 -1.2009
 2674SOL     OW16509   0.622   3.260   1.579 -0.3670  0.2302  0.1144
 2674SOL    HW116510   0.573   3.302   1.503 -0.8080  0.7264  0.6654
 2674SOL    HW216511   0.669   3.331   1.632 -0.4097 -0.0669  0.5532
 2675SOL     OW16512   0.997   0.244   0.335 -0.1341  0.2552 -0.0952
 2675SOL    HW116513   1.040   0.288   0.414  1.1763 -0.1294 -0.5700
 2675SOL    HW216514   0.980   0.148   0.357  0.6020  0.0477 -0.4068
 2676SOL     OW16515   9.278   7.353   0.807  0.1481  0.2148  0.1100
 2676SOL    HW116516   9.311   7.446   0.822 -0.5111  0.3409  0.7816
 2676SOL    HW216517   9.208   7.353   0.735 -0.2009  0.3134  0.4464
 2677SOL     OW16518   9.123   3.912   0.358 -0.2704  0.2590 -0.5491
 2677SOL    HW116519   9.187   3.979   0.394  0.7252 -0.1970 -1.4514
 2677SOL    HW216520   9.037   3.957   0.334 -0.8139  0.6405  1.9570
 2680SOL     OW16521   4.411   3.820   0.893  0.0836 -0.3956 -0.8249
 2680SOL    HW116522   4.314   3.809   0.871 -0.4096  1.1148  0.5037
 2680SOL    HW216523   4.437   3.755   0.965 -0.3057  0.1630 -0.1731
 2681SOL     OW16524   1.252   4.350   1.903  0.1961  0.4228  0.5948
 2681SOL    HW116525   1.300   4.433   1.873  0.6542  0.3509  1.1314
 2681SOL    HW216526   1.203   4.368   1.988  0.3791  0.1121  0.7664
 2683SOL     OW16527   1.257   4.372   0.381 -0.4284  0.0170  0.4363
 2683SOL    HW116528   1.343   4.328   0.406 -0.3666  0.2998  0.7217
 2683SOL    HW216529   1.231   4.438   0.451  0.5268  1.9220 -0.9299
 2684SOL     OW16530   9.784   8.945   2.219  0.1935  0.7542 -0.2569
 2684SOL    HW116531   9.854   9.008   2.256  1.0745 -0.5161  0.2733
 2684SOL    HW216532   9.754   8.883   2.291  1.2274 -1.1303 -1.4156
 2685SOL     OW16533   9.145   1.205   2.006 -0.2713  0.4484  0.2356
 2685SOL    HW116534   9.218   1.196   1.939 -1.5889 -0.7795 -1.0919
 2685SOL    HW216535   9.155   1.136   2.077  0.0543  0.5108  0.2484
 2687SOL     OW16536   2.840   3.564   1.444 -0.8467  0.1942 -0.1822
 2687SOL    HW116537   2.812   3.553   1.539 -0.3677 -0.4117 -0.1109
 2687SOL    HW216538   2.939   3.552   1.436 -0.8587  0.4206 -0.7266
 2688SOL     OW16539   3.590   8.982   0.541 -0.2631 -0.0116 -0.7937
 2688SOL    HW116540   3.603   8.917   0.467 -0.8375 -0.2614 -0.6772
 2688SOL    HW216541   3.639   8.951   0.622 -0.2115 -0.0977 -0.8577
 2689SOL     OW16542   1.070   1.930   0.574 -0.0663 -0.1823  0.2726
 2689SOL    HW116543   1.011   2.006   0.547  0.8276  0.8183  1.0646
 2689SOL    HW216544   1.105   1.947   0.666  2.0656 -0.3961 -0.4883
 2691SOL     OW16545   3.414  -0.005   0.364  0.1774  0.4867  0.3262
 2691SOL    HW116546   3.316  -0.003   0.342  0.2705 -0.8507 -0.2750
 2691SOL    HW216547   3.426  -0.038   0.458  0.0711  0.3771  0.3010
 2692SOL     OW16548   2.016   7.114   0.841  0.2715 -0.2040  0.0850
 2692SOL    HW116549   1.930   7.084   0.883  0.3870 -0.0090  0.4637
 2692SOL    HW216550   2.089   7.053   0.869  0.0330 -1.1361 -1.2646
 2693SOL     OW16551   9.034   1.225   0.831  0.2670 -0.0507  0.3909
 2693SOL    HW116552   9.127   1.206   0.864  1.0678  0.9692 -1.1628
 2693SOL    HW216553   8.977   1.256   0.907  1.4397  0.1064  1.2274
 2694SOL     OW16554   9.337   1.130   1.830 -1.3691 -0.1022 -0.6678
 2694SOL    HW116555   9.297   1.040   1.812 -0.4021 -0.5390 -0.6139
 2694SOL    HW216556   9.376   1.167   1.745  0.5382 -0.8634 -0.1255
 2695SOL     OW16557   0.013   4.141   0.850  0.1206  0.5240  0.6542
 2695SOL    HW116558  -0.045   4.221   0.863 -0.7483  0.0131  0.0187
 2695SOL    HW216559  -0.003   4.076   0.924  3.0515  2.2124  2.8638
 2696SOL     OW16560   3.434   0.150   1.539 -0.5710 -0.0113  0.4481
 2696SOL    HW116561   3.364   0.174   1.471  1.3154  0.6535 -1.2956
 2696SOL    HW216562   3.417   0.056   1.572 -0.2709 -1.1612 -2.5385
 2697SOL     OW16563   1.087   7.977   1.652 -0.4020  0.3800  0.2302
 2697SOL    HW116564   1.100   7.955   1.555 -1.3277 -0.1945  0.2359
 2697SOL    HW216565   0.991   7.966   1.676  0.2912 -2.4738  1.9626
 2698SOL     OW16566   0.430  -0.033   1.859 -0.6303 -0.1168  0.2460
 2698SOL    HW116567   0.521  -0.043   1.819 -0.2317  0.8465  0.8691
 2698SOL    HW216568   0.381   0.041   1.811  0.1865  1.6603  2.0686
 2699SOL     OW16569   2.396   4.288   0.468 -0.2967 -0.1704  0.4565
 2699SOL    HW116570   2.371   4.229   0.544 -0.2553 -0.0763  0.5429
 2699SOL    HW216571   2.494   4.308   0.472 -0.2093 -0.5214  0.1329
 2700SOL     OW16572   7.749   0.120   1.551 -0.0433 -0.2583  0.2152
 2700SOL    HW116573   7.724   0.172   1.632  2.1532  0.1703  0.6667
 2700SOL    HW216574   7.819   0.052   1.576  1.7066  0.8356 -1.5389
 2701SOL     OW16575   0.156   7.456   1.472 -0.2624 -0.2215 -0.1724
 2701SOL    HW116576   0.090   7.525   1.443  0.4692  1.1410  1.3651
 2701SOL    HW216577   0.108   7.371   1.494 -1.3877  0.4425 -0.0623
 2702SOL     OW16578   3.495   2.709   2.203 -0.1234  0.6820  0.6653
 2702SOL    HW116579   3.511   2.804   2.178  1.6103  1.1789  3.5001
 2702SOL    HW216580   3.582   2.661   2.211 -0.9695 -1.1260 -0.5593
 2703SOL     OW16581   2.836   9.149   1.053 -0.4360  0.3667  0.1830
 2703SOL    HW116582   2.856   9.096   1.135 -0.3288 -2.1937 -1.4355
 2703SOL    HW216583   2.920   9.169   1.004 -0.5291  1.6336  0.5184
 2706SOL     OW16584   3.510   0.433   1.563 -0.5810  0.4721 -0.0657
 2706SOL    HW116585   3.606   0.460   1.560 -0.3109 -0.5878 -0.9453
 2706SOL    HW216586   3.502   0.334   1.556 -1.6945  0.4739  0.9427
 2707SOL     OW16587   2.106   9.300   2.162  0.1424 -0.0375  0.0107
 2707SOL    HW116588   2.042   9.323   2.089 -0.5017  1.3943  0.9918
 2707SOL    HW216589   2.142   9.208   2.148 -1.3692 -0.4698 -1.1020
 2709SOL     OW16590   4.369   0.445   0.767  0.1609 -0.1093 -0.4711
 2709SOL    HW116591   4.407   0.361   0.728  0.3184 -0.6878  0.9139
 2709SOL    HW216592   4.355   0.433   0.865  1.3703  1.8983 -0.0271
 2710SOL     OW16593   4.103   1.573   1.202  0.1063 -0.0655 -0.2733
 2710SOL    HW116594   4.016   1.542   1.240  0.6688  0.3277  1.3951
 2710SOL    HW216595   4.178   1.547   1.264  1.0002  1.0250 -0.8633
 2711SOL     OW16596   9.225   4.587   0.351  0.8980  0.4629  0.0298
 2711SOL    HW116597   9.249   4.656   0.419 -2.2885  1.5442  0.1474
 2711SOL    HW216598   9.173   4.630   0.277  0.7101 -1.4400 -0.9763
 2712SOL     OW16599   9.019   2.679   1.750 -0.1744 -0.4275  0.1375
 2712SOL    HW116600   9.077   2.754   1.719 -0.6856 -0.3271 -0.5945
 2712SOL    HW216601   8.967   2.643   1.672  0.0209 -1.4962  0.4976
 2713SOL     OW16602   3.045   0.115   2.242 -0.1238 -0.0998 -0.3612
 2713SOL    HW116603   3.071   0.154   2.330 -0.2852  0.8461 -0.7238
 2713SOL    HW216604   3.010   0.022   2.255  1.1003 -0.4597  0.4151
 2715SOL     OW16605   9.082   7.376   0.606  0.4513  0.0905 -0.5113
 2715SOL    HW116606   9.020   7.310   0.563  2.4772 -1.4408 -1.1339
 2715SOL    HW216607   9.140   7.418   0.536  0.2919  1.3553  0.0995
 2716SOL     OW16608   8.696   8.612   0.769 -0.2698  0.1997 -0.1563
 2716SOL    HW116609   8.674   8.638   0.675  0.8977  0.9117 -0.2437
 2716SOL    HW216610   8.778   8.554   0.769 -0.1696  0.3382  0.4272
 2717SOL     OW16611   3.437   9.123   2.046  0.5897 -0.5395 -0.4761
 2717SOL    HW116612   3.368   9.052   2.031 -0.8420  0.9767 -1.2813
 2717SOL    HW216613   3.495   9.132   1.965  0.0552 -0.0411 -0.8082
 2718SOL     OW16614   9.724   7.624   1.735 -0.2230  0.1122 -0.0819
 2718SOL    HW116615   9.797   7.692   1.735  0.9270 -1.0764  1.4188
 2718SOL    HW216616   9.696   7.605   1.829 -0.6668 -1.3360 -0.4884
 2719SOL     OW16617   4.821   2.415   0.771 -0.3010 -0.6512 -0.0324
 2719SOL    HW116618   4.756   2.360   0.718 -0.7073  1.1954 -1.5277
 2719SOL    HW216619   4.790   2.421   0.866 -1.0042 -1.8374 -0.1816
 2721SOL     OW16620   4.169   3.794   0.461 -0.3294  0.2939  0.3997
 2721SOL    HW116621   4.223   3.823   0.382 -1.5570  0.9500 -0.2075
 2721SOL    HW216622   4.228   3.793   0.542  0.3462  2.1098 -0.0306
 2722SOL     OW16623   9.638   9.200   0.598 -0.2184  0.4879  0.6453
 2722SOL    HW116624   9.639   9.281   0.656  0.6263  1.6287 -0.9484
 2722SOL    HW216625   9.707   9.208   0.526 -1.1726 -0.9442 -0.4735
 2724SOL     OW16626   9.588   7.308   1.278 -0.2736  0.1257  0.5609
 2724SOL    HW116627   9.540   7.389   1.313  1.1583  0.5187  1.6464
 2724SOL    HW216628   9.586   7.235   1.347 -0.8854 -0.4976 -0.1090
 2725SOL     OW16629   2.541   0.567   0.609  0.1649  0.3335 -0.0087
 2725SOL    HW116630   2.629   0.551   0.564  0.8966  1.1274  1.1110
 2725SOL    HW216631   2.472   0.508   0.569  0.6759  1.3850 -2.5602
 2726SOL     OW16632   3.305   2.785   1.127  0.5414  0.1579  0.3191
 2726SOL    HW116633   3.391   2.788   1.177 -0.1534 -2.2984  1.7407
 2726SOL    HW216634   3.313   2.720   1.051  0.3937  1.0528 -0.4814
 2727SOL     OW16635   9.685   8.917   0.585  0.0965  1.0226  0.4162
 2727SOL    HW116636   9.623   8.900   0.509  0.4751  2.6709 -0.2736
 2727SOL    HW216637   9.662   9.003   0.630  0.2176  0.3295  1.8352
 2731SOL     OW16638   2.778   0.742   0.518 -0.0189 -0.0153 -0.3773
 2731SOL    HW116639   2.817   0.712   0.604 -1.5723  0.3915  0.4919
 2731SOL    HW216640   2.689   0.785   0.535  0.0481  0.8457 -2.0839
 2732SOL     OW16641   0.491   2.235   1.533 -0.3653  0.3831 -0.1209
 2732SOL    HW116642   0.525   2.327   1.555 -0.5625  0.6264 -0.8281
 2732SOL    HW216643   0.411   2.215   1.590 -0.0091  0.4437  0.4041
 2733SOL     OW16644   9.742   2.701   1.895 -0.1514  0.3801 -0.1754
 2733SOL    HW116645   9.762   2.612   1.937 -2.3756 -0.7678 -1.4295
 2733SOL    HW216646   9.789   2.773   1.946  2.4971 -1.5780  0.2897
 2734SOL     OW16647   2.909   7.563   2.318  0.0417 -0.2887 -0.1717
 2734SOL    HW116648   2.959   7.606   2.243  0.9730  0.0150  0.6236
 2734SOL    HW216649   2.868   7.477   2.286  0.9106 -0.4469 -0.8725
 2735SOL     OW16650   0.934   4.557   1.568  0.2667  0.3709  0.3607
 2735SOL    HW116651   0.976   4.471   1.597 -0.5379  0.2211  1.0644
 2735SOL    HW216652   0.967   4.580   1.476 -0.4814 -1.3387 -0.3609
 2738SOL     OW16653   2.979   2.698   1.459  0.2458 -0.4667  0.1579
 2738SOL    HW116654   2.889   2.740   1.462  1.8350  3.3523 -1.9649
 2738SOL    HW216655   3.004   2.665   1.551 -1.9958  1.2867  1.4343
 2739SOL     OW16656   9.435   3.905   0.670  0.2130 -0.3646 -0.4341
 2739SOL    HW116657   9.505   3.842   0.704 -0.8742 -1.5923 -0.4394
 2739SOL    HW216658   9.380   3.938   0.746 -0.6250 -1.1426 -0.7087
 2740SOL     OW16659   3.150   4.222   0.971 -0.2618  0.0964 -0.4029
 2740SOL    HW116660   3.146   4.250   0.875 -1.2740  1.4334  0.0223
 2740SOL    HW216661   3.229   4.162   0.984 -0.2591 -0.3189 -2.1233
 2742SOL     OW16662   1.712   4.808   1.310 -0.0537 -0.4582 -0.1477
 2742SOL    HW116663   1.702   4.881   1.242 -0.3616 -0.5911 -0.2422
 2742SOL    HW216664   1.645   4.820   1.383  1.4887  0.7568  1.1007
 2743SOL     OW16665   8.730   8.777   2.108 -0.0773 -0.3436  0.6742
 2743SOL    HW116666   8.632   8.762   2.101 -0.1123  0.7056 -1.3123
 2743SOL    HW216667   8.774   8.757   2.020  1.1291  1.6884  0.7744
 2744SOL     OW16668   3.316   9.027   0.477  0.4194 -0.4900 -0.4761
 2744SOL    HW116669   3.294   8.968   0.400 -1.9448 -1.9983  1.2721
 2744SOL    HW216670   3.410   9.010   0.507  0.3981 -1.9639 -1.2111
 2745SOL     OW16671   4.295   9.612   0.421 -0.2413  0.4187  0.2524
 2745SOL    HW116672   4.260   9.629   0.513 -1.0343 -1.4320  0.3070
 2745SOL    HW216673   4.314   9.699   0.376 -1.1999  1.3624  1.6460
 2746SOL     OW16674   4.692   3.231   0.438  0.2087 -0.3658 -0.6431
 2746SOL    HW116675   4.592   3.221   0.435  0.1444  0.3094 -0.8032
 2746SOL    HW216676   4.732   3.184   0.359  0.0559 -1.0120 -0.3472
 2747SOL     OW16677   0.675   1.300   1.776 -0.0619  0.5000  0.2245
 2747SOL    HW116678   0.618   1.326   1.854 -1.4396 -0.1725 -0.5421
 2747SOL    HW216679   0.668   1.201   1.761  0.4856  0.5711 -0.5218
 2748SOL     OW16680   9.713   9.158   1.174 -0.1740 -0.3245 -0.5123
 2748SOL    HW116681   9.666   9.106   1.246  0.4135 -0.8958 -0.5347
 2748SOL    HW216682   9.690   9.119   1.085 -2.6287  1.7153 -0.8412
 2749SOL     OW16683   8.487   8.872   2.343 -0.2410 -0.2660 -0.0383
 2749SOL    HW116684   8.533   8.957   2.367  0.4030 -0.3029 -1.0935
 2749SOL    HW216685   8.540   8.794   2.375 -0.3996 -0.2871  0.1739
 2750SOL     OW16686   8.933   2.197   1.940 -0.4558  0.3665  0.4558
 2750SOL    HW116687   9.029   2.202   1.967 -0.5584  2.6353  0.5019
 2750SOL    HW216688   8.910   2.103   1.916  1.3430 -0.5035  2.0088
 2751SOL     OW16689   1.808   6.316   2.052 -0.2652  0.1087 -0.6181
 2751SOL    HW116690   1.764   6.323   1.963  1.2716 -1.6765 -1.5355
 2751SOL    HW216691   1.781   6.230   2.096 -0.6779  0.7794  0.4719
 2752SOL     OW16692   3.382   9.548   0.639 -0.1921 -0.4395 -0.3389
 2752SOL    HW116693   3.360   9.512   0.548  0.3110 -1.7948  0.0564
 2752SOL    HW216694   3.479   9.534   0.657  0.0259  1.1981 -0.1848
 2753SOL     OW16695   2.582   7.175   1.492  0.1068 -0.2579 -0.6673
 2753SOL    HW116696   2.670   7.165   1.540  0.2701  1.5139 -0.5647
 2753SOL    HW216697   2.511   7.199   1.558 -0.0222  0.4133 -1.0459
 2755SOL     OW16698   1.787   2.931   0.456 -0.6909  0.5364 -0.0712
 2755SOL    HW116699   1.880   2.898   0.440 -0.7587 -0.5703  1.6588
 2755SOL    HW216700   1.790   3.024   0.493 -0.1445 -0.2541  1.9736
 2756SOL     OW16701   4.130   2.619   1.513 -0.0698 -0.2017 -0.3945
 2756SOL    HW116702   4.217   2.607   1.559 -0.3040  0.0795  0.1251
 2756SOL    HW216703   4.055   2.604   1.578 -0.4213 -1.0448 -0.9732
 2759SOL     OW16704   8.355   8.730   0.685  0.3884 -0.0169  0.3797
 2759SOL    HW116705   8.286   8.666   0.650  1.1323 -0.2441 -0.7121
 2759SOL    HW216706   8.345   8.739   0.784 -1.0845 -0.1881  0.2600
 2760SOL     OW16707   8.871   6.074   0.569 -0.0659  0.1127  0.0947
 2760SOL    HW116708   8.917   6.154   0.607  1.0449 -0.2191 -0.5359
 2760SOL    HW216709   8.935   6.023   0.512 -1.3995 -0.0204 -1.3021
 2762SOL     OW16710   2.340   5.325   1.552 -0.4921 -0.4622 -0.3726
 2762SOL    HW116711   2.379   5.418   1.560  1.5664 -1.0934 -2.3160
 2762SOL    HW216712   2.343   5.280   1.641 -0.6817  1.0190  0.4056
 2765SOL     OW16713   1.036   2.069   0.809  0.1455  0.6231  0.0178
 2765SOL    HW116714   1.026   2.032   0.901 -1.4207  1.0692  0.0460
 2765SOL    HW216715   0.947   2.103   0.777  0.9485  1.6897 -1.1333
 2768SOL     OW16716   4.085   2.724   1.252  0.4494  0.2207 -0.1098
 2768SOL    HW116717   4.119   2.818   1.243 -0.1885  0.4241 -0.5125
 2768SOL    HW216718   4.076   2.701   1.349 -2.4293  1.7429  0.0606
 2769SOL     OW16719   9.158   6.897   2.129 -0.2783 -0.1350 -0.1441
 2769SOL    HW116720   9.126   6.930   2.040  1.2693  2.4315  0.1805
 2769SOL    HW216721   9.252   6.863   2.119  0.8568  2.5080  0.9062
 2770SOL     OW16722   2.442   7.114   0.961 -0.1872  0.3634 -0.4343
 2770SOL    HW116723   2.521   7.062   0.931 -1.0519 -1.2643  0.0607
 2770SOL    HW216724   2.470   7.179   1.032  0.8753  0.4797 -0.9589
 2772SOL     OW16725   2.851   2.914   0.406 -0.5216  0.2371  0.1397
 2772SOL    HW116726   2.764   2.942   0.447 -0.7077  0.0026 -0.0934
 2772SOL    HW216727   2.875   2.822   0.437 -0.1463  0.4665  0.5324
 2774SOL     OW16728   0.752   3.876   2.240 -0.0163 -0.0126  0.0401
 2774SOL    HW116729   0.817   3.881   2.164 -1.1845  0.9335 -0.8885
 2774SOL    HW216730   0.722   3.967   2.266  0.1547 -0.3387  1.4752
 2775SOL     OW16731   8.162   9.669   0.569 -0.7984 -0.6423 -0.5134
 2775SOL    HW116732   8.233   9.716   0.620 -1.6578  1.2312 -0.9894
 2775SOL    HW216733   8.196   9.580   0.536  1.1580  0.0649 -0.4169
 2776SOL     OW16734   4.487   1.075   1.042  0.5456 -0.2341 -0.5372
 2776SOL    HW116735   4.493   0.982   1.005 -0.6485 -0.4758 -0.1539
 2776SOL    HW216736   4.416   1.126   0.994  1.5120  0.6252 -1.0454
 2778SOL     OW16737   0.137   6.641   0.713 -0.0401 -0.2365  0.5886
 2778SOL    HW116738   0.112   6.568   0.776  0.1440 -0.3885  0.4879
 2778SOL    HW216739   0.157   6.602   0.623  0.5471 -0.1223  0.6670
 2779SOL     OW16740   4.084   8.688   1.382  0.1594  0.6455  0.0018
 2779SOL    HW116741   4.029   8.632   1.444 -0.9576  1.4704 -0.2494
 2779SOL    HW216742   4.055   8.673   1.288  0.9997  0.3749 -0.2262
 2781SOL     OW16743   2.468   5.971   2.186 -0.4614  0.4670  0.1124
 2781SOL    HW116744   2.388   6.003   2.133 -0.6538 -0.0066  0.1171
 2781SOL    HW216745   2.531   6.047   2.199 -0.8760  0.8284  0.0384
 2782SOL     OW16746   3.893   3.830   1.968 -0.4629  0.2331  0.4860
 2782SOL    HW116747   3.836   3.751   1.945  0.7414 -0.7417  0.8030
 2782SOL    HW216748   3.843   3.915   1.946 -2.2969 -0.5783  1.4055
 2785SOL     OW16749   3.148   1.813   2.334 -0.0666  0.1867 -0.0437
 2785SOL    HW116750   3.243   1.812   2.363 -0.1409 -0.8305  0.1895
 2785SOL    HW216751   3.101   1.733   2.371 -0.9180  0.4867 -0.4580
 2786SOL     OW16752   0.679   5.358   2.306 -0.6804 -0.2711  0.2374
 2786SOL    HW116753   0.611   5.300   2.261  0.4382 -1.2207 -0.2882
 2786SOL    HW216754   0.769   5.315   2.297 -0.2952 -0.0270  2.6071
 2787SOL     OW16755   9.653   3.759   0.712 -0.4053 -0.1361 -0.0712
 2787SOL    HW116756   9.685   3.665   0.700  0.1655  0.0667 -0.1349
 2787SOL    HW216757   9.731   3.820   0.721 -0.7526  0.5145 -1.3643
 2788SOL     OW16758   0.015   7.195   0.565 -0.1607 -0.0393 -0.0512
 2788SOL    HW116759   0.007   7.140   0.648  1.4463 -0.8133 -0.3892
 2788SOL    HW216760   0.011   7.292   0.589  0.1546 -0.2591  0.9173
 2789SOL     OW16761   0.726   4.402   2.165 -0.3083  0.3553  0.4109
 2789SOL    HW116762   0.759   4.421   2.072 -0.6989 -1.1641 -0.0532
 2789SOL    HW216763   0.773   4.462   2.229 -0.0374  1.4314 -0.7692
 2790SOL     OW16764   1.752   3.168   1.540 -0.1205 -0.0500  0.1358
 2790SOL    HW116765   1.745   3.117   1.455  1.3870 -0.4605  0.2480
 2790SOL    HW216766   1.846   3.166   1.573 -0.7460 -0.1673  1.9863
 2792SOL     OW16767   9.907   4.766   1.081  0.2658 -0.0293 -0.7087
 2792SOL    HW116768   9.993   4.717   1.092  0.2649  0.1115 -0.0427
 2792SOL    HW216769   9.844   4.740   1.154  0.3732  1.1801 -0.1639
 2793SOL     OW16770   0.917   7.179   1.351  0.2513 -0.3583 -0.0742
 2793SOL    HW116771   1.001   7.144   1.392 -0.5993  2.0933  4.0586
 2793SOL    HW216772   0.930   7.276   1.328 -0.5760 -0.6999 -2.0547
 2794SOL     OW16773   2.986   5.291   1.564  0.8684 -0.1478 -0.0502
 2794SOL    HW116774   3.010   5.221   1.631 -0.6722 -1.1991 -0.5734
 2794SOL    HW216775   2.887   5.302   1.561  1.0013  0.8725 -1.1735
 2796SOL     OW16776   2.507   5.362   1.184 -0.5072 -0.2566 -0.1967
 2796SOL    HW116777   2.417   5.388   1.220 -0.3822  1.3536 -0.9995
 2796SOL    HW216778   2.517   5.397   1.091  1.1396  0.0002  0.0622
 2798SOL     OW16779   9.803   3.573   0.422  0.2298  0.1038 -0.4052
 2798SOL    HW116780   9.741   3.557   0.499 -0.3551  0.6951 -0.7419
 2798SOL    HW216781   9.767   3.648   0.366  0.4371 -0.5890 -1.4773
 2799SOL     OW16782   2.812   3.694   2.339 -0.0225  0.3678  0.0658
 2799SOL    HW116783   2.882   3.758   2.306 -0.4066  1.3099  1.0432
 2799SOL    HW216784   2.722   3.739   2.337 -0.2898 -0.1252  0.7666
 2800SOL     OW16785   4.380   2.230   0.904  0.1756  0.4664 -0.3790
 2800SOL    HW116786   4.325   2.147   0.909 -0.6782  0.9681 -1.3883
 2800SOL    HW216787   4.404   2.259   0.997  2.0740 -1.9254 -0.0651
 2803SOL     OW16788   9.871   4.381   0.811 -0.2532 -0.1700 -0.0292
 2803SOL    HW116789   9.823   4.384   0.723  0.9423 -0.3423 -0.7040
 2803SOL    HW216790   9.832   4.450   0.872  0.1381  1.2620 -1.3498
 2804SOL     OW16791   3.061   9.655   1.953 -0.2824  0.3963  0.7182
 2804SOL    HW116792   3.002   9.712   2.009 -1.9879 -0.9071  0.3157
 2804SOL    HW216793   3.038   9.669   1.856  0.1492 -0.0323  0.5521
 2805SOL     OW16794   0.720   7.121   1.866 -0.4962  0.0901  0.2362
 2805SOL    HW116795   0.682   7.117   1.774 -0.7464 -0.3702  0.3563
 2805SOL    HW216796   0.791   7.050   1.875  0.2012  0.7636  0.0971
 2806SOL     OW16797   9.455   2.926   2.177  0.1259 -0.2844  0.0513
 2806SOL    HW116798   9.369   2.970   2.153  1.1206  1.1808 -0.9223
 2806SOL    HW216799   9.529   2.965   2.123  1.7342 -0.0538  2.3342
 2807SOL     OW16800   7.597   0.025   1.931 -0.3113 -0.6144  0.1339
 2807SOL    HW116801   7.566  -0.036   1.858  1.5879  1.4588 -2.5072
 2807SOL    HW216802   7.686  -0.007   1.965 -0.6885 -0.9657  0.7934
 2808SOL     OW16803   2.325   0.393   0.556 -0.0406  0.0253  0.0909
 2808SOL    HW116804   2.289   0.311   0.510  0.5171  0.6851 -1.5466
 2808SOL    HW216805   2.280   0.404   0.644  0.2987 -2.3817  0.5946
 2809SOL     OW16806   3.313   9.451   1.605 -0.3903 -0.4393  0.0586
 2809SOL    HW116807   3.388   9.470   1.668 -1.1080  0.8997  0.5291
 2809SOL    HW216808   3.263   9.370   1.636  1.5046 -2.0090 -0.8705
 2810SOL     OW16809   9.782   8.868   1.610 -0.4637 -0.0635 -0.2177
 2810SOL    HW116810   9.864   8.856   1.554 -0.5037  0.6658 -0.4317
 2810SOL    HW216811   9.808   8.902   1.701 -0.3613 -1.6563  0.3606
 2811SOL     OW16812   2.008   6.795   1.580 -0.2168  0.6520  0.6505
 2811SOL    HW116813   1.930   6.737   1.605  1.2361 -1.2943  0.8325
 2811SOL    HW216814   1.976   6.888   1.561 -2.5485 -0.0640  0.8768
 2812SOL     OW16815   7.943   0.557   1.581 -0.5447  0.0243  0.0805
 2812SOL    HW116816   7.930   0.514   1.491  0.7379  0.9541 -0.5648
 2812SOL    HW216817   8.027   0.521   1.623 -1.3237 -0.6687  1.0796
 2814SOL     OW16818   2.686   1.565   0.950  0.0707  0.0163  0.3750
 2814SOL    HW116819   2.605   1.511   0.973 -1.4956  1.9266 -0.4620
 2814SOL    HW216820   2.694   1.572   0.850  1.6526 -0.7096  0.4464
 2816SOL     OW16821   1.609   0.858   0.346 -0.3812  0.2134 -0.3316
 2816SOL    HW116822   1.562   0.929   0.293 -1.3004 -0.6211 -0.6589
 2816SOL    HW216823   1.553   0.775   0.347  0.5672 -0.4291  0.2519
 2817SOL     OW16824   9.652   7.087   1.806 -0.0464  0.0350 -0.3623
 2817SOL    HW116825   9.742   7.107   1.769 -0.0300  1.7098  0.5185
 2817SOL    HW216826   9.614   7.170   1.847 -0.4964 -1.5050  2.4493
 2818SOL     OW16827   4.090   0.596   1.205  0.4052 -0.1487 -0.1445
 2818SOL    HW116828   4.105   0.615   1.108 -0.4661 -0.8993 -0.4350
 2818SOL    HW216829   4.001   0.633   1.232  1.1508  1.0902  0.6612
 2819SOL     OW16830   2.417   3.838   2.043  0.3033 -0.1781  0.5031
 2819SOL    HW116831   2.320   3.862   2.047  0.3163 -0.0239 -0.0398
 2819SOL    HW216832   2.460   3.859   2.131 -0.4825 -1.7137  1.2647
 2821SOL     OW16833   1.932   4.569   0.333 -0.3511  0.4106  0.6119
 2821SOL    HW116834   2.009   4.510   0.356 -0.5898 -0.1262  0.0348
 2821SOL    HW216835   1.912   4.562   0.235 -0.7919  0.9524  0.6582
 2822SOL     OW16836   0.139   5.262   0.415  0.1243 -0.4486 -0.6304
 2822SOL    HW116837   0.042   5.272   0.437  0.4761 -0.0227  0.8267
 2822SOL    HW216838   0.158   5.304   0.327 -0.7153  0.9343 -0.1637
 2823SOL     OW16839   0.131   7.742   1.135  0.1773  0.5887  0.3019
 2823SOL    HW116840   0.204   7.808   1.117 -0.2398  0.8077 -0.5931
 2823SOL    HW216841   0.171   7.650   1.139  0.5070  0.7062 -0.1827
 2824SOL     OW16842   0.345   9.113   1.080 -0.0134  0.6642 -0.3620
 2824SOL    HW116843   0.346   9.126   0.981 -0.2683  0.9421 -0.3303
 2824SOL    HW216844   0.282   9.179   1.121 -0.2285  0.2677 -0.0530
 2825SOL     OW16845   8.829   8.904   1.354  0.3638  0.3191  0.2500
 2825SOL    HW116846   8.898   8.884   1.284  0.4355 -1.0598  0.6954
 2825SOL    HW216847   8.847   8.994   1.394  1.5172  0.2505 -0.1055
 2827SOL     OW16848   1.468   2.178   1.774 -0.0514 -0.5296  0.0748
 2827SOL    HW116849   1.477   2.092   1.724  1.2805 -0.1531 -0.3491
 2827SOL    HW216850   1.380   2.219   1.753  0.0015 -0.9583 -1.0443
 2829SOL     OW16851   9.268   7.470   0.408  0.1309  0.4822 -0.3435
 2829SOL    HW116852   9.282   7.569   0.409  2.0243  0.2419 -1.2123
 2829SOL    HW216853   9.314   7.431   0.328  0.4642 -1.2482  0.6840
 2830SOL     OW16854  -0.018   5.094   1.791  0.2072 -0.5677 -0.0480
 2830SOL    HW116855  -0.065   5.182   1.786  1.9849  0.3494 -1.3210
 2830SOL    HW216856   0.025   5.083   1.881 -0.5119 -0.3868  0.3134
 2831SOL     OW16857   1.805   9.532   0.797  0.2216 -0.0119  0.5830
 2831SOL    HW116858   1.739   9.607   0.811 -2.9111 -2.4265 -0.6649
 2831SOL    HW216859   1.828   9.492   0.886 -1.2182 -0.0985  0.9435
 2832SOL     OW16860   9.121   0.483   0.819  0.7144  0.0887 -0.0676
 2832SOL    HW116861   9.070   0.556   0.774  0.1339 -1.2559 -1.6238
 2832SOL    HW216862   9.060   0.433   0.881  0.4473 -0.6681 -0.9211
 2833SOL     OW16863   3.618   9.829   1.929  0.2019 -0.3717 -0.3758
 2833SOL    HW116864   3.663   9.811   1.841 -0.3975  2.2133 -1.2541
 2833SOL    HW216865   3.538   9.887   1.914  2.7477  4.1195  2.3175
 2835SOL     OW16866   2.326   5.316   0.323 -0.2316  0.1906 -0.0775
 2835SOL    HW116867   2.309   5.359   0.412  0.6587 -1.1547  0.7693
 2835SOL    HW216868   2.423   5.294   0.316 -0.3585  0.0231 -1.2634
 2836SOL     OW16869   1.791   2.607   0.397  1.1250  0.7798  0.3169
 2836SOL    HW116870   1.755   2.681   0.339  0.8512 -0.0720 -0.6079
 2836SOL    HW216871   1.741   2.606   0.484 -1.7829 -0.9703 -1.2938
 2840SOL     OW16872   9.739   2.430   1.273  0.7518  0.5647 -0.8424
 2840SOL    HW116873   9.686   2.367   1.331  1.0932  0.2870 -0.8280
 2840SOL    HW216874   9.702   2.429   1.180  1.5091 -0.5820 -1.1439
 2841SOL     OW16875   2.945   7.852   0.563  0.1225 -0.5780  0.2177
 2841SOL    HW116876   3.017   7.846   0.495  1.4349  0.8638  1.4298
 2841SOL    HW216877   2.985   7.877   0.652 -1.6465 -1.5117  1.3046
 2842SOL     OW16878   1.414   9.749   1.332 -0.3859  0.2371 -0.2051
 2842SOL    HW116879   1.335   9.691   1.354  1.6711 -2.0483  1.4101
 2842SOL    HW216880   1.442   9.733   1.238 -1.1026  0.1566 -0.4090
 2843SOL     OW16881   2.790   8.378   1.332 -0.0987 -0.2899 -0.7878
 2843SOL    HW116882   2.732   8.412   1.258  0.6756 -0.4369 -1.4601
 2843SOL    HW216883   2.848   8.453   1.365 -0.9404 -0.0382  0.1543
 2844SOL     OW16884   0.911   1.118   1.719  0.2822  0.5334 -0.2906
 2844SOL    HW116885   0.970   1.159   1.789 -0.1362 -0.0381  0.4014
 2844SOL    HW216886   0.822   1.097   1.759 -0.6398  1.9955 -1.4768
 2846SOL     OW16887   4.355   0.793   0.910 -0.7052  0.5258 -0.0328
 2846SOL    HW116888   4.290   0.719   0.926 -0.2581  0.1868  0.2476
 2846SOL    HW216889   4.446   0.754   0.895  0.2111  1.1055  3.4205
 2848SOL     OW16890   9.867   0.816   0.645  0.0129  1.0489  0.3013
 2848SOL    HW116891   9.821   0.795   0.732  2.0807 -0.6058  1.0481
 2848SOL    HW216892   9.845   0.910   0.618 -1.1912  1.3845  2.2803
 2850SOL     OW16893   2.933   9.187   0.486 -0.1155  0.5473  0.0314
 2850SOL    HW116894   2.984   9.253   0.431 -0.6661  0.5789 -0.4497
 2850SOL    HW216895   2.835   9.195   0.465 -0.2896  0.3163  0.7597
 2851SOL     OW16896   8.597   6.546   0.580  0.3328 -0.5239 -0.5575
 2851SOL    HW116897   8.614   6.474   0.648  1.0042  0.5341  0.4151
 2851SOL    HW216898   8.597   6.506   0.489  1.8963 -1.5698 -0.1218
 2852SOL     OW16899   1.421   0.349   2.173  0.1047  0.2666  0.7022
 2852SOL    HW116900   1.341   0.291   2.185 -0.1944  0.7733  1.1891
 2852SOL    HW216901   1.503   0.298   2.198  0.0558 -0.6512 -0.9781
 2853SOL     OW16902   3.224   4.365   1.976  0.9063 -0.6011  0.5191
 2853SOL    HW116903   3.135   4.386   2.016  0.8463  1.1752 -0.5015
 2853SOL    HW216904   3.240   4.424   1.897  2.0743 -2.3959 -0.6164
 2854SOL     OW16905   2.688   2.427   0.716  0.3523  0.6574  0.6635
 2854SOL    HW116906   2.679   2.328   0.722  1.0684  0.4964 -0.6847
 2854SOL    HW216907   2.769   2.456   0.768 -0.8034  0.7352  2.4511
 2855SOL     OW16908   1.516   9.755   1.870  0.1721 -0.4623 -0.4040
 2855SOL    HW116909   1.504   9.796   1.780  0.8295  0.3535 -0.1235
 2855SOL    HW216910   1.433   9.770   1.925 -0.5527 -1.6764 -1.1328
 2856SOL     OW16911   2.957   6.798   0.441 -0.1634  0.3184  0.1085
 2856SOL    HW116912   2.994   6.731   0.505 -0.2730 -0.5720 -0.7516
 2856SOL    HW216913   2.952   6.888   0.485  0.0728 -0.2208  1.2317
 2857SOL     OW16914   1.322   6.433   0.603  0.2162 -0.5810 -0.0914
 2857SOL    HW116915   1.291   6.524   0.577 -0.9969 -0.8625  0.3212
 2857SOL    HW216916   1.375   6.439   0.688  0.7100 -0.1782 -0.4271
 2858SOL     OW16917   7.842   8.291   1.296 -0.2500 -0.1968 -0.4801
 2858SOL    HW116918   7.813   8.360   1.362 -1.6995 -0.7383 -0.5331
 2858SOL    HW216919   7.762   8.242   1.261  0.4486  0.2530 -2.8226
 2859SOL     OW16920   0.650   5.023   2.059  0.3639 -0.0413 -0.3004
 2859SOL    HW116921   0.639   4.928   2.089  1.2699  0.2201  0.9232
 2859SOL    HW216922   0.576   5.078   2.097  1.1278  0.1613  0.9179
 2861SOL     OW16923   3.590   5.159   2.084  0.0008  0.1040  0.4711
 2861SOL    HW116924   3.600   5.225   2.010  0.0293  0.0173  0.3964
 2861SOL    HW216925   3.508   5.103   2.068  0.2706 -0.2338  0.2503
 2862SOL     OW16926   1.478   9.738   1.068 -0.2078 -0.3503 -0.4257
 2862SOL    HW116927   1.457   9.732   0.971  1.6728 -2.8106 -0.7288
 2862SOL    HW216928   1.525   9.824   1.087 -0.4591  0.0778 -1.7154
 2863SOL     OW16929   1.335   9.352   1.872 -0.2976  0.2785 -0.1660
 2863SOL    HW116930   1.344   9.354   1.772 -2.1926  1.2221 -0.3439
 2863SOL    HW216931   1.294   9.438   1.903  2.5215  1.0051  1.6884
 2864SOL     OW16932   8.875   1.498   0.539  0.1784 -0.1057  0.0960
 2864SOL    HW116933   8.902   1.578   0.485 -0.7554  1.2767  1.6434
 2864SOL    HW216934   8.949   1.431   0.537  1.0933  0.9058 -0.9967
 2865SOL     OW16935   2.491   1.600   1.978  0.3422  0.0376  0.5556
 2865SOL    HW116936   2.558   1.530   2.004  0.0181 -0.1647  0.8450
 2865SOL    HW216937   2.444   1.633   2.059 -0.2359 -0.1530  0.2976
 2866SOL     OW16938   2.661   5.210   2.292 -0.1352  0.1185  0.1754
 2866SOL    HW116939   2.637   5.253   2.379 -2.0952 -1.6395  0.5452
 2866SOL    HW216940   2.682   5.114   2.307  2.2992  0.4208 -0.9287
 2867SOL     OW16941   0.972   5.131   1.685  0.7935  0.3487 -0.1485
 2867SOL    HW116942   0.911   5.205   1.657  0.3529  0.2198  0.4667
 2867SOL    HW216943   1.033   5.107   1.609 -0.3634  0.0333 -0.9934
 2869SOL     OW16944   3.367   0.002   1.794  0.1133 -0.0717  0.4930
 2869SOL    HW116945   3.341   0.095   1.771 -1.0520 -0.5123 -0.0235
 2869SOL    HW216946   3.374  -0.053   1.710 -1.1048 -0.9210  0.9342
 2870SOL     OW16947   0.498   2.546   2.160 -0.4910  0.7973  0.0767
 2870SOL    HW116948   0.586   2.577   2.195  0.2637  0.1522 -1.2325
 2870SOL    HW216949   0.467   2.466   2.211  1.4531 -1.2334 -1.8618
 2871SOL     OW16950   3.363   8.950   1.533 -0.2180 -0.2260  0.4263
 2871SOL    HW116951   3.359   8.886   1.609 -1.8404 -1.1267 -0.3771
 2871SOL    HW216952   3.450   8.940   1.485 -0.9252 -2.7260 -0.4243
 2872SOL     OW16953   0.361   4.988   2.030  0.0209 -0.3917  0.6760
 2872SOL    HW116954   0.388   4.988   1.934 -0.1171 -0.6826  0.6349
 2872SOL    HW216955   0.333   5.080   2.058 -2.1108 -0.7511 -0.1730
 2873SOL     OW16956   3.820   9.357   2.172 -0.0673  0.1923 -0.1949
 2873SOL    HW116957   3.772   9.439   2.141  1.1505  0.9576 -0.1084
 2873SOL    HW216958   3.754   9.284   2.191 -0.9735  0.2799 -2.8755
 2874SOL     OW16959   8.719   2.688   0.723 -0.3265  0.2351  0.5623
 2874SOL    HW116960   8.688   2.594   0.740 -0.0958  0.6115  3.3144
 2874SOL    HW216961   8.665   2.751   0.778  0.1252  1.6545 -0.5834
 2875SOL     OW16962   8.556   7.069   0.709  0.1158 -0.6682 -0.4404
 2875SOL    HW116963   8.630   7.134   0.693  0.1590 -0.6737 -0.2520
 2875SOL    HW216964   8.573   6.985   0.657  0.1561 -0.6047 -0.5293
 2877SOL     OW16965   9.440   1.221   1.589 -0.1606  0.3856 -0.2767
 2877SOL    HW116966   9.350   1.236   1.549 -0.4392  1.1359  0.6324
 2877SOL    HW216967   9.478   1.135   1.554 -1.4501 -0.2015 -0.2733
 2878SOL     OW16968   3.933   3.263   0.514  0.2688 -1.0052 -0.1512
 2878SOL    HW116969   3.986   3.228   0.437  0.9591 -0.5692  0.1270
 2878SOL    HW216970   3.935   3.363   0.514  0.9341 -1.0082  0.8893
 2879SOL     OW16971   0.353   3.141   1.837  0.4980  0.2795 -0.6747
 2879SOL    HW116972   0.428   3.136   1.772  1.6815  0.0438  0.6751
 2879SOL    HW216973   0.385   3.184   1.922 -0.7160 -0.4146  0.1548
 2882SOL     OW16974   1.437   3.770   0.446  0.2127 -0.2064  0.7393
 2882SOL    HW116975   1.482   3.857   0.423 -0.6205  0.0643  0.1018
 2882SOL    HW216976   1.397   3.777   0.537 -0.2383  0.2406  0.5116
 2885SOL     OW16977   0.127   9.663   0.621  0.1791 -0.0140 -0.3947
 2885SOL    HW116978   0.077   9.604   0.557  0.6600 -0.6755 -0.1662
 2885SOL    HW216979   0.115   9.759   0.594 -1.1461 -0.1695 -0.3818
 2886SOL     OW16980   2.056   5.687   1.056  0.7969 -0.7027 -0.2887
 2886SOL    HW116981   2.006   5.769   1.086  2.3413  0.2957 -0.3687
 2886SOL    HW216982   2.020   5.607   1.104 -1.8312 -0.2464 -1.4105
 2887SOL     OW16983   9.780   5.922   1.035 -0.1731 -0.0529  0.8041
 2887SOL    HW116984   9.849   5.917   1.107 -0.0185  0.2367  0.6778
 2887SOL    HW216985   9.815   5.977   0.959 -0.9114  0.9121  1.1507
 2889SOL     OW16986   1.201   1.804   1.803 -0.3757 -0.2867  0.0777
 2889SOL    HW116987   1.285   1.751   1.815 -0.8893 -0.7487  1.7427
 2889SOL    HW216988   1.124   1.742   1.789 -0.8184  0.0384  1.0235
 2890SOL     OW16989   0.367   2.779   2.059 -0.5620 -0.7393 -0.1401
 2890SOL    HW116990   0.433   2.844   2.021 -1.9606  0.7987 -0.0133
 2890SOL    HW216991   0.411   2.690   2.071  0.8829 -0.3169 -2.0207
 2891SOL     OW16992   4.491   8.728   0.413 -0.0240  0.5611  0.0540
 2891SOL    HW116993   4.500   8.756   0.318  1.7806 -0.8268 -0.2255
 2891SOL    HW216994   4.438   8.643   0.419  0.6560  0.1358  0.1749
 2892SOL     OW16995   1.689   9.783   0.866 -0.6391 -0.0147 -0.9183
 2892SOL    HW116996   1.735   9.872   0.866  0.9446 -0.7935 -3.0387
 2892SOL    HW216997   1.676   9.753   0.961  0.3582  1.6788 -0.2100
 2893SOL     OW16998   9.585   5.541   0.859  0.5378 -0.0691 -0.0927
 2893SOL    HW116999   9.554   5.450   0.832  0.1807 -0.7423  2.4500
 2893SOL    HW217000   9.657   5.533   0.928  1.0525  1.5769 -0.4149
 2894SOL     OW17001   9.320   8.191   0.723  0.2213 -0.0502  0.0341
 2894SOL    HW117002   9.354   8.177   0.816  0.9018  0.9858 -0.0510
 2894SOL    HW217003   9.396   8.215   0.663 -0.2245 -0.6534 -0.7778
 2895SOL     OW17004   9.632   5.330   1.585 -0.0299  0.7985 -0.1969
 2895SOL    HW117005   9.713   5.329   1.643 -0.5073  1.0743  0.4810
 2895SOL    HW217006   9.643   5.264   1.511  0.5225  0.3405  0.2923
 2896SOL     OW17007   8.635   7.424   1.586  0.0831 -0.0092 -0.3647
 2896SOL    HW117008   8.576   7.487   1.638  0.0884  0.2912 -0.7204
 2896SOL    HW217009   8.631   7.447   1.489 -1.2325 -1.6192 -0.7269
 2897SOL     OW17010   4.441   3.065   0.649 -0.0655  0.2886 -0.4481
 2897SOL    HW117011   4.361   3.090   0.595  1.2140  1.0831 -2.0039
 2897SOL    HW217012   4.471   3.145   0.703 -0.6189 -0.1603  0.5498
 2898SOL     OW17013   8.881   8.118   0.675  0.3510 -0.3797  0.1034
 2898SOL    HW117014   8.818   8.056   0.721 -0.5726  1.3509  1.2290
 2898SOL    HW217015   8.957   8.140   0.736 -0.8468  1.8807  0.8028
 2899SOL     OW17016   9.095   5.202   1.297 -0.0464  0.8116 -0.6012
 2899SOL    HW117017   9.102   5.240   1.205  0.5535 -0.1086 -0.9468
 2899SOL    HW217018   9.175   5.230   1.351  0.7362 -0.4955 -1.0658
 2900SOL     OW17019   3.799   9.499   1.682  0.0240 -0.4764  0.3253
 2900SOL    HW117020   3.867   9.461   1.744  0.6795  2.2429  1.3616
 2900SOL    HW217021   3.832   9.494   1.588  1.1801 -0.2302  0.7092
 2901SOL     OW17022   1.985   3.201   1.861 -0.0101  0.7388  0.0923
 2901SOL    HW117023   2.024   3.208   1.953 -1.3553 -0.6935  0.7966
 2901SOL    HW217024   1.889   3.173   1.868 -0.5114  1.9634 -1.7000
 2902SOL     OW17025   0.659   9.323   0.824 -0.6067 -0.3741 -0.0336
 2902SOL    HW117026   0.732   9.373   0.780 -2.9396  0.6395 -2.8982
 2902SOL    HW217027   0.669   9.328   0.923  1.6699  1.9820 -0.3641
 2903SOL     OW17028   2.138   5.514   0.554  0.4729  0.2034 -0.2140
 2903SOL    HW117029   2.143   5.518   0.653  0.2452  1.6609 -0.2495
 2903SOL    HW217030   2.056   5.464   0.526  0.4963 -0.1373  0.3270
 2904SOL     OW17031   1.155   8.473   1.603 -0.4883 -0.0327 -0.0675
 2904SOL    HW117032   1.183   8.474   1.507  0.7605  0.9876  0.2913
 2904SOL    HW217033   1.135   8.379   1.632 -1.2042 -0.3046 -1.4038
 2905SOL     OW17034   7.923   0.871   0.627  0.2335 -0.3668  0.3764
 2905SOL    HW117035   7.905   0.817   0.545  1.0277  0.0100 -0.0514
 2905SOL    HW217036   7.841   0.873   0.684  0.0592 -1.6515  0.1845
 2906SOL     OW17037   5.458   3.717   0.646 -0.5662  0.2828  0.5412
 2906SOL    HW117038   5.460   3.764   0.559  2.2861  1.3932  1.1644
 2906SOL    HW217039   5.392   3.642   0.642 -1.2037  0.9516 -2.2006
 2911SOL     OW17040   9.782   4.622   1.913  0.0969 -0.5902  0.3368
 2911SOL    HW117041   9.763   4.592   2.006 -1.8064  1.0457  0.5115
 2911SOL    HW217042   9.771   4.546   1.849 -0.4595 -1.2627  1.2301
 2912SOL     OW17043   2.536   1.738   2.275  0.2743  0.0387  0.1637
 2912SOL    HW117044   2.625   1.695   2.294 -0.1233 -0.5940  0.6139
 2912SOL    HW217045   2.463   1.674   2.298 -0.2516 -0.8798 -3.7468
 2915SOL     OW17046   1.042   9.117   0.990  0.2858  0.2272  0.0140
 2915SOL    HW117047   1.128   9.140   0.944  0.7853 -1.8319 -0.1251
 2915SOL    HW217048   0.973   9.186   0.967  0.9576  0.1096 -2.5588
 2916SOL     OW17049   1.209   2.944   2.332  0.4548  0.8700 -0.0464
 2916SOL    HW117050   1.185   3.026   2.280 -2.9185 -0.0089 -0.0554
 2916SOL    HW217051   1.217   2.867   2.269  0.4582  0.5882  0.3009
 2917SOL     OW17052   1.424   2.485   0.342 -0.2125 -0.3029  0.0482
 2917SOL    HW117053   1.510   2.454   0.382  0.2546 -0.8078 -1.2932
 2917SOL    HW217054   1.430   2.478   0.242 -2.6685 -2.6885  0.0104
 2918SOL     OW17055   9.541   6.009   0.944 -0.2882 -0.7342  0.5489
 2918SOL    HW117056   9.630   6.001   0.989  0.7258 -0.1356 -1.2975
 2918SOL    HW217057   9.513   5.921   0.906 -0.7323 -1.0335  1.5442
 2920SOL     OW17058   1.856   2.745   1.261 -0.1017  0.2010  0.1789
 2920SOL    HW117059   1.955   2.752   1.266  0.0128 -0.3368 -1.1555
 2920SOL    HW217060   1.825   2.668   1.318  0.3083 -0.0778  0.0282
 2921SOL     OW17061   0.593   8.605   0.889  0.7685  0.0229  0.4531
 2921SOL    HW117062   0.633   8.692   0.918 -0.0092  1.0487 -1.4560
 2921SOL    HW217063   0.504   8.593   0.933  0.8139  0.2638  0.6096
 2922SOL     OW17064   3.584   8.134   1.136  0.4710  0.6052 -0.0593
 2922SOL    HW117065   3.552   8.178   1.052 -0.0580  0.6513  0.1641
 2922SOL    HW217066   3.522   8.155   1.211 -1.4417 -2.8650 -0.5645
 2923SOL     OW17067   2.028   0.123   0.654  0.2859 -0.1978  0.6076
 2923SOL    HW117068   2.007   0.216   0.684  2.2316  1.1103 -1.9780
 2923SOL    HW217069   1.961   0.094   0.585  1.0116  0.1163 -0.2215
 2924SOL     OW17070   2.014   6.000   0.863  0.2267  0.3030  0.0679
 2924SOL    HW117071   2.004   5.968   0.957 -0.0014 -1.7993 -0.6365
 2924SOL    HW217072   2.063   5.932   0.810 -1.6782  0.3898 -1.8815
 2925SOL     OW17073   2.626   1.854   0.633  0.0132 -0.0048 -0.9477
 2925SOL    HW117074   2.710   1.811   0.597 -0.1397 -0.3890 -0.8423
 2925SOL    HW217075   2.650   1.916   0.708  0.1296 -0.6222 -0.4747
 2926SOL     OW17076   3.240   8.059   1.150  0.0164  0.4395  0.0262
 2926SOL    HW117077   3.297   8.125   1.200  1.6840 -1.2043  0.3309
 2926SOL    HW217078   3.280   7.968   1.157 -2.0509 -0.5539 -0.7449
 2928SOL     OW17079   4.529   3.364   1.344 -0.3173  0.1351 -0.0120
 2928SOL    HW117080   4.543   3.416   1.428 -0.6050 -1.1786  0.8697
 2928SOL    HW217081   4.432   3.339   1.335 -0.2859  0.2351 -0.7189
 2929SOL     OW17082   8.786   0.277   1.084  0.3478 -0.1354 -0.2820
 2929SOL    HW117083   8.746   0.279   1.175  0.1333  0.7623 -0.3909
 2929SOL    HW217084   8.717   0.303   1.017  0.6985 -0.0915 -0.6285
 2930SOL     OW17085   2.383   6.887   1.294  0.1492  0.0285  0.1211
 2930SOL    HW117086   2.297   6.875   1.245 -0.2341  3.8062 -0.3119
 2930SOL    HW217087   2.365   6.924   1.385  1.2505 -0.3665  0.5036
 2933SOL     OW17088   2.450   8.125   2.158 -0.1306  0.1279 -0.2021
 2933SOL    HW117089   2.410   8.096   2.071 -0.9613 -0.5052  0.3812
 2933SOL    HW217090   2.549   8.138   2.147 -0.2139 -0.0653 -1.2014
 2934SOL     OW17091   2.326   4.512   1.894 -0.1665 -0.7938  0.0965
 2934SOL    HW117092   2.367   4.427   1.925  0.2226 -0.6024  0.1114
 2934SOL    HW217093   2.283   4.498   1.805  0.0956 -0.9453 -0.0047
 2935SOL     OW17094   8.183   9.441   1.294  0.1422  0.1914  0.7844
 2935SOL    HW117095   8.170   9.357   1.347  0.8502 -1.3314 -1.3910
 2935SOL    HW217096   8.118   9.510   1.324 -0.1807 -0.9962  2.8882
 2936SOL     OW17097   2.258   5.138   1.231  0.4340  0.2815  0.9782
 2936SOL    HW117098   2.238   5.236   1.234  1.3793  0.5356 -0.4174
 2936SOL    HW217099   2.315   5.113   1.309  0.9793  1.0453  0.8368
 2937SOL     OW17100   3.878   9.731   1.042 -0.0188 -0.1171  0.0771
 2937SOL    HW117101   3.803   9.772   0.991 -0.8784 -1.1051  0.5121
 2937SOL    HW217102   3.867   9.749   1.139 -0.9965 -2.2332  0.3890
 2938SOL     OW17103   9.114   0.546   1.993  0.1199  0.6695  0.3721
 2938SOL    HW117104   9.017   0.527   1.976  0.2899 -2.5124  2.3815
 2938SOL    HW217105   9.124   0.636   2.036 -2.4229 -0.5756  3.7980
 2939SOL     OW17106   2.659   3.163   1.415  0.2960 -0.0433  0.3478
 2939SOL    HW117107   2.725   3.140   1.486 -0.4937 -1.9888  0.4874
 2939SOL    HW217108   2.581   3.210   1.455  0.0521 -0.7551  0.7252
 2941SOL     OW17109   4.259   0.383   1.019 -0.1563  0.3680 -0.0442
 2941SOL    HW117110   4.224   0.476   1.032 -1.8223 -0.3478  0.8790
 2941SOL    HW217111   4.182   0.320   1.009  0.9091 -1.1435  1.0302
 2942SOL     OW17112   2.693   7.880   0.684  0.3669 -0.1927  0.1349
 2942SOL    HW117113   2.648   7.943   0.620 -0.7857 -2.7885 -1.6706
 2942SOL    HW217114   2.790   7.876   0.663  0.2735  0.1979 -0.4024
 2943SOL     OW17115   8.985   7.413   2.092  0.0997 -0.0397 -0.3786
 2943SOL    HW117116   8.946   7.327   2.060  0.0843 -0.2652  0.2410
 2943SOL    HW217117   8.971   7.422   2.190  2.1397 -0.4007 -0.0427
 2944SOL     OW17118   1.523   9.051   2.274 -0.1570  0.3690  0.2565
 2944SOL    HW117119   1.512   9.053   2.175 -0.4244  0.2662  0.2854
 2944SOL    HW217120   1.515   8.957   2.308 -0.5040  0.4568  0.4245
 2945SOL     OW17121   0.121   5.954   0.961  0.8603 -0.4415 -0.3482
 2945SOL    HW117122   0.219   5.971   0.959  0.7099  0.4189 -0.3160
 2945SOL    HW217123   0.098   5.888   0.889  1.4167 -0.4403 -0.5332
 2946SOL     OW17124   2.577   0.865   0.320  0.5610 -0.2695  0.4986
 2946SOL    HW117125   2.670   0.829   0.321  0.7577  0.1951  3.2117
 2946SOL    HW217126   2.576   0.956   0.280  1.2067 -0.4127  0.1554
 2949SOL     OW17127   2.005   7.713   2.273  0.2862  0.1412  0.7233
 2949SOL    HW117128   2.060   7.630   2.264  0.1700 -0.0889  2.0633
 2949SOL    HW217129   2.052   7.778   2.332 -1.0354 -0.2043  2.1898
 2951SOL     OW17130   1.983   0.552   1.526  0.1402 -0.1545 -0.0904
 2951SOL    HW117131   2.038   0.635   1.511 -0.3194 -0.2245 -2.1922
 2951SOL    HW217132   2.043   0.478   1.557  1.1635 -0.0893 -1.8796
 2952SOL     OW17133   9.204   7.999   1.516  0.2489  0.2761  0.1128
 2952SOL    HW117134   9.111   8.016   1.483  0.1394  0.3188  0.4394
 2952SOL    HW217135   9.225   8.063   1.589 -0.0505 -0.7650  1.1369
 2954SOL     OW17136   0.393   8.600   1.833 -0.0576 -0.1895  0.2094
 2954SOL    HW117137   0.404   8.514   1.882  0.0131  0.2644  1.0004
 2954SOL    HW217138   0.435   8.674   1.886 -1.6690  0.6138  0.3978
 2955SOL     OW17139   2.597   9.800   1.957 -0.2264  0.2087 -0.1668
 2955SOL    HW117140   2.575   9.856   1.877  0.7900  0.6536 -0.1479
 2955SOL    HW217141   2.641   9.716   1.927 -3.1159 -1.3340 -0.3010
 2956SOL     OW17142   3.168   0.884   1.079 -0.1137  0.0230  0.5071
 2956SOL    HW117143   3.104   0.852   1.010  1.4758 -1.7708 -0.1876
 2956SOL    HW217144   3.126   0.875   1.170 -1.9255  1.6813 -0.1415
 2957SOL     OW17145   8.860   9.213   1.866  0.1898 -0.0830 -0.2564
 2957SOL    HW117146   8.763   9.210   1.844 -0.1027 -0.8656  1.0872
 2957SOL    HW217147   8.871   9.244   1.961  1.2752  0.5116 -0.5738
 2958SOL     OW17148   4.517   3.334   0.735 -0.3394  0.2885  0.9159
 2958SOL    HW117149   4.605   3.369   0.767 -0.6358  0.9577  1.0054
 2958SOL    HW217150   4.443   3.374   0.789 -0.7708  0.5332  0.1581
 2959SOL     OW17151   9.494   7.072   1.015 -0.9555 -0.5992 -0.4612
 2959SOL    HW117152   9.507   7.171   1.008  4.4633 -1.2792 -2.6266
 2959SOL    HW217153   9.479   7.034   0.924 -0.2619 -2.0511  0.0148
 2960SOL     OW17154   8.225   8.352   2.038  1.0616 -0.1482  0.1468
 2960SOL    HW117155   8.221   8.437   1.985 -0.6693 -0.2800  0.0468
 2960SOL    HW217156   8.202   8.274   1.979 -0.0775 -0.3842  0.8773
 2961SOL     OW17157   9.577   9.678   0.513  0.3936 -0.4891  0.4551
 2961SOL    HW117158   9.656   9.739   0.517  1.1561 -1.5624  2.8308
 2961SOL    HW217159   9.605   9.589   0.476 -0.0034 -0.4545  0.0681
 2962SOL     OW17160   3.010   5.460   1.779 -0.1143  0.8102  0.0231
 2962SOL    HW117161   3.041   5.403   1.855 -0.2745  1.7388  0.8073
 2962SOL    HW217162   3.013   5.408   1.694 -0.7141 -0.5063  0.7917
 2963SOL     OW17163   9.640   5.268   1.276  0.5624 -0.3836  0.3182
 2963SOL    HW117164   9.602   5.347   1.226  0.0890 -0.4340  0.5882
 2963SOL    HW217165   9.613   5.184   1.230  0.7306 -0.4015  0.2540
 2964SOL     OW17166   1.549   4.978   1.910  0.5985 -0.0755  0.1898
 2964SOL    HW117167   1.547   4.915   1.988  1.2116  0.0546  0.3131
 2964SOL    HW217168   1.493   4.940   1.836  0.5930 -0.5494  0.4317
 2965SOL     OW17169   3.561   0.316   1.267  0.4218 -0.8315 -0.2068
 2965SOL    HW117170   3.638   0.301   1.329 -0.3471 -0.6133  0.8144
 2965SOL    HW217171   3.558   0.243   1.199  1.6358 -0.7426 -0.3764
 2966SOL     OW17172   3.715   3.317   0.853  0.5086 -0.1938 -0.2627
 2966SOL    HW117173   3.794   3.377   0.856  1.2137 -1.1797  1.1056
 2966SOL    HW217174   3.634   3.366   0.887  0.9475  0.1854  0.2356
 2967SOL     OW17175   2.618   8.055   0.415 -0.1854 -0.4425 -0.2116
 2967SOL    HW117176   2.584   8.139   0.458  0.8960 -1.2284  2.2299
 2967SOL    HW217177   2.712   8.069   0.384  0.1501 -0.8816  0.5992
 2968SOL     OW17178   1.853   4.418   1.787  0.2466 -0.1219 -0.3153
 2968SOL    HW117179   1.790   4.428   1.710  1.7959 -1.6813 -1.8283
 2968SOL    HW217180   1.819   4.348   1.850  0.4975 -1.0212 -1.1725
 2971SOL     OW17181   1.254   6.152   1.365 -0.2138  0.4837  0.2786
 2971SOL    HW117182   1.300   6.224   1.416  1.1843  0.1432 -0.4798
 2971SOL    HW217183   1.156   6.170   1.363  0.0432  1.9840  0.7071
 2972SOL     OW17184   4.443   3.677   0.622  0.1246 -0.2166  0.2019
 2972SOL    HW117185   4.403   3.609   0.684  0.0419  1.2854  1.8161
 2972SOL    HW217186   4.477   3.754   0.674  0.5006  0.8693 -1.5993
 2974SOL     OW17187   7.507   9.875   0.829  0.0425  0.6171  0.5650
 2974SOL    HW117188   7.548   9.964   0.809  2.0094  0.1161  2.2245
 2974SOL    HW217189   7.545   9.806   0.767 -0.5953  0.7124  0.0653
 2975SOL     OW17190   0.985   1.113   1.075 -0.1267  0.2958 -0.2909
 2975SOL    HW117191   0.914   1.059   1.030  1.1440 -2.3621  0.8181
 2975SOL    HW217192   1.071   1.063   1.073  0.7359  1.6251  2.1308
 2976SOL     OW17193   8.737   7.016   0.394 -0.3599 -0.9798  0.2143
 2976SOL    HW117194   8.674   6.960   0.447 -1.0998 -0.6530 -0.2973
 2976SOL    HW217195   8.707   7.018   0.298  1.3627 -2.1505 -0.3648
 2978SOL     OW17196   9.652   8.660   0.703 -0.0770  0.0526 -0.3132
 2978SOL    HW117197   9.666   8.750   0.663 -1.0949 -0.1271 -1.0896
 2978SOL    HW217198   9.586   8.609   0.648  1.5661 -1.7079 -0.7160
 2979SOL     OW17199   2.310   0.064   0.901  0.2733 -0.2505  0.2086
 2979SOL    HW117200   2.232   0.025   0.851 -1.3269 -1.8474  3.7342
 2979SOL    HW217201   2.277   0.140   0.958  1.8212  0.7511 -0.2109
 2980SOL     OW17202   8.843   0.310   0.489 -0.4648 -0.3895  0.3102
 2980SOL    HW117203   8.862   0.269   0.400 -1.5005  0.0613 -0.1236
 2980SOL    HW217204   8.845   0.410   0.480 -0.1901 -0.3429  0.8798
 2981SOL     OW17205   2.270   5.053   0.986  0.2071 -0.4292 -0.2559
 2981SOL    HW117206   2.267   4.954   0.990 -0.8895 -0.3738  1.1835
 2981SOL    HW217207   2.278   5.090   1.079 -0.4985  0.8311 -0.6696
 2982SOL     OW17208   1.252   3.934   2.172 -0.1624 -0.2892 -0.2052
 2982SOL    HW117209   1.312   3.985   2.234  1.0495  0.3510 -1.8348
 2982SOL    HW217210   1.186   3.997   2.130  0.8764 -0.1504 -1.6877
 2983SOL     OW17211   3.276   3.719   2.057  0.0851  0.1154  0.4458
 2983SOL    HW117212   3.272   3.713   1.958  0.0778 -0.1424  0.4621
 2983SOL    HW217213   3.263   3.814   2.085  0.5195  0.2532  0.1781
 2984SOL     OW17214   2.320   9.055   0.347  0.4831  0.0376 -0.0766
 2984SOL    HW117215   2.223   9.032   0.356  0.4232  0.4968  0.4328
 2984SOL    HW217216   2.363   8.989   0.285 -0.0064 -0.5732  0.2161
 2985SOL     OW17217   2.793   0.012   1.607  0.5516  0.8431  0.5886
 2985SOL    HW117218   2.891  -0.010   1.607  0.8268  2.0137  0.1206
 2985SOL    HW217219   2.781   0.108   1.581 -0.7873  0.3874 -0.5357
 2987SOL     OW17220   2.304   7.488   1.497 -0.0542 -0.2073 -0.0051
 2987SOL    HW117221   2.376   7.520   1.436 -1.1978  2.1858 -0.1828
 2987SOL    HW217222   2.336   7.493   1.592  0.8635 -1.5501 -0.2361
 2988SOL     OW17223   0.876   7.326   0.493  0.5041  0.2568 -0.0602
 2988SOL    HW117224   0.961   7.282   0.523 -0.2292 -1.3244 -0.2460
 2988SOL    HW217225   0.872   7.324   0.393 -0.0522 -0.2561 -0.0277
 2990SOL     OW17226   9.759   0.763   1.170 -0.1108 -0.0617 -0.0708
 2990SOL    HW117227   9.682   0.701   1.182  1.0136 -1.9634 -2.2059
 2990SOL    HW217228   9.732   0.856   1.195 -3.5842 -0.3960 -2.2613
 2991SOL     OW17229   2.482   6.687   0.799  0.1037 -0.3693 -0.1430
 2991SOL    HW117230   2.434   6.654   0.880  0.9470 -0.3766  0.3616
 2991SOL    HW217231   2.461   6.627   0.721  0.3896 -1.1848  0.4005
 2992SOL     OW17232   9.692   3.917   1.368  0.2220  0.0786 -0.4860
 2992SOL    HW117233   9.633   3.932   1.448  1.3230  2.8496 -0.1419
 2992SOL    HW217234   9.777   3.875   1.396 -1.2643 -3.3865 -0.9050
 2993SOL     OW17235   0.512   9.440   2.073 -0.3771  0.2750  0.4414
 2993SOL    HW117236   0.479   9.476   1.985 -0.0830  0.3159  0.3477
 2993SOL    HW217237   0.437   9.392   2.119 -0.8638  1.2614  0.6979
 2994SOL     OW17238   1.015   1.979   1.071  0.5557 -0.6875  0.1143
 2994SOL    HW117239   0.977   2.028   1.149 -1.5656  1.2466 -2.0593
 2994SOL    HW217240   0.974   1.888   1.066 -1.3236  0.1463 -0.2320
 2995SOL     OW17241   3.003   4.240   1.509  0.2719 -0.1307 -0.2293
 2995SOL    HW117242   2.984   4.147   1.541  1.5307 -0.5202 -0.5785
 2995SOL    HW217243   2.978   4.248   1.413  0.2190 -0.1203 -0.2149
 2998SOL     OW17244   9.681   1.296   2.185  0.1299 -0.1066 -0.5043
 2998SOL    HW117245   9.647   1.355   2.259 -0.3592 -0.9877 -0.0025
 2998SOL    HW217246   9.637   1.206   2.193 -0.7601  0.1321 -2.5336
 2999SOL     OW17247   9.847   6.079   1.801 -0.1540  0.1565 -0.6212
 2999SOL    HW117248   9.945   6.066   1.785 -0.1366  0.4322 -0.7482
 2999SOL    HW217249   9.834   6.146   1.874 -0.2453 -0.1957 -0.3189
 3000SOL     OW17250   1.257   2.236   0.455  0.1073 -0.0775  0.6592
 3000SOL    HW117251   1.255   2.331   0.424  0.1078 -0.0381  0.7803
 3000SOL    HW217252   1.352   2.206   0.464  0.1076 -0.0589  0.7162
 3001SOL     OW17253   0.327   1.509   1.825  0.0264 -0.0705 -0.5078
 3001SOL    HW117254   0.359   1.601   1.848  1.5003 -0.7527  0.2289
 3001SOL    HW217255   0.390   1.442   1.863  1.1096 -1.3157 -4.2432
 3002SOL     OW17256   1.560   0.015   1.102  0.0163  0.4171  0.2500
 3002SOL    HW117257   1.613   0.023   1.186 -0.5241 -0.4474  0.6715
 3002SOL    HW217258   1.463   0.024   1.121 -0.1413 -0.2094 -0.2143
 3003SOL     OW17259   2.008   2.370   1.416 -0.1387  0.1087  0.8099
 3003SOL    HW117260   1.991   2.455   1.467  1.1425  0.8783 -0.0068
 3003SOL    HW217261   2.105   2.366   1.389 -0.6229 -0.6369 -0.8958
 3004SOL     OW17262   3.753   3.912   1.643  0.2950  0.1282  0.0448
 3004SOL    HW117263   3.717   3.928   1.551  0.6234  2.8397  0.3418
 3004SOL    HW217264   3.852   3.907   1.640  0.5119  3.2336  0.6034
 3006SOL     OW17265   3.908   2.247   1.615  0.4342 -0.1819 -0.5911
 3006SOL    HW117266   3.982   2.268   1.679 -0.3987  1.9978 -0.2908
 3006SOL    HW217267   3.946   2.212   1.529  1.6790 -1.0987  0.3309
 3007SOL     OW17268   3.475   3.073   1.069  0.4865 -0.3363 -0.2043
 3007SOL    HW117269   3.430   3.005   1.010  2.2840 -2.4262  0.7586
 3007SOL    HW217270   3.572   3.078   1.045  0.7345  0.5846  0.9678
 3008SOL     OW17271   1.518   4.749   2.207 -0.2772  0.1374  0.4262
 3008SOL    HW117272   1.616   4.741   2.193 -0.2838 -0.5374  0.7261
 3008SOL    HW217273   1.495   4.720   2.300 -0.4550  2.7837  1.2479
 3009SOL     OW17274   2.253   9.816   1.058 -0.4212  0.0989  0.6230
 3009SOL    HW117275   2.171   9.823   1.001  0.6085  0.8787 -0.8069
 3009SOL    HW217276   2.326   9.871   1.017  0.9360 -0.9240  1.6411
 3010SOL     OW17277   0.225   7.890   2.156 -0.1586  0.4333 -0.1127
 3010SOL    HW117278   0.169   7.897   2.238 -0.7606  1.7446 -0.6080
 3010SOL    HW217279   0.309   7.943   2.169 -0.1926  0.5308 -0.2868
 3011SOL     OW17280   3.397   3.642   1.196  0.0541  0.0880 -0.2057
 3011SOL    HW117281   3.359   3.673   1.283  2.7616  2.1212  0.3285
 3011SOL    HW217282   3.378   3.544   1.184  1.4334 -0.7389  3.6684
 3012SOL     OW17283   9.908   7.079   2.003 -0.0878 -0.3426  0.7007
 3012SOL    HW117284   9.998   7.116   2.027 -0.5201 -0.3852  2.4638
 3012SOL    HW217285   9.919   7.003   1.939  1.1876 -0.7614  1.3885
 3013SOL     OW17286   9.251   8.286   1.901 -0.6281  0.1363 -0.5104
 3013SOL    HW117287   9.211   8.363   1.852  2.6753  1.9981 -0.3928
 3013SOL    HW217288   9.272   8.313   1.995  2.4661 -0.1950 -1.0587
 3014SOL     OW17289   2.470   3.970   1.555  0.4384 -0.1505 -0.1805
 3014SOL    HW117290   2.384   3.976   1.506  0.4131 -0.1658 -0.1371
 3014SOL    HW217291   2.511   3.879   1.539 -0.2401 -0.6627  0.9470
 3015SOL     OW17292   9.231   7.539   1.150 -0.0081  0.2227  0.3589
 3015SOL    HW117293   9.174   7.458   1.162  1.5292 -1.0728 -0.9674
 3015SOL    HW217294   9.297   7.546   1.225 -0.3603  0.4418  0.6515
 3016SOL     OW17295   1.707   3.876   1.611  0.5933 -0.2481  0.0635
 3016SOL    HW117296   1.703   3.780   1.637 -2.6994  0.5383  2.7771
 3016SOL    HW217297   1.692   3.885   1.512 -0.1220 -2.3981 -0.0429
 3017SOL     OW17298   2.752   3.554   2.128  0.6748  0.0700 -0.3895
 3017SOL    HW117299   2.798   3.613   2.195 -1.0446  0.0925  0.8126
 3017SOL    HW217300   2.659   3.536   2.159  0.1599 -0.6944 -2.3400
 3019SOL     OW17301   9.846   3.613   1.488 -0.3388 -0.1257 -0.2142
 3019SOL    HW117302   9.892   3.586   1.572  0.3058  1.7869  0.0804
 3019SOL    HW217303   9.759   3.658   1.509  0.2846  1.2511 -0.4885
 3023SOL     OW17304   0.933   9.463   1.806  0.9787  0.4450  0.5871
 3023SOL    HW117305   0.853   9.415   1.842  1.0091  1.2119  1.7086
 3023SOL    HW217306   0.919   9.482   1.708 -0.2731  0.6919  0.7971
 3025SOL     OW17307   2.188   7.861   1.524  0.1832 -0.1493  0.1857
 3025SOL    HW117308   2.254   7.791   1.553  0.8194 -0.2809 -1.5177
 3025SOL    HW217309   2.236   7.933   1.474 -1.0460 -0.5382 -1.5833
 3026SOL     OW17310   2.635   3.068   1.950  0.2250 -0.1132  0.5661
 3026SOL    HW117311   2.721   3.027   1.981  0.5509  0.4413  0.3953
 3026SOL    HW217312   2.619   3.153   1.999  0.2358  0.2522 -0.0497
 3027SOL     OW17313   3.778   2.125   1.220 -0.5316  0.0150 -0.1250
 3027SOL    HW117314   3.876   2.109   1.218 -0.5203  0.1521 -0.5938
 3027SOL    HW217315   3.748   2.165   1.133 -1.1886 -1.0990 -0.4183
 3030SOL     OW17316   9.297   5.424   0.575  0.0166 -0.0318 -0.0113
 3030SOL    HW117317   9.379   5.474   0.546 -1.4201  1.1860 -2.1059
 3030SOL    HW217318   9.292   5.424   0.675  3.2091 -1.2289  0.1855
 3031SOL     OW17319   1.699   8.771   0.352  0.4990  0.5324  0.0636
 3031SOL    HW117320   1.614   8.812   0.321 -0.2686 -0.6648  0.5126
 3031SOL    HW217321   1.734   8.710   0.281  0.6336  0.5318  0.1324
 3033SOL     OW17322   9.391   5.045   2.146  0.1801 -0.1975  0.0023
 3033SOL    HW117323   9.309   5.000   2.179  0.8923  0.1547  2.3008
 3033SOL    HW217324   9.469   4.982   2.152  0.7893  0.6636  1.3678
 3034SOL     OW17325   4.070   0.035   1.013 -0.3704 -0.3688 -0.1086
 3034SOL    HW117326   4.041   0.015   0.920  0.4580 -0.3707 -0.3693
 3034SOL    HW217327   4.126  -0.040   1.048 -0.0001 -0.0103  0.0898
 3036SOL     OW17328   0.625   9.373   1.093  0.1975  0.2496  0.7245
 3036SOL    HW117329   0.572   9.453   1.122 -0.1679  0.4246 -0.4038
 3036SOL    HW217330   0.661   9.326   1.174 -1.2551  0.4209  1.5010
 3037SOL     OW17331   3.999   1.514   2.319  0.3238 -0.1815 -0.5655
 3037SOL    HW117332   4.033   1.466   2.400  0.6009  0.7217 -0.1421
 3037SOL    HW217333   3.899   1.519   2.323  0.2046 -1.7172 -1.1798
 3038SOL     OW17334   0.978   1.108   0.342  0.0443  0.6570  0.2269
 3038SOL    HW117335   1.023   1.151   0.421 -0.3432  0.1982  0.7058
 3038SOL    HW217336   0.977   1.009   0.355 -0.5373  0.6196 -0.0809
 3040SOL     OW17337   8.454  -0.086   2.307 -0.1920  0.4181  0.5618
 3040SOL    HW117338   8.522  -0.015   2.287 -0.4549  0.7736  0.9043
 3040SOL    HW217339   8.362  -0.046   2.301 -0.5196 -0.6978 -2.4953
 3041SOL     OW17340   8.676   2.739   1.803 -0.5711 -0.2866  1.0883
 3041SOL    HW117341   8.722   2.657   1.769 -0.5127 -1.1386  3.1247
 3041SOL    HW217342   8.705   2.756   1.897 -2.7777  0.4279  1.6671
 3042SOL     OW17343   9.327   2.305   1.501 -0.5224  0.8172  0.0776
 3042SOL    HW117344   9.264   2.272   1.431 -0.8527  0.0982  0.7127
 3042SOL    HW217345   9.326   2.243   1.579  0.1720  1.3808  0.5403
 3043SOL     OW17346   1.792   9.322   1.693  0.3413  0.4231 -0.1707
 3043SOL    HW117347   1.873   9.379   1.712  0.8582  0.5288 -2.4793
 3043SOL    HW217348   1.817   9.251   1.627 -1.4629  0.5293 -0.9898
 3044SOL     OW17349   2.803   5.543   1.915 -0.0507  0.2753 -0.2961
 3044SOL    HW117350   2.880   5.499   1.868 -0.2134 -0.7800  0.3989
 3044SOL    HW217351   2.787   5.497   2.003 -1.9871 -0.0218 -0.7831
 3045SOL     OW17352   4.070   2.132   1.226 -0.1417 -0.0691  0.4752
 3045SOL    HW117353   4.144   2.107   1.163 -1.4362 -1.0970 -0.6736
 3045SOL    HW217354   4.100   2.207   1.284  1.0536  0.9784 -1.4421
 3047SOL     OW17355   8.484   7.599   1.690 -0.1346  0.0206 -0.1530
 3047SOL    HW117356   8.397   7.606   1.740 -0.3694  0.2591 -0.5957
 3047SOL    HW217357   8.501   7.684   1.641  0.1666 -0.1643 -0.3692
 3049SOL     OW17358   9.547   0.089   0.716 -0.3484  0.3611  0.7422
 3049SOL    HW117359   9.533   0.188   0.717  2.6427  0.8411  1.0247
 3049SOL    HW217360   9.567   0.058   0.809 -0.5493 -0.3743  0.5364
 3050SOL     OW17361   0.649   2.194   1.025 -0.2195 -0.3242 -0.2373
 3050SOL    HW117362   0.673   2.101   1.052 -0.0088 -0.4238 -0.7624
 3050SOL    HW217363   0.570   2.225   1.077 -1.1821 -1.3214 -1.1035
 3051SOL     OW17364   9.075   8.502   1.225 -0.0791  0.3920  0.2452
 3051SOL    HW117365   9.163   8.532   1.189  0.2882 -1.7687 -0.7287
 3051SOL    HW217366   9.088   8.430   1.293 -1.0974 -0.5494 -0.5212
 3053SOL     OW17367   8.096   0.672   0.783  0.3678 -0.2221 -0.1998
 3053SOL    HW117368   8.037   0.741   0.740 -0.0520 -0.8616 -0.6612
 3053SOL    HW217369   8.135   0.613   0.712 -1.1763 -1.9521  0.3663
 3055SOL     OW17370   1.188   5.079   1.474  0.3502 -0.4161  0.2684
 3055SOL    HW117371   1.271   5.132   1.456  1.0135 -1.3849  0.4037
 3055SOL    HW217372   1.138   5.064   1.389 -0.2570  1.1011  0.3557
 3056SOL     OW17373   9.514   5.546   0.490  0.1988  0.4128 -0.3367
 3056SOL    HW117374   9.590   5.492   0.452 -0.0519  0.7627 -1.3339
 3056SOL    HW217375   9.548   5.603   0.564  0.4348 -1.2643  0.8863
 3057SOL     OW17376   1.372   8.790   2.320  0.2826 -0.5374 -0.1619
 3057SOL    HW117377   1.314   8.871   2.307 -0.4815 -1.2159 -0.9915
 3057SOL    HW217378   1.325   8.724   2.378  1.0696 -0.2392  0.8432
 3059SOL     OW17379   2.515   6.248   1.874  0.1419 -0.0219 -0.0355
 3059SOL    HW117380   2.543   6.153   1.861 -0.7677 -0.4872  1.3409
 3059SOL    HW217381   2.427   6.264   1.829  0.4701  0.2678 -0.5783
 3061SOL     OW17382   3.668   3.117   1.815  0.4668  0.1031 -0.2755
 3061SOL    HW117383   3.737   3.187   1.829 -0.1408  1.2896 -2.8391
 3061SOL    HW217384   3.585   3.159   1.777 -0.7436 -1.6506  0.3672
 3062SOL     OW17385   4.135   3.371   2.161 -0.1571  0.0154 -0.0324
 3062SOL    HW117386   4.165   3.447   2.219 -0.7142  0.4538 -0.3139
 3062SOL    HW217387   4.132   3.287   2.215  1.2900  0.0234  0.0732
 3063SOL     OW17388   7.563   9.829   1.744 -0.3901 -0.2974 -0.6767
 3063SOL    HW117389   7.646   9.777   1.765  0.4815  0.8652 -1.2445
 3063SOL    HW217390   7.518   9.789   1.664 -0.4398 -0.9710 -0.3249
 3064SOL     OW17391   2.367   9.617   2.214 -0.0575  0.0213 -0.0487
 3064SOL    HW117392   2.359   9.715   2.237 -0.4659  0.7520 -3.1180
 3064SOL    HW217393   2.462   9.596   2.190  0.0617 -0.3872  0.7664
 3065SOL     OW17394   2.129   2.928   2.199  0.0601 -0.3051  0.2853
 3065SOL    HW117395   2.050   2.910   2.257 -0.4450 -1.4097 -0.7320
 3065SOL    HW217396   2.207   2.876   2.231  0.7327  1.7241  2.0331
 3067SOL     OW17397   4.330   0.623   1.305 -0.1615  0.3530  0.1681
 3067SOL    HW117398   4.236   0.598   1.280 -0.8749  0.2899  2.7348
 3067SOL    HW217399   4.388   0.542   1.301 -1.4106 -0.8056  3.6925
 3069SOL     OW17400   4.766   3.520   0.732 -0.5143 -0.0287  0.2483
 3069SOL    HW117401   4.861   3.516   0.762 -0.4361 -0.1145 -0.0109
 3069SOL    HW217402   4.761   3.496   0.635 -0.6715  1.0496 -0.0111
 3070SOL     OW17403   1.466   9.497   0.872 -0.2829 -0.7231 -0.6082
 3070SOL    HW117404   1.496   9.489   0.776  1.0074  2.8853 -0.5864
 3070SOL    HW217405   1.536   9.457   0.931  0.7777  0.5694 -0.9776
 3072SOL     OW17406   8.503   9.157   2.036  0.5663 -0.0428 -0.7757
 3072SOL    HW117407   8.441   9.090   1.997 -2.5463  0.6887  2.5799
 3072SOL    HW217408   8.462   9.248   2.030  0.2505  0.1822  3.3937
 3073SOL     OW17409   3.869   0.216   1.963  0.3492  0.4627  0.2559
 3073SOL    HW117410   3.839   0.283   2.031 -0.5825 -0.5114  0.8269
 3073SOL    HW217411   3.796   0.201   1.896 -0.0799 -1.1307  1.0415
 3074SOL     OW17412   2.515   5.696   2.110 -0.6517 -0.3194 -0.7739
 3074SOL    HW117413   2.536   5.687   2.012  1.8089 -0.3188 -0.2731
 3074SOL    HW217414   2.504   5.793   2.132  2.0449 -0.0843 -0.4187
 3080SOL     OW17415   0.294   8.665   1.281 -0.0975 -0.4884 -0.2530
 3080SOL    HW117416   0.251   8.596   1.339  1.4181 -1.9295 -0.8078
 3080SOL    HW217417   0.233   8.744   1.273 -0.9149 -0.8474  2.1385
 3081SOL     OW17418   1.281   3.672   1.009  0.3021 -0.4401 -0.7391
 3081SOL    HW117419   1.340   3.616   1.067  0.5225 -0.5250 -1.0472
 3081SOL    HW217420   1.315   3.671   0.915  0.3312  0.2366 -0.7406
 3082SOL     OW17421   2.669   4.550   0.438 -0.6594 -0.8931 -0.1380
 3082SOL    HW117422   2.671   4.528   0.341  0.0358 -0.4592 -0.2271
 3082SOL    HW217423   2.649   4.468   0.491 -0.9244 -1.1515 -0.6381
 3084SOL     OW17424   3.455   4.545   2.148  0.0504  0.4640 -0.5666
 3084SOL    HW117425   3.413   4.466   2.193  0.6716  0.7394  0.5109
 3084SOL    HW217426   3.397   4.625   2.160  0.3993  0.6205  0.0581
 3085SOL     OW17427   1.961   8.342   2.150  0.1932  0.4636 -0.5458
 3085SOL    HW117428   2.046   8.387   2.121  0.5623 -0.0977 -0.3322
 3085SOL    HW217429   1.883   8.399   2.123  0.7321  2.3247  1.6151
 3086SOL     OW17430   9.480   2.719   0.931 -0.4173  0.3343  0.0296
 3086SOL    HW117431   9.552   2.655   0.904  1.5983  2.5079  0.0695
 3086SOL    HW217432   9.486   2.802   0.876 -2.9600  0.5415  0.0012
 3089SOL     OW17433   9.296   3.995   0.894  0.3036  0.2195  0.1533
 3089SOL    HW117434   9.367   3.959   0.955  1.0660  0.5880 -0.5089
 3089SOL    HW217435   9.206   3.969   0.929  0.8005 -1.4152  0.2416
 3092SOL     OW17436   1.641   2.327   2.117 -0.2833 -0.4325 -0.5437
 3092SOL    HW117437   1.604   2.336   2.209 -1.2060 -0.5045 -0.9067
 3092SOL    HW217438   1.616   2.408   2.063  0.9097 -0.0268 -0.5068
 3093SOL     OW17439   8.020   7.754   1.751 -0.5305  0.0969  0.2793
 3093SOL    HW117440   7.951   7.709   1.808 -1.3932 -0.7043 -1.3524
 3093SOL    HW217441   7.977   7.829   1.700 -0.4152 -0.9085 -1.3412
 3094SOL     OW17442   1.351   0.529   1.112 -0.4269  0.3728 -0.3202
 3094SOL    HW117443   1.360   0.611   1.168 -0.6089  0.5736 -0.5805
 3094SOL    HW217444   1.440   0.503   1.075 -0.2535  0.0596  0.3110
 3096SOL     OW17445   1.509   1.712   2.139  0.5304 -0.2467 -0.5055
 3096SOL    HW117446   1.450   1.638   2.107 -1.1597  0.8617 -0.0165
 3096SOL    HW217447   1.486   1.797   2.092  1.7006  0.2327 -0.2518
 3098SOL     OW17448   2.203   4.506   1.633 -0.1784  0.0452  0.2216
 3098SOL    HW117449   2.150   4.442   1.579 -0.6420 -0.8289  1.6879
 3098SOL    HW217450   2.148   4.587   1.653  0.1744  0.6180 -1.0342
 3099SOL     OW17451   1.066   4.401   1.107  0.4369 -0.4981 -0.0501
 3099SOL    HW117452   1.145   4.347   1.080  2.2071  1.7543  0.4488
 3099SOL    HW217453   1.008   4.418   1.028 -0.2395 -3.1827 -0.1895
 3100SOL     OW17454   3.206   8.389   1.089 -0.3908 -0.0100  0.6387
 3100SOL    HW117455   3.191   8.418   1.184 -1.7902 -2.4916  1.2129
 3100SOL    HW217456   3.125   8.413   1.035  0.0459  0.6034  0.2471
 3101SOL     OW17457   2.621   0.208   0.939  0.7288 -0.6159  0.1474
 3101SOL    HW117458   2.675   0.138   0.985 -1.2532 -1.8426  0.6757
 3101SOL    HW217459   2.526   0.204   0.971  0.6057  2.4470  0.3261
 3102SOL     OW17460   2.938   8.555   1.944  0.1602 -0.3687 -0.1734
 3102SOL    HW117461   2.982   8.525   2.029  0.2838 -0.0443 -0.1218
 3102SOL    HW217462   3.007   8.594   1.883 -0.3958  2.3787  0.8843
 3103SOL     OW17463   9.712   2.279   0.597 -0.3916  0.1246 -0.2073
 3103SOL    HW117464   9.703   2.248   0.692  0.9108 -0.6965 -0.3481
 3103SOL    HW217465   9.703   2.201   0.536 -3.3420  0.9401 -0.8975
 3104SOL     OW17466   3.544   0.241   1.880 -0.0604 -0.5540 -0.2286
 3104SOL    HW117467   3.512   0.335   1.891  2.2530  0.2309  0.2105
 3104SOL    HW217468   3.525   0.210   1.787 -0.1414  0.6373 -0.6223
 3105SOL     OW17469   3.292   3.372   0.626 -0.3794 -0.5144 -0.2313
 3105SOL    HW117470   3.340   3.300   0.676  2.0242  1.5612  0.5448
 3105SOL    HW217471   3.293   3.350   0.528  0.7751 -1.3095 -0.0577
 3106SOL     OW17472   1.901   9.827   1.215 -0.0197 -0.0530 -0.3111
 3106SOL    HW117473   1.938   9.794   1.128  0.3697 -0.6838  0.0938
 3106SOL    HW217474   1.929   9.922   1.228 -0.6334  0.2523 -1.1900
 3109SOL     OW17475   8.439   1.092   1.128  0.6483 -0.2971 -0.2950
 3109SOL    HW117476   8.453   0.993   1.140  1.5507 -0.1897 -0.4086
 3109SOL    HW217477   8.528   1.137   1.118  0.2107  0.4578 -0.8218
 3110SOL     OW17478   1.445   0.796   1.919  0.8839 -0.0131 -0.4978
 3110SOL    HW117479   1.457   0.707   1.963  1.3056  1.4088  2.3621
 3110SOL    HW217480   1.489   0.867   1.974 -0.2564  2.0973 -2.2312
 3111SOL     OW17481   9.888   9.586   2.091  0.0649 -0.1905 -0.0821
 3111SOL    HW117482   9.852   9.678   2.076  1.1670  0.1901 -0.4185
 3111SOL    HW217483   9.978   9.592   2.132 -0.3654 -1.1508  1.0166
 3112SOL     OW17484   8.797   1.286   1.386 -0.2548  0.0882 -0.3862
 3112SOL    HW117485   8.755   1.376   1.395 -0.3915  0.0573 -0.6959
 3112SOL    HW217486   8.846   1.263   1.471  2.5353  1.8325 -1.4545
 3113SOL     OW17487   2.065   8.277   0.547 -0.3692 -0.0103  0.2480
 3113SOL    HW117488   2.031   8.275   0.453 -1.7204 -0.0998  0.7195
 3113SOL    HW217489   2.116   8.193   0.566  1.2260  0.6942 -0.8687
 3114SOL     OW17490   0.098   1.994   1.208 -0.7023 -0.5621 -0.1751
 3114SOL    HW117491   0.132   1.971   1.117  0.7836 -0.7122  0.4050
 3114SOL    HW217492   0.134   1.928   1.275 -1.6939 -0.3917  0.5405
 3115SOL     OW17493   1.624   7.990   0.557 -0.2482 -0.2324 -0.1754
 3115SOL    HW117494   1.666   7.914   0.508  0.2483 -0.3515  0.4249
 3115SOL    HW217495   1.628   8.073   0.501  0.3186 -0.3647 -0.3281
 3116SOL     OW17496   1.611   9.736   0.380  0.0973 -0.1256  0.8889
 3116SOL    HW117497   1.558   9.662   0.337 -1.7329  2.2574 -1.1188
 3116SOL    HW217498   1.703   9.737   0.341 -0.7680  0.4164 -1.2121
 3117SOL     OW17499   1.196   6.888   1.331  0.5113  0.1025  0.1200
 3117SOL    HW117500   1.100   6.860   1.335 -0.0186  1.6474 -1.0805
 3117SOL    HW217501   1.249   6.836   1.398 -0.9414 -1.5964 -0.0270
 3118SOL     OW17502   4.080   1.847   1.139  0.1493 -0.0134  0.0705
 3118SOL    HW117503   4.022   1.881   1.213  0.6371  0.7061  0.1284
 3118SOL    HW217504   4.096   1.749   1.152  1.1920  0.3319  1.5900
 3119SOL     OW17505   9.892   5.408   0.891  0.0199  0.4198  0.2796
 3119SOL    HW117506   9.974   5.378   0.939 -1.2830 -1.1179  1.5723
 3119SOL    HW217507   9.817   5.418   0.956 -1.1519  0.6493 -1.0864
 3120SOL     OW17508   3.999   2.152   2.191 -0.0767  0.2711 -0.1409
 3120SOL    HW117509   4.014   2.056   2.214  3.1402  1.4826  3.1212
 3120SOL    HW217510   3.920   2.187   2.242  0.8238  0.2407  1.2870
 3121SOL     OW17511   8.626   9.644   1.379  0.1583 -0.0338  0.5101
 3121SOL    HW117512   8.535   9.649   1.337  0.3557  0.3356  0.1285
 3121SOL    HW217513   8.671   9.733   1.371  0.7320 -0.3417  0.2902
 3122SOL     OW17514   3.316   9.605   1.080 -0.2799 -0.7929 -0.7648
 3122SOL    HW117515   3.232   9.573   1.124  0.2845  0.8034  1.5686
 3122SOL    HW217516   3.299   9.692   1.034  0.0685 -0.5653 -0.4578
 3123SOL     OW17517   3.399  -0.074   2.255  0.1459  0.3232 -0.0326
 3123SOL    HW117518   3.346  -0.132   2.192 -0.8998  1.1544  0.0627
 3123SOL    HW217519   3.446  -0.003   2.203  0.5665  0.0414 -0.0383
 3125SOL     OW17520   9.455   6.702   0.355 -0.0007  0.0149 -0.0560
 3125SOL    HW117521   9.377   6.729   0.413 -1.1335 -3.2753  0.0306
 3125SOL    HW217522   9.429   6.624   0.298  2.6263  0.1839 -1.5706
 3126SOL     OW17523   9.548   9.843   1.862  0.6907 -0.2209 -0.1119
 3126SOL    HW117524   9.525   9.904   1.786  0.9273 -0.2118 -0.1767
 3126SOL    HW217525   9.535   9.748   1.833  1.1113 -0.2283 -0.2754
 3127SOL     OW17526   9.050   5.995   0.824  0.2431 -0.1071  0.0885
 3127SOL    HW117527   9.068   5.974   0.920  2.5111 -0.8000 -0.4366
 3127SOL    HW217528   8.978   5.936   0.789  0.5969 -1.0511  0.9347
 3128SOL     OW17529   2.513   7.096   0.454  0.1030  0.0355  0.0589
 3128SOL    HW117530   2.452   7.065   0.526 -0.0912 -0.0425 -0.1396
 3128SOL    HW217531   2.608   7.080   0.481 -0.0070 -1.0964 -0.2157
 3129SOL     OW17532   2.101   0.511   1.116  0.3933  0.1782  0.6144
 3129SOL    HW117533   2.147   0.591   1.078  1.2028 -0.4873  0.1733
 3129SOL    HW217534   2.010   0.537   1.148  0.7311  1.3184  0.6775
 3130SOL     OW17535   9.358   9.460   1.596 -0.2743 -0.1433  0.2921
 3130SOL    HW117536   9.368   9.392   1.523  0.3720 -1.0128  1.1844
 3130SOL    HW217537   9.299   9.423   1.668 -1.2452  0.8682  0.0417
 3131SOL     OW17538   3.870   3.251   2.131  0.2678 -0.1552  0.3209
 3131SOL    HW117539   3.960   3.290   2.150 -0.1670  0.7676  0.5420
 3131SOL    HW217540   3.834   3.291   2.047 -0.9481  1.3105  1.4940
 3132SOL     OW17541   3.965   9.629   2.003 -0.0895  0.1695  0.3686
 3132SOL    HW117542   3.869   9.616   2.029 -0.1791  2.6409  1.4453
 3132SOL    HW217543   3.969   9.663   1.909 -0.2131 -0.9239 -0.0333
 3133SOL     OW17544   9.334   7.879   1.846 -0.2899 -0.1886  0.1654
 3133SOL    HW117545   9.314   7.972   1.814 -0.5799 -0.6787 -1.0651
 3133SOL    HW217546   9.289   7.812   1.788  0.5708 -1.1451  0.5720
 3134SOL     OW17547   3.029   3.830   2.265  0.0262 -0.2947  0.3066
 3134SOL    HW117548   3.009   3.793   2.174 -1.0467 -2.3745  1.3786
 3134SOL    HW217549   3.083   3.914   2.254  1.2339 -1.3165 -2.2064
 3135SOL     OW17550   0.111   8.803   0.666  0.2672  0.3775  0.3699
 3135SOL    HW117551   0.049   8.751   0.724 -0.1669  0.1326 -0.3151
 3135SOL    HW217552   0.103   8.901   0.687 -0.0265  0.3072  0.5852
 3136SOL     OW17553   0.432   6.358   1.533 -0.5648  0.5811  0.2986
 3136SOL    HW117554   0.522   6.320   1.553  0.5820  1.5357 -2.6997
 3136SOL    HW217555   0.426   6.451   1.569 -0.5214  0.3537  0.8955
 3137SOL     OW17556   1.980   9.885   1.771 -0.1748 -0.2287  0.2400
 3137SOL    HW117557   1.929   9.829   1.706  2.0599 -0.0144 -1.8023
 3137SOL    HW217558   2.023   9.826   1.839 -1.7567 -0.5469  0.9711
 3138SOL     OW17559   4.147   9.026   1.092 -0.0983 -0.5350  0.5840
 3138SOL    HW117560   4.152   8.951   1.026  0.9614  1.0142 -1.1645
 3138SOL    HW217561   4.194   8.999   1.177  0.1036 -1.9067  0.0589
 3139SOL     OW17562   3.193   8.813   1.083 -0.1698 -0.6626 -0.2663
 3139SOL    HW117563   3.221   8.843   0.991 -0.1816  2.8380  0.7895
 3139SOL    HW217564   3.263   8.753   1.121  1.4628  0.5384 -1.2954
 3140SOL     OW17565   7.664   0.231   1.783 -0.4855 -0.1769  0.3782
 3140SOL    HW117566   7.647   0.154   1.845 -0.5059  0.7909  1.5964
 3140SOL    HW217567   7.613   0.311   1.815 -1.9289 -0.1296 -1.9070
 3141SOL     OW17568   0.947   2.455   1.641  0.2839 -0.0962  0.0419
 3141SOL    HW117569   1.012   2.503   1.581  1.2480 -1.4920 -0.0645
 3141SOL    HW217570   0.967   2.357   1.640 -0.6917 -0.3285  1.4329
 3142SOL     OW17571   2.612   8.441   1.130  0.0370 -0.1954 -0.3951
 3142SOL    HW117572   2.536   8.403   1.078  0.0641 -1.6253  0.5811
 3142SOL    HW217573   2.593   8.537   1.151 -2.3078 -0.9556  1.2547
 3143SOL     OW17574   8.300   7.969   0.751  0.4928  0.6156  0.6078
 3143SOL    HW117575   8.375   7.908   0.726  0.5885  0.2407  1.7923
 3143SOL    HW217576   8.298   8.047   0.687  0.5878 -0.4180 -0.6891
 3144SOL     OW17577   7.843   9.375   1.371  0.3732  0.0249  0.5234
 3144SOL    HW117578   7.867   9.294   1.317 -0.7264 -0.1038  0.2187
 3144SOL    HW217579   7.844   9.351   1.468  1.5406  0.0444  0.5254
 3145SOL     OW17580   0.109   4.586   1.114  0.0744  0.7437 -0.6347
 3145SOL    HW117581   0.155   4.559   1.199 -1.7475 -0.1835  0.0896
 3145SOL    HW217582   0.101   4.507   1.054 -0.9477  0.7750 -0.5590
 3146SOL     OW17583   4.056   4.981   0.833  0.5126  0.4031 -0.1676
 3146SOL    HW117584   4.139   4.926   0.828  0.0273 -0.3663  0.1909
 3146SOL    HW217585   4.004   4.972   0.748  0.2311 -0.0286  0.0442
 3147SOL     OW17586   2.839   5.673   0.374  0.3417  0.8026 -0.0050
 3147SOL    HW117587   2.750   5.632   0.356  0.9312 -0.4340 -0.1604
 3147SOL    HW217588   2.839   5.714   0.465  0.6704 -2.1637  1.3765
 3149SOL     OW17589   2.475   8.861   0.990 -0.1084  0.1603  0.3419
 3149SOL    HW117590   2.555   8.909   0.954  1.2206 -0.6493  2.1521
 3149SOL    HW217591   2.393   8.894   0.943  1.0549  2.3803 -0.2063
 3150SOL     OW17592   9.178  -0.023   1.854 -0.0974  0.6880  0.3071
 3150SOL    HW117593   9.160  -0.114   1.892  0.7921  0.1321 -0.5913
 3150SOL    HW217594   9.227  -0.032   1.767  0.3584  2.0408  0.4155
 3151SOL     OW17595   8.572  -0.067   1.243  0.4066  0.1393  0.2308
 3151SOL    HW117596   8.480  -0.084   1.280  1.1287 -1.9004  1.1618
 3151SOL    HW217597   8.573  -0.087   1.145 -0.0621 -0.1112  0.2774
 3152SOL     OW17598   3.179   1.553   0.964  0.0938  0.6850  0.5483
 3152SOL    HW117599   3.192   1.622   0.893  0.1121 -0.0741 -0.1948
 3152SOL    HW217600   3.084   1.556   0.996  0.4172  1.9075  1.4317
 3153SOL     OW17601   3.477   9.159   1.697  0.0398  0.3046 -0.4992
 3153SOL    HW117602   3.497   9.223   1.622  1.5359 -0.5748 -0.8776
 3153SOL    HW217603   3.419   9.085   1.662 -0.6695  0.7889 -0.3612
 3154SOL     OW17604   8.170   9.180   1.447 -0.0973 -0.3063  0.1817
 3154SOL    HW117605   8.103   9.174   1.373 -1.9315  2.0150  1.5719
 3154SOL    HW217606   8.122   9.184   1.535  2.0092 -1.7995  1.4327
 3156SOL     OW17607   4.211   9.806   1.074 -0.2644 -0.4956  0.0196
 3156SOL    HW117608   4.172   9.733   1.131  1.3995 -2.3029 -1.0870
 3156SOL    HW217609   4.282   9.768   1.015  2.3296  2.4494  1.0664
 3157SOL     OW17610   0.814   3.211   0.576 -0.2332  0.0102  0.4466
 3157SOL    HW117611   0.814   3.254   0.666 -0.5098  0.3291  0.2919
 3157SOL    HW217612   0.778   3.118   0.584 -3.8268  1.2939  0.0632
 3158SOL     OW17613   0.211   3.066   1.505  0.3169 -0.3340  0.4731
 3158SOL    HW117614   0.157   3.062   1.421  0.7380 -2.8411  0.2755
 3158SOL    HW217615   0.150   3.071   1.583 -0.1172 -0.0092  0.1206
 3159SOL     OW17616   8.266   7.656   1.923 -0.1343  0.3825 -0.8586
 3159SOL    HW117617   8.219   7.721   1.864  0.2635  0.4686 -1.0784
 3159SOL    HW217618   8.261   7.689   2.018  1.5011  1.5908 -1.1721
 3160SOL     OW17619   3.481   7.811   0.743 -0.2608  0.2633  0.5065
 3160SOL    HW117620   3.409   7.762   0.793 -0.1202  0.9097  1.3524
 3160SOL    HW217621   3.532   7.870   0.806  1.3612 -0.5861  0.0047
 3162SOL     OW17622   8.356   9.440   0.581  0.4516  0.0331  0.2358
 3162SOL    HW117623   8.442   9.458   0.535  0.5537 -1.2729 -0.1133
 3162SOL    HW217624   8.371   9.439   0.680  0.8155 -0.0738  0.1806
 3164SOL     OW17625   8.856   7.245   0.463  0.3028  0.2380 -0.1031
 3164SOL    HW117626   8.855   7.315   0.392 -0.8407  1.6615  1.2638
 3164SOL    HW217627   8.817   7.160   0.428 -0.8548  1.1293 -0.9819
 3165SOL     OW17628   2.074   6.194   0.503  0.2434 -0.4340 -0.4477
 3165SOL    HW117629   2.039   6.101   0.509 -1.5146  0.2503 -0.0097
 3165SOL    HW217630   2.036   6.239   0.422 -0.7708  0.6642  0.6177
 3166SOL     OW17631   0.637   3.265   0.393  0.4453 -0.4620 -0.1738
 3166SOL    HW117632   0.720   3.253   0.448 -1.3167  0.0336  2.6761
 3166SOL    HW217633   0.591   3.176   0.383  1.4647 -0.8036 -2.0594
 3167SOL     OW17634   8.666   6.710   1.894 -0.1832  0.5800  0.3350
 3167SOL    HW117635   8.708   6.649   1.827 -2.6865 -2.0023  1.0062
 3167SOL    HW217636   8.723   6.713   1.977  2.1774  2.6574 -1.3026
 3168SOL     OW17637   5.038   3.792   1.324  0.1449  0.0051 -0.4489
 3168SOL    HW117638   5.072   3.836   1.407 -1.9738 -0.5353  0.7482
 3168SOL    HW217639   4.982   3.857   1.272 -1.0318 -0.5331  0.1162
 3169SOL     OW17640   1.589   3.266   1.771  0.5754  0.1319 -0.3831
 3169SOL    HW117641   1.647   3.261   1.690  0.8671 -0.3962 -0.1411
 3169SOL    HW217642   1.552   3.359   1.779  0.1662  0.0681 -1.3800
 3170SOL     OW17643   1.440   7.044   1.956 -0.4837 -0.8195  0.3902
 3170SOL    HW117644   1.509   7.056   2.027 -0.9168 -2.3819  1.0917
 3170SOL    HW217645   1.467   7.095   1.874  1.5714 -1.5409  0.6032
 3171SOL     OW17646   3.299   5.245   0.831  0.1028  0.2306 -0.1622
 3171SOL    HW117647   3.398   5.239   0.845  0.0846 -2.2511 -0.8451
 3171SOL    HW217648   3.279   5.260   0.734 -0.1792  1.6503  0.1069
 3172SOL     OW17649   2.297   0.579   0.363  0.0210 -0.0292 -0.4608
 3172SOL    HW117650   2.330   0.540   0.277 -0.1430 -0.8057 -0.1789
 3172SOL    HW217651   2.307   0.511   0.436 -0.0758  0.5371  0.0851
 3173SOL     OW17652   9.831   4.534   1.456 -0.2667 -0.2296  0.0217
 3173SOL    HW117653   9.817   4.537   1.555  0.9073 -0.3515  0.1976
 3173SOL    HW217654   9.861   4.442   1.430 -1.1617 -0.3699 -0.5306
 3174SOL     OW17655   3.193   2.710   0.362 -0.3510 -0.1472 -0.1923
 3174SOL    HW117656   3.169   2.708   0.265 -0.8168  2.7360 -0.1777
 3174SOL    HW217657   3.114   2.685   0.417 -0.9392  1.0916 -0.4606
 3175SOL     OW17658   2.330   5.516   2.178 -0.3151  0.2106 -0.6432
 3175SOL    HW117659   2.315   5.513   2.277 -0.4781 -0.6946 -0.6903
 3175SOL    HW217660   2.411   5.572   2.158  0.7609 -1.0284  0.1308
 3176SOL     OW17661   0.205   8.708   1.651 -0.6035  0.6913 -0.2554
 3176SOL    HW117662   0.203   8.802   1.685  0.8995  0.5684  0.2173
 3176SOL    HW217663   0.265   8.653   1.710 -0.3911 -0.2342 -1.3270
 3178SOL     OW17664   0.270   4.856   2.255  0.0269  0.0480 -0.3795
 3178SOL    HW117665   0.175   4.830   2.241  0.7410 -2.1841 -1.2657
 3178SOL    HW217666   0.311   4.880   2.167  0.3453  0.8137 -0.0270
 3181SOL     OW17667   1.861   8.857   0.734 -0.1719  0.0183  0.1812
 3181SOL    HW117668   1.777   8.843   0.786 -1.0167  1.3576 -0.8144
 3181SOL    HW217669   1.924   8.780   0.751 -3.0219 -2.9241 -1.9796
 3183SOL     OW17670   1.742   5.529   0.994 -0.0748  0.5927  0.2253
 3183SOL    HW117671   1.711   5.444   0.951 -0.2928  0.8874 -0.1973
 3183SOL    HW217672   1.670   5.598   0.987  0.3683  1.0241 -0.0409
 3184SOL     OW17673   9.836   5.601   1.961  0.2238  0.3380 -0.2506
 3184SOL    HW117674   9.745   5.566   1.939  0.3526 -0.4169  0.4128
 3184SOL    HW217675   9.891   5.605   1.877  0.5865 -2.1535 -0.1648
 3185SOL     OW17676   5.003   3.471   0.880 -0.3489 -0.0676 -0.2017
 3185SOL    HW117677   4.943   3.454   0.958 -0.1903 -2.6665 -0.6035
 3185SOL    HW217678   5.098   3.460   0.908 -0.1362  1.8595 -0.0970
 3187SOL     OW17679   2.658   3.160   0.877 -0.0123  0.5235  0.2986
 3187SOL    HW117680   2.627   3.091   0.812  0.2575  2.1789 -1.6569
 3187SOL    HW217681   2.655   3.123   0.970  0.0785 -2.0625 -0.6966
 3188SOL     OW17682   2.422   3.358   0.794 -0.2791 -0.0840 -0.1102
 3188SOL    HW117683   2.513   3.327   0.822 -0.7451 -0.0560  1.5223
 3188SOL    HW217684   2.386   3.297   0.724 -0.4534 -2.2604  1.7868
 3189SOL     OW17685   9.919   0.609   1.041  0.0765 -0.3219 -0.3592
 3189SOL    HW117686   9.850   0.563   0.985 -0.7284  1.3738 -0.7754
 3189SOL    HW217687   9.878   0.685   1.090  1.9071  1.5707 -1.6657
 3190SOL     OW17688   3.681   0.041   1.523  0.5194 -0.1859 -0.4902
 3190SOL    HW117689   3.597   0.095   1.530  0.2195 -0.7677  0.4989
 3190SOL    HW217690   3.760   0.102   1.519  0.3201  0.3307  2.5233
 3192SOL     OW17691   0.304   5.169   1.145  0.7834 -0.0805 -0.3985
 3192SOL    HW117692   0.274   5.091   1.200 -0.4248  0.1355 -0.7471
 3192SOL    HW217693   0.302   5.144   1.048  0.7437  0.2692 -0.4888
 3193SOL     OW17694   2.266   7.760   1.892 -0.0486 -0.3759  0.6195
 3193SOL    HW117695   2.285   7.769   1.990 -3.6403 -0.2964  1.3897
 3193SOL    HW217696   2.334   7.810   1.840  0.1231  2.2299  3.2205
 3194SOL     OW17697   0.868   8.189   1.885  0.1865 -0.1653  0.6762
 3194SOL    HW117698   0.802   8.119   1.912 -0.4989  0.2950  0.1880
 3194SOL    HW217699   0.823   8.260   1.831  0.8084  0.8498  1.4722
 3196SOL     OW17700   2.322   1.906   1.226 -0.0839 -0.4845 -0.0943
 3196SOL    HW117701   2.267   1.870   1.301 -1.2374  2.3477  0.4909
 3196SOL    HW217702   2.270   1.976   1.177  2.9442  2.2857  0.4468
 3199SOL     OW17703   1.249   1.221   0.483 -0.6750  0.2649 -0.0470
 3199SOL    HW117704   1.271   1.147   0.546 -2.4140  1.1027  1.5603
 3199SOL    HW217705   1.331   1.245   0.430 -0.1365 -2.9244 -0.7604
 3200SOL     OW17706   2.930   2.684   0.503 -0.0138  0.0360 -0.3767
 3200SOL    HW117707   2.904   2.600   0.455  1.5295 -1.4268  1.2899
 3200SOL    HW217708   2.984   2.661   0.584  1.6974  2.7119 -0.7116
 3202SOL     OW17709   4.423   1.332   2.253  0.9498 -0.0872 -0.2579
 3202SOL    HW117710   4.390   1.243   2.283  1.9880 -0.2503  0.4207
 3202SOL    HW217711   4.477   1.321   2.170 -0.3909  0.1385 -1.1776
 3203SOL     OW17712   0.698   0.395   1.298 -0.2707  0.0403 -0.4859
 3203SOL    HW117713   0.625   0.376   1.364 -0.2891 -1.0982 -0.8233
 3203SOL    HW217714   0.658   0.405   1.206  0.0892 -1.5728 -0.8325
 3204SOL     OW17715   2.373   3.668   0.784  0.6248  0.4280 -0.0106
 3204SOL    HW117716   2.342   3.586   0.832  0.4829 -1.2786 -2.8457
 3204SOL    HW217717   2.456   3.647   0.732  0.0947  1.7949 -1.4764
 3206SOL     OW17718   8.204   7.618   1.577 -0.5319  0.6907 -0.1264
 3206SOL    HW117719   8.144   7.668   1.640 -0.6451 -1.3183  1.4075
 3206SOL    HW217720   8.279   7.677   1.549 -1.0021  1.9266  1.1586
 3207SOL     OW17721   0.022   5.074   2.283 -0.1309 -0.6991  0.2045
 3207SOL    HW117722  -0.042   5.031   2.219  0.2833 -0.0138 -0.6853
 3207SOL    HW217723   0.004   5.172   2.288  0.4378 -0.6021  0.4344
 3208SOL     OW17724   1.751   8.505   0.875 -0.0815 -0.2412 -0.0657
 3208SOL    HW117725   1.762   8.525   0.972 -1.4828 -0.1067  0.0749
 3208SOL    HW217726   1.691   8.573   0.833  1.6429  0.5405 -1.3408
 3210SOL     OW17727   8.547   2.101   1.501 -0.2320 -0.3745 -0.3380
 3210SOL    HW117728   8.523   2.004   1.492 -2.4263  0.2858 -1.8247
 3210SOL    HW217729   8.630   2.119   1.449 -0.9987 -1.0310 -1.8166
 3212SOL     OW17730   4.102   2.366   1.829  0.5615 -0.1098 -0.5343
 3212SOL    HW117731   4.154   2.307   1.768  2.4628  1.4912 -0.4883
 3212SOL    HW217732   4.069   2.445   1.778 -1.1714 -0.6960 -0.3670
 3213SOL     OW17733   7.995   8.340   0.740 -0.0863  0.5999 -0.7471
 3213SOL    HW117734   8.044   8.401   0.802  0.0939  1.8753 -2.0916
 3213SOL    HW217735   7.899   8.370   0.733 -0.6111 -0.7619  0.4587
 3215SOL     OW17736   1.033   9.137   1.567  0.3608 -0.2422 -0.3664
 3215SOL    HW117737   1.084   9.150   1.652 -0.0310  1.5311 -0.3715
 3215SOL    HW217738   0.935   9.148   1.585  0.3303  0.9772 -1.1752
 3217SOL     OW17739   7.958   9.688   2.233 -0.1028  0.1835  0.2458
 3217SOL    HW117740   8.050   9.669   2.198  0.3523  0.3158  1.3472
 3217SOL    HW217741   7.892   9.628   2.188  0.1152  1.9401 -2.5411
 3219SOL     OW17742   9.172   3.037   0.745  0.1859 -0.1007 -1.0083
 3219SOL    HW117743   9.248   2.972   0.737  1.1687  0.8483  0.3519
 3219SOL    HW217744   9.094   2.992   0.789  0.8593 -0.3868 -0.0840
 3220SOL     OW17745   0.832   8.486   1.078  0.6375  0.2187 -0.5934
 3220SOL    HW117746   0.838   8.480   1.178  0.0008 -0.7475 -0.6078
 3220SOL    HW217747   0.740   8.515   1.053  0.5010 -0.5010 -0.9326
 3221SOL     OW17748   1.659   4.055   0.545  0.6507 -0.2703 -0.1178
 3221SOL    HW117749   1.582   4.023   0.489  2.3027 -0.0918 -2.5652
 3221SOL    HW217750   1.703   3.976   0.589 -0.2929 -0.4720  0.4862
 3222SOL     OW17751   0.335   0.900   1.054  0.5783  0.8193 -0.0661
 3222SOL    HW117752   0.318   0.993   1.086  0.3984  0.6277  0.3962
 3222SOL    HW217753   0.280   0.835   1.107  1.2721  0.3792  0.1262
 3224SOL     OW17754   0.308   0.311   0.609 -0.3404  0.2665  0.1793
 3224SOL    HW117755   0.375   0.381   0.584  0.2542 -0.1161  0.6915
 3224SOL    HW217756   0.217   0.354   0.616  0.1178  1.1229  1.0923
 3226SOL     OW17757   3.279   5.098   0.368 -0.2151 -0.0829  0.1309
 3226SOL    HW117758   3.358   5.043   0.396  1.1599  0.4443 -2.5587
 3226SOL    HW217759   3.207   5.038   0.336  0.0652 -0.4465  0.1782
 3227SOL     OW17760   0.457   8.826   1.451 -0.3486 -0.2561 -0.0822
 3227SOL    HW117761   0.399   8.754   1.412  0.0842 -0.3211 -0.6074
 3227SOL    HW217762   0.462   8.903   1.387  0.4936 -0.4287 -0.2228
 3228SOL     OW17763   0.712   6.232   1.878 -0.3421  0.1364  0.4036
 3228SOL    HW117764   0.630   6.174   1.876 -1.2646  1.4237  0.7153
 3228SOL    HW217765   0.712   6.287   1.961  0.4250  0.7403  0.0030
 3230SOL     OW17766   0.923   9.320   1.329 -0.7184  0.3771  0.4339
 3230SOL    HW117767   0.911   9.382   1.406  0.0007  0.3125  0.5935
 3230SOL    HW217768   0.852   9.249   1.332 -1.8330  1.4382 -0.0051
 3231SOL     OW17769   2.813   4.990   0.605 -0.6916  0.0235 -0.0174
 3231SOL    HW117770   2.803   5.084   0.572 -1.1524 -0.0950 -0.2304
 3231SOL    HW217771   2.768   4.981   0.694 -0.6424  0.0061  0.0057
 3232SOL     OW17772   1.816   1.639   0.727 -0.3720 -0.5390  0.6946
 3232SOL    HW117773   1.738   1.665   0.784 -1.1333  0.6752 -0.8632
 3232SOL    HW217774   1.853   1.720   0.682  1.0005 -1.2993  0.4334
 3233SOL     OW17775   0.999   6.234   1.353 -0.0096  0.0301  0.0558
 3233SOL    HW117776   0.962   6.315   1.306 -0.2982 -0.1259  0.0104
 3233SOL    HW217777   0.926   6.168   1.367  0.2846 -0.3375 -0.1454
 3234SOL     OW17778   8.835   3.181   0.883  0.1686 -0.3493  0.7799
 3234SOL    HW117779   8.907   3.236   0.841  1.7990 -3.4817 -0.7100
 3234SOL    HW217780   8.855   3.169   0.980 -0.0226  1.3603  1.0424
 3235SOL     OW17781   0.582   5.168   0.780  0.0044 -0.1461  1.0851
 3235SOL    HW117782   0.529   5.083   0.774  0.3709 -0.2784 -0.7164
 3235SOL    HW217783   0.639   5.166   0.862  1.2343 -2.4118  0.2591
 3236SOL     OW17784   2.288   6.290   1.731  0.4845  0.9826  0.4549
 3236SOL    HW117785   2.192   6.283   1.704  0.4662  0.8823  0.5462
 3236SOL    HW217786   2.344   6.309   1.650  0.4417  0.5690  0.3272
 3238SOL     OW17787   1.382   9.875   0.640 -0.0399 -0.0776 -0.0005
 3238SOL    HW117788   1.413   9.931   0.717  1.8950 -0.3802 -0.5260
 3238SOL    HW217789   1.358   9.784   0.673 -0.7484  0.2696  0.4667
 3239SOL     OW17790   2.617   6.932   0.891  0.4484  0.1805  0.1196
 3239SOL    HW117791   2.567   6.852   0.858 -0.9931  1.1169 -0.0371
 3239SOL    HW217792   2.670   6.907   0.972  1.3332 -1.3231 -0.8951
 3240SOL     OW17793   2.070   4.430   2.020  0.1559  0.1426 -0.1697
 3240SOL    HW117794   2.127   4.500   1.977  0.7867 -0.8492 -0.9927
 3240SOL    HW217795   1.981   4.427   1.974 -0.8616  2.2091  1.6116
 3241SOL     OW17796   2.407   6.374   2.073  0.3368 -0.6749  0.3778
 3241SOL    HW117797   2.397   6.460   2.023 -0.2452 -0.4305  0.8943
 3241SOL    HW217798   2.448   6.305   2.014  1.0260  0.0289  0.0381
 3243SOL     OW17799   0.879   8.510   0.552  0.4205  0.1399 -0.2844
 3243SOL    HW117800   0.891   8.592   0.497 -0.1839 -0.4364 -1.3059
 3243SOL    HW217801   0.968   8.476   0.583  0.5085  2.7576  2.5528
 3244SOL     OW17802   9.183   3.688   0.781 -0.2286 -0.0349  0.1195
 3244SOL    HW117803   9.173   3.720   0.687 -1.5172  1.2009  0.6741
 3244SOL    HW217804   9.140   3.752   0.844 -0.3351 -1.3929  1.4771
 3245SOL     OW17805   8.151   1.333   1.963  0.1813  0.8058 -0.9997
 3245SOL    HW117806   8.102   1.300   1.882 -1.6611 -0.1185  0.4497
 3245SOL    HW217807   8.125   1.278   2.042 -0.0066  3.2836  0.7271
 3246SOL     OW17808   3.161   2.036   1.509  0.6066 -0.0198 -0.3583
 3246SOL    HW117809   3.246   2.084   1.533  1.0924 -0.0865 -1.8411
 3246SOL    HW217810   3.183   1.954   1.456 -0.3606 -0.3882 -0.2025
 3248SOL     OW17811   2.277   8.966   0.811  0.3034 -0.0390  0.2291
 3248SOL    HW117812   2.332   8.915   0.745  1.5093 -1.1153  2.0266
 3248SOL    HW217813   2.199   9.007   0.764  1.7777  0.2366 -2.0798
 3249SOL     OW17814  -0.043   1.115   0.634 -0.0273 -0.1304 -0.6196
 3249SOL    HW117815   0.051   1.109   0.602 -0.0389 -1.2726 -0.4488
 3249SOL    HW217816  -0.047   1.177   0.713 -0.1476  3.4487 -3.3129
 3250SOL     OW17817   4.022   3.257   1.114  0.6872  0.0679  0.3222
 3250SOL    HW117818   4.118   3.233   1.131  0.7553  1.8083  2.6432
 3250SOL    HW217819   3.970   3.247   1.199 -1.3865 -1.6068 -1.0936
 3251SOL     OW17820   3.092   2.534   0.652 -0.5714 -0.4226 -0.0344
 3251SOL    HW117821   3.066   2.441   0.627 -0.1774 -0.9003  1.2979
 3251SOL    HW217822   3.189   2.548   0.633 -0.5331 -0.4173  0.1679
 3252SOL     OW17823   0.778   9.697   0.405  0.2765 -0.3327 -0.2567
 3252SOL    HW117824   0.741   9.662   0.492 -1.4037 -1.4760 -1.4012
 3252SOL    HW217825   0.868   9.657   0.389 -0.0265 -1.2509  0.2714
 3254SOL     OW17826   9.243   5.834   2.020  0.7618  0.5365 -0.0068
 3254SOL    HW117827   9.175   5.806   2.088  0.4385 -1.0246 -0.9724
 3254SOL    HW217828   9.331   5.849   2.066  0.4620 -0.1578  0.8127
 3255SOL     OW17829   9.486   0.904   0.367 -0.0316  0.6667 -0.7786
 3255SOL    HW117830   9.444   0.967   0.432  0.7511  1.8910 -1.4501
 3255SOL    HW217831   9.557   0.850   0.414 -1.6961 -0.7882  0.1426
 3256SOL     OW17832   4.047   1.591   0.353  0.7079 -0.0994  0.3151
 3256SOL    HW117833   4.024   1.642   0.270  1.7248  0.8033  0.5771
 3256SOL    HW217834   4.125   1.531   0.334 -0.2094 -1.2604  0.1274
 3258SOL     OW17835   4.095   4.951   1.922  0.1487 -0.0446 -0.9652
 3258SOL    HW117836   4.050   4.962   1.833 -0.1576  2.3326 -0.5476
 3258SOL    HW217837   4.193   4.939   1.909  0.1865  0.9203 -1.6030
 3260SOL     OW17838   8.813   8.555   1.247  0.1421 -0.1361  0.0438
 3260SOL    HW117839   8.912   8.544   1.242  0.1808 -0.5380  1.6192
 3260SOL    HW217840   8.787   8.586   1.338 -1.1305  0.5793 -0.5543
 3261SOL     OW17841   2.126   4.292   1.495  0.0014 -0.2434  0.2096
 3261SOL    HW117842   2.054   4.262   1.432 -0.1457  0.9623 -0.2026
 3261SOL    HW217843   2.208   4.237   1.480 -0.6341 -1.2338  0.2794
 3263SOL     OW17844   9.376   0.220   1.833  0.1482 -0.1726 -0.1800
 3263SOL    HW117845   9.310   0.279   1.785  0.3754  0.9434  0.8415
 3263SOL    HW217846   9.411   0.151   1.770  0.6950  1.4595 -1.7189
 3264SOL     OW17847   1.079   5.237   0.790  0.6208 -0.4312 -0.4369
 3264SOL    HW117848   1.019   5.313   0.817  1.6508  0.5441 -0.8403
 3264SOL    HW217849   1.064   5.216   0.693  0.1108 -0.9473 -0.2436
 3265SOL     OW17850   7.850   8.921   0.496 -0.6313  0.4406  0.2582
 3265SOL    HW117851   7.769   8.865   0.515  0.5930 -1.0118  1.3222
 3265SOL    HW217852   7.826   9.018   0.501 -2.3448  0.0350  0.3131
 3266SOL     OW17853   7.462   9.323   2.250 -0.7323 -0.4071  0.4093
 3266SOL    HW117854   7.434   9.397   2.188 -1.7593  1.4863  3.0725
 3266SOL    HW217855   7.556   9.337   2.279 -0.5195 -0.8462 -0.0569
 3267SOL     OW17856   8.938   7.725   1.771  0.1209 -0.0698 -0.3274
 3267SOL    HW117857   8.870   7.653   1.788 -1.8158  1.5926 -0.7781
 3267SOL    HW217858   8.977   7.756   1.858 -1.1111  0.2663  0.1214
 3269SOL     OW17859   8.697   3.840   1.596 -0.0413 -0.2554  0.0238
 3269SOL    HW117860   8.733   3.752   1.627 -0.8141 -0.4070  0.5184
 3269SOL    HW217861   8.687   3.839   1.497 -0.1467 -0.7654  0.0368
 3270SOL     OW17862   9.167   9.373   2.182  0.1166  0.6281  0.2393
 3270SOL    HW117863   9.243   9.370   2.247 -0.4978 -0.8834  0.9121
 3270SOL    HW217864   9.088   9.416   2.225 -0.0438  0.3410  0.2351
 3272SOL     OW17865   4.228   4.291   1.362 -0.9450  0.1212  0.3678
 3272SOL    HW117866   4.287   4.361   1.402 -1.6272  0.4678  0.7654
 3272SOL    HW217867   4.151   4.334   1.315 -0.3415 -0.2904 -1.0520
 3273SOL     OW17868   9.066   9.184   0.340  0.4065 -0.0244 -0.3964
 3273SOL    HW117869   8.997   9.114   0.320  0.4816 -0.4178  0.6727
 3273SOL    HW217870   9.020   9.268   0.367  0.3221  0.1871 -1.2036
 3274SOL     OW17871   8.655   6.380   0.350  0.6075  0.0453  0.1555
 3274SOL    HW117872   8.641   6.297   0.403  0.3924  0.3625  0.5971
 3274SOL    HW217873   8.744   6.421   0.373  1.2376 -0.6859 -0.9145
 3275SOL     OW17874   8.508   2.190   2.023 -0.6442 -0.0767  0.5846
 3275SOL    HW117875   8.435   2.247   1.984  1.1325  2.1392  0.3998
 3275SOL    HW217876   8.529   2.115   1.960 -0.7581  0.9707 -0.7118
 3276SOL     OW17877   0.534   0.000   0.824  0.3514 -0.1038 -0.0028
 3276SOL    HW117878   0.588   0.081   0.848  0.7110  0.1797 -1.7186
 3276SOL    HW217879   0.443   0.029   0.795  0.4347 -0.3248 -0.4813
 3277SOL     OW17880   1.265   8.091   0.868 -0.0878 -0.3429 -0.4282
 3277SOL    HW117881   1.325   8.029   0.819  0.8644  1.1894 -1.2604
 3277SOL    HW217882   1.310   8.180   0.879 -0.4935 -0.4730  2.7764
 3278SOL     OW17883   9.518   8.477   0.568 -0.2644 -0.5060 -0.4314
 3278SOL    HW117884   9.544   8.382   0.588 -0.6835 -0.6953 -0.7634
 3278SOL    HW217885   9.501   8.487   0.470  0.0374 -0.0217 -0.4336
 3280SOL     OW17886   2.938   3.756   2.012  0.0689 -0.1109  0.6327
 3280SOL    HW117887   2.959   3.660   2.030 -0.9694 -0.6009 -0.7546
 3280SOL    HW217888   2.876   3.764   1.934  2.4726  1.8462 -1.1656
 3282SOL     OW17889   4.053   9.372   0.513  0.6607  0.1894  0.0928
 3282SOL    HW117890   4.116   9.297   0.535  0.2545 -0.0101  0.5891
 3282SOL    HW217891   4.018   9.360   0.420  0.9298 -0.0022  0.0151
 3283SOL     OW17892   3.173   4.988   0.858  0.6070  0.4182 -0.2970
 3283SOL    HW117893   3.153   4.953   0.766 -2.1640  0.9051  0.0726
 3283SOL    HW217894   3.199   5.085   0.851 -0.4322  0.6907 -0.5162
 3284SOL     OW17895   0.465   9.344   1.365 -0.0427 -0.2349 -0.7507
 3284SOL    HW117896   0.486   9.441   1.355 -1.5052  0.3130  1.1846
 3284SOL    HW217897   0.394   9.319   1.300 -0.6718  0.3452 -0.2955
 3285SOL     OW17898   1.084   7.763   0.550  0.2153  0.6613  0.0174
 3285SOL    HW117899   1.066   7.801   0.640 -2.1806 -0.7956  0.1995
 3285SOL    HW217900   1.069   7.834   0.480  2.4892  1.9038  0.7528
 3288SOL     OW17901   1.428   4.659   0.590  0.1933 -0.3441 -0.0923
 3288SOL    HW117902   1.454   4.593   0.519 -3.4918 -0.6565 -1.2372
 3288SOL    HW217903   1.378   4.734   0.548  1.3741  1.5048  1.7002
 3291SOL     OW17904   2.750   6.799   2.189  0.3746 -0.1836 -0.2923
 3291SOL    HW117905   2.663   6.760   2.217 -0.5798  1.3996 -1.0251
 3291SOL    HW217906   2.816   6.790   2.264 -0.2267 -1.9191  0.0391
 3292SOL     OW17907   3.904   8.361   0.882 -0.1350  0.0491 -0.2168
 3292SOL    HW117908   3.888   8.284   0.821 -1.0951  0.2840 -0.2614
 3292SOL    HW217909   3.818   8.391   0.922  0.5034 -0.2850  1.4701
 3295SOL     OW17910   9.550   0.495   1.470  0.5511  0.2355 -0.0661
 3295SOL    HW117911   9.576   0.486   1.566  0.6489 -1.1970 -0.2162
 3295SOL    HW217912   9.618   0.449   1.413 -0.2855 -0.2023 -0.7158
 3296SOL     OW17913   0.782   5.179   0.564 -0.1382  0.3692  0.0501
 3296SOL    HW117914   0.760   5.267   0.521 -0.8849  0.1106 -0.0952
 3296SOL    HW217915   0.739   5.175   0.654  0.1914  0.2935  0.2060
 3297SOL     OW17916   2.523   2.190   0.361  0.8180 -0.4749  0.1849
 3297SOL    HW117917   2.541   2.257   0.289 -1.4986  0.2369  0.2347
 3297SOL    HW217918   2.499   2.102   0.320 -3.0517  0.5982 -0.0192
 3298SOL     OW17919   3.368   4.545   0.780 -0.3419  0.6255  0.1216
 3298SOL    HW117920   3.395   4.449   0.777 -0.7278  0.4629  1.5195
 3298SOL    HW217921   3.440   4.598   0.825 -0.8521  0.7239  0.8326
 3299SOL     OW17922   0.100   5.188   0.687 -0.0093 -0.4348  0.5985
 3299SOL    HW117923   0.126   5.167   0.593 -2.8425  1.1787 -0.6202
 3299SOL    HW217924   0.123   5.284   0.706 -0.2915 -0.4933  1.2288
 3300SOL     OW17925   2.171   4.433   0.447  0.1296  0.1779  0.1277
 3300SOL    HW117926   2.260   4.401   0.417  0.8017 -0.3598  2.5920
 3300SOL    HW217927   2.176   4.464   0.542 -2.2269  0.4870  0.1955
 3302SOL     OW17928   3.143   0.974   2.232  0.6851  0.2608 -0.1738
 3302SOL    HW117929   3.220   1.004   2.288  0.8013  0.3046 -0.3566
 3302SOL    HW217930   3.165   0.988   2.135  1.3616 -1.8196 -0.3556
 3303SOL     OW17931   4.642   1.828   1.516 -0.3663 -0.3950  0.1046
 3303SOL    HW117932   4.709   1.762   1.547  0.2824  0.8694  1.4494
 3303SOL    HW217933   4.630   1.820   1.417  1.6180 -0.7803 -0.1251
 3304SOL     OW17934   4.253   1.176   0.946 -0.2292 -0.7102  0.3083
 3304SOL    HW117935   4.237   1.261   0.896 -1.0429 -1.8705 -1.4855
 3304SOL    HW217936   4.196   1.173   1.028  1.0811  1.2096  1.3089
 3305SOL     OW17937   1.080   0.112   1.489  0.2396 -0.0449  0.3587
 3305SOL    HW117938   0.993   0.103   1.440 -1.8483  0.5899  3.8387
 3305SOL    HW217939   1.142   0.170   1.435 -1.7131  0.0840 -1.8384
 3306SOL     OW17940   0.123   9.708   2.228  0.1236 -0.5732 -0.4641
 3306SOL    HW117941   0.093   9.747   2.315 -0.5465 -1.8775 -0.0921
 3306SOL    HW217942   0.179   9.774   2.179 -1.1099  0.8897  0.0706
 3307SOL     OW17943   2.659   8.970   0.390  0.6543  0.1368 -0.0258
 3307SOL    HW117944   2.755   8.941   0.385  0.4939 -0.2870 -0.7015
 3307SOL    HW217945   2.654   9.070   0.389  1.0641  0.1567 -0.6159
 3309SOL     OW17946   9.209   0.335   0.588 -0.1249 -0.1790 -0.3638
 3309SOL    HW117947   9.160   0.397   0.649 -0.7973 -1.3484  0.2819
 3309SOL    HW217948   9.158   0.326   0.502  0.9348  1.6393 -1.2045
 3310SOL     OW17949   2.647   0.212   2.148  0.7387 -0.4094 -1.0081
 3310SOL    HW117950   2.684   0.304   2.158  0.5710 -0.7183  3.1834
 3310SOL    HW217951   2.547   0.215   2.154  0.8134 -1.0093  0.8757
 3311SOL     OW17952   2.789   3.271   2.243 -0.0874  0.5556  0.2530
 3311SOL    HW117953   2.802   3.290   2.340 -4.3677  0.9199  0.8477
 3311SOL    HW217954   2.783   3.357   2.193  0.6837  0.3894 -0.1286
 3312SOL     OW17955   0.630   6.485   1.203  0.6983 -0.1601  0.0138
 3312SOL    HW117956   0.707   6.474   1.265  2.0148  0.1711 -1.5139
 3312SOL    HW217957   0.662   6.527   1.118 -0.9962 -0.8887 -1.0123
 3314SOL     OW17958   2.515   5.383   0.927 -0.5717  0.0300 -0.3502
 3314SOL    HW117959   2.487   5.314   0.861 -1.5468  0.4538 -0.3854
 3314SOL    HW217960   2.551   5.463   0.878  0.1764 -0.2827 -0.3198
 3316SOL     OW17961   3.460   4.934   0.721 -0.0505 -0.3582 -0.4246
 3316SOL    HW117962   3.378   4.981   0.753 -1.1658 -0.5835 -2.7947
 3316SOL    HW217963   3.469   4.846   0.767 -0.1407  0.4539  1.1529
 3317SOL     OW17964   9.538   7.927   0.743 -0.3031  0.0330 -0.1048
 3317SOL    HW117965   9.453   7.894   0.784 -1.2026 -0.0663 -1.9911
 3317SOL    HW217966   9.599   7.850   0.724 -0.4110 -0.0426 -0.1395
 3318SOL     OW17967   9.595   6.902   2.341 -0.0282  0.1778 -0.0176
 3318SOL    HW117968   9.622   6.820   2.291  0.5736  0.4855 -0.1900
 3318SOL    HW217969   9.511   6.883   2.393  1.3365 -1.2331  1.7522
 3320SOL     OW17970   2.168   1.880   1.808  0.2303  0.4099  0.3170
 3320SOL    HW117971   2.202   1.833   1.726  0.1998 -1.2400  1.2294
 3320SOL    HW217972   2.084   1.930   1.785  1.1762  1.3774 -1.0549
 3321SOL     OW17973   2.019   0.165   1.817 -0.2340  0.0820  0.4058
 3321SOL    HW117974   2.011   0.065   1.823 -2.6269  0.1169 -1.6704
 3321SOL    HW217975   2.056   0.200   1.904  2.8798 -2.7766  0.3798
 3323SOL     OW17976   1.516   5.895   1.959 -0.0292  1.0701  0.0444
 3323SOL    HW117977   1.563   5.809   1.977  0.0020  1.0516 -0.1283
 3323SOL    HW217978   1.477   5.930   2.044 -0.1838  0.8025  0.0837
 3324SOL     OW17979   9.373   8.623   1.426 -0.3943 -0.1466 -0.3266
 3324SOL    HW117980   9.458   8.673   1.445 -0.5765  0.3972 -0.8950
 3324SOL    HW217981   9.392   8.545   1.367  0.1543 -1.7795  1.9452
 3325SOL     OW17982   7.935   0.640   0.469  0.2018  0.6547 -0.1858
 3325SOL    HW117983   7.902   0.604   0.382  1.6155 -1.5786  0.1437
 3325SOL    HW217984   8.035   0.633   0.472  0.1880  0.9565  1.4862
 3326SOL     OW17985   2.512   8.152   1.147 -0.0671 -0.0183 -0.2959
 3326SOL    HW117986   2.471   8.065   1.118 -0.0997 -1.0612  2.6593
 3326SOL    HW217987   2.610   8.138   1.165  0.1358  0.8015 -0.7726
 3327SOL     OW17988   3.978   5.021   1.691  0.5463  0.4853  0.2493
 3327SOL    HW117989   3.988   4.976   1.603  0.5426  1.3226 -0.1839
 3327SOL    HW217990   3.898   5.081   1.689  0.3460  0.2470  0.9335
 3328SOL     OW17991   0.665   3.851   0.627  0.0257  0.2537 -0.1836
 3328SOL    HW117992   0.693   3.811   0.714 -0.8411  0.2296  0.0869
 3328SOL    HW217993   0.738   3.909   0.592  0.6163 -0.2151  0.2593
 3329SOL     OW17994   3.584   8.198   0.703  0.3361 -0.1434 -0.2155
 3329SOL    HW117995   3.494   8.178   0.741 -0.4298  2.9786 -0.3089
 3329SOL    HW217996   3.586   8.171   0.606 -1.1006  1.4549 -0.6931
 3330SOL     OW17997   2.086   0.260   2.063  0.0331 -0.4304 -0.7101
 3330SOL    HW117998   2.098   0.345   2.115 -0.8181 -0.3929 -0.5718
 3330SOL    HW217999   2.004   0.213   2.095 -0.6271 -0.2925 -2.1890
 3332SOL     OW18000   9.180   3.659   1.285 -0.0215 -0.0024  0.3134
 3332SOL    HW118001   9.173   3.758   1.300  0.4295  0.3297 -1.4423
 3332SOL    HW218002   9.100   3.627   1.235 -0.7107 -0.7451  1.8844
 3333SOL     OW18003   2.069   9.662   0.653 -0.0695 -0.0818 -0.0165
 3333SOL    HW118004   2.101   9.580   0.699  1.6259  1.2792  1.2868
 3333SOL    HW218005   1.980   9.644   0.610  0.2285 -2.5306  0.3531
 3334SOL     OW18006   8.477   1.912   0.332  0.5969 -0.3554 -0.1174
 3334SOL    HW118007   8.418   1.892   0.253  0.8890 -1.1369 -0.1400
 3334SOL    HW218008   8.550   1.973   0.304 -0.9285  1.6560  0.1983
 3336SOL     OW18009   1.245   1.454   0.877 -0.1757  0.1495  0.1425
 3336SOL    HW118010   1.157   1.410   0.861  0.4333 -0.9957 -0.1766
 3336SOL    HW218011   1.275   1.500   0.793 -0.6543  0.8991  0.3754
 3337SOL     OW18012   2.885   1.010   1.182  0.3839  0.2545 -0.3321
 3337SOL    HW118013   2.964   1.071   1.187 -0.2478  1.1543 -1.1203
 3337SOL    HW218014   2.804   1.057   1.217 -0.3347  0.2650 -1.9785
 3338SOL     OW18015   9.092   4.066   1.159 -0.2712 -0.1664  0.1770
 3338SOL    HW118016   9.120   4.071   1.254  0.5168  0.8912 -0.1036
 3338SOL    HW218017   9.079   4.158   1.123  2.4400 -0.4176 -1.6103
 3339SOL     OW18018   3.978   8.812   0.769 -0.2799  0.6446  0.4313
 3339SOL    HW118019   4.008   8.866   0.689 -1.5324  0.5759 -0.1081
 3339SOL    HW218020   4.054   8.801   0.832  0.6104  1.1216 -0.5303
 3340SOL     OW18021   1.371   6.610   1.372 -0.5657  0.1986 -0.0061
 3340SOL    HW118022   1.457   6.601   1.422 -1.3581  0.6627  1.4752
 3340SOL    HW218023   1.380   6.681   1.302  0.3623  0.0073 -0.0832
 3342SOL     OW18024   1.981   9.649   1.400  0.1852  0.3072 -0.0938
 3342SOL    HW118025   1.947   9.732   1.357 -0.6267  0.1043  0.1441
 3342SOL    HW218026   1.915   9.617   1.468  0.8144 -0.1443  0.3141
 3343SOL     OW18027   3.203   0.254   1.796 -1.3509 -0.2502 -0.0136
 3343SOL    HW118028   3.209   0.335   1.738  2.3955 -0.7743 -0.4555
 3343SOL    HW218029   3.200   0.283   1.892  1.0686  0.4350 -0.1132
 3345SOL     OW18030   8.148   0.389   1.677 -0.5232  0.2309  0.5466
 3345SOL    HW118031   8.242   0.368   1.707  0.1136 -1.3575 -2.4262
 3345SOL    HW218032   8.083   0.351   1.743  0.8902 -0.3701  1.6126
 3348SOL     OW18033   9.103   8.097   2.033  0.1219  0.1724  0.2519
 3348SOL    HW118034   9.154   8.056   2.109 -0.2413  0.4082  0.6202
 3348SOL    HW218035   9.143   8.185   2.009 -0.0079  0.2772  0.4261
 3349SOL     OW18036   8.423   0.720   1.780 -0.3739  0.0753  0.5442
 3349SOL    HW118037   8.498   0.658   1.759  0.1821  0.6636  0.7701
 3349SOL    HW218038   8.357   0.674   1.839 -0.4316 -0.5981 -0.0385
 3350SOL     OW18039   8.549   0.996   1.792 -0.1045  0.0740 -0.1535
 3350SOL    HW118040   8.518   0.901   1.788 -0.5799  0.2483 -0.8575
 3350SOL    HW218041   8.491   1.047   1.855 -1.2553  0.3916 -1.4420
 3351SOL     OW18042   3.660   2.306   0.631 -0.8049 -0.1533  0.0061
 3351SOL    HW118043   3.645   2.389   0.578  0.3295  0.5946  0.8207
 3351SOL    HW218044   3.753   2.306   0.668 -1.5365 -0.6590  1.9425
 3352SOL     OW18045   9.121   9.635   1.035  0.1071  0.2463 -0.0466
 3352SOL    HW118046   9.100   9.649   1.132 -0.8731  0.8123 -0.3462
 3352SOL    HW218047   9.218   9.610   1.026  0.4769  1.2470  0.9864
 3353SOL     OW18048   9.005   6.929   0.422 -0.0222  0.1751 -0.4632
 3353SOL    HW118049   8.974   6.878   0.502  1.2573  2.1834  1.3522
 3353SOL    HW218050   8.938   6.999   0.399 -0.4595 -0.4949 -1.2770
 3354SOL     OW18051   9.294   1.230   0.903  0.0951 -0.4267  0.0883
 3354SOL    HW118052   9.320   1.257   0.996 -1.2160  2.5875 -0.3647
 3354SOL    HW218053   9.365   1.261   0.839  0.0938 -0.8324 -0.1081
 3356SOL     OW18054   3.554   2.960   2.054  0.2711  0.4841 -0.2321
 3356SOL    HW118055   3.574   3.001   1.965 -0.0538  2.1984  0.4470
 3356SOL    HW218056   3.546   3.033   2.122  1.6110 -0.8702  1.4156
 3357SOL     OW18057   9.358   9.481   1.263  0.1537 -0.0679 -0.2517
 3357SOL    HW118058   9.274   9.451   1.218  0.6836 -1.1378 -0.5437
 3357SOL    HW218059   9.348   9.576   1.292 -1.1624 -0.1926 -0.2641
 3359SOL     OW18060   9.454   9.731   1.567 -0.4098 -0.2521 -0.5838
 3359SOL    HW118061   9.428   9.634   1.571  0.7549 -0.5449  0.3318
 3359SOL    HW218062   9.553   9.738   1.565 -0.4922  0.9296 -0.5292
 3360SOL     OW18063   1.114   7.557   2.082  0.3229 -0.1676 -0.1578
 3360SOL    HW118064   1.138   7.653   2.069 -0.0271  0.0409  0.7560
 3360SOL    HW218065   1.075   7.544   2.173  2.3156 -1.5375  0.5477
 3361SOL     OW18066   9.265   0.394   1.560 -0.2531 -0.2169  0.3633
 3361SOL    HW118067   9.359   0.406   1.528 -0.7976  1.3233 -0.7467
 3361SOL    HW218068   9.202   0.427   1.489 -1.6435 -1.7085  0.8793
 3362SOL     OW18069   2.930   8.205   0.479 -0.3167 -0.4165  0.0816
 3362SOL    HW118070   2.887   8.209   0.569  1.8152 -0.2768  1.1315
 3362SOL    HW218071   2.860   8.191   0.409 -1.9531 -1.0356  1.7990
 3363SOL     OW18072   1.078   4.004   1.021 -0.2616 -0.2646 -1.1201
 3363SOL    HW118073   1.141   3.955   1.082  1.4165  1.3551 -1.5105
 3363SOL    HW218074   0.984   3.993   1.054  0.1892 -2.7589 -0.5531
 3364SOL     OW18075   1.679   8.128   1.065  0.8000  0.0088  0.1886
 3364SOL    HW118076   1.713   8.121   0.971 -0.8128 -0.4878 -0.3720
 3364SOL    HW218077   1.627   8.045   1.088 -2.7590  2.0743 -0.0918
 3365SOL     OW18078   9.726   4.688   1.246 -0.0000  0.3174 -0.2333
 3365SOL    HW118079   9.766   4.644   1.326  0.3687  2.6304  0.8734
 3365SOL    HW218080   9.634   4.650   1.230  0.6772 -1.5083  0.1172
 3366SOL     OW18081   0.590   2.480   1.905 -0.2212 -0.0885 -0.2308
 3366SOL    HW118082   0.551   2.515   1.990 -0.2647  0.0072 -0.2901
 3366SOL    HW218083   0.686   2.459   1.918  0.2195  1.5916 -0.6479
 3367SOL     OW18084   3.393   8.472   2.301 -0.1136  0.2698  0.1017
 3367SOL    HW118085   3.421   8.444   2.210 -0.9345  2.1647 -0.7489
 3367SOL    HW218086   3.367   8.391   2.354  0.1644 -0.8224 -1.4096
 3368SOL     OW18087   8.556   7.479   1.335 -0.0525  0.4597  0.4063
 3368SOL    HW118088   8.462   7.498   1.363 -1.0352 -0.3138 -2.2699
 3368SOL    HW218089   8.600   7.563   1.305 -0.5618  0.4990 -0.2470
 3369SOL     OW18090   2.626   5.329   1.836  0.2729 -0.0824 -0.5279
 3369SOL    HW118091   2.554   5.328   1.906 -1.2192  0.9746 -1.9968
 3369SOL    HW218092   2.697   5.395   1.862  0.1155 -0.2465  0.3462
 3371SOL     OW18093   0.589   4.599   0.625 -0.2101  0.3862 -0.1098
 3371SOL    HW118094   0.540   4.560   0.702 -0.2304 -0.4704 -0.5449
 3371SOL    HW218095   0.543   4.573   0.540 -0.2799  1.4491 -0.4032
 3372SOL     OW18096   4.138   3.754   0.852  0.3316  0.1104 -0.1988
 3372SOL    HW118097   4.075   3.808   0.908  0.7338 -0.1633  0.5311
 3372SOL    HW218098   4.097   3.738   0.762 -0.4241  0.3661  0.0937
 3373SOL     OW18099  -0.028   4.063   1.484  0.1217  1.0816  0.9858
 3373SOL    HW118100  -0.094   4.053   1.558 -0.9180 -0.1986 -0.0894
 3373SOL    HW218101  -0.022   3.977   1.434 -0.1551  2.3277 -1.2318
 3374SOL     OW18102   0.313   3.213   0.663 -0.0547 -0.2515  0.0037
 3374SOL    HW118103   0.317   3.154   0.583 -0.6974  0.4353 -0.5441
 3374SOL    HW218104   0.369   3.295   0.648 -0.9112  0.3257 -0.1351
 3376SOL     OW18105   7.656   9.825   0.476  0.6305 -0.0943 -0.5144
 3376SOL    HW118106   7.614   9.768   0.406  1.1368 -0.7140 -0.3257
 3376SOL    HW218107   7.669   9.771   0.559 -1.2459  1.0230  0.5262
 3378SOL     OW18108   1.412   6.739   0.900 -0.1129  0.2060 -0.0155
 3378SOL    HW118109   1.428   6.646   0.867 -0.9950  0.5431 -1.4291
 3378SOL    HW218110   1.468   6.803   0.848 -1.5911  0.7499 -0.9797
 3380SOL     OW18111   8.837   1.038   1.788 -0.3536  0.5051  0.5390
 3380SOL    HW118112   8.862   1.026   1.884 -2.1724  1.2554  1.1232
 3380SOL    HW218113   8.740   1.019   1.776  0.0294 -0.3813 -1.3138
 3381SOL     OW18114   3.095   7.710   1.977 -0.1092  0.2880 -0.0943
 3381SOL    HW118115   3.022   7.771   1.948 -0.6385 -0.4674 -0.3699
 3381SOL    HW218116   3.166   7.762   2.025 -0.3786  1.1628 -0.6448
 3382SOL     OW18117   3.458   1.877   1.214 -0.4104  0.1942 -0.1451
 3382SOL    HW118118   3.384   1.855   1.278 -0.7604 -1.3359 -1.0351
 3382SOL    HW218119   3.435   1.962   1.166 -1.9680 -0.6432 -0.9343
 3383SOL     OW18120   0.106   3.814   0.627 -0.1578  0.1125 -1.2208
 3383SOL    HW118121   0.199   3.851   0.616  0.4102 -0.1445  2.2832
 3383SOL    HW218122   0.110   3.714   0.629 -0.7175  0.0516 -2.4309
 3385SOL     OW18123   2.863   2.509   2.000  0.6220  0.6215  0.5024
 3385SOL    HW118124   2.852   2.490   1.903  1.9907  3.4308 -0.2764
 3385SOL    HW218125   2.834   2.603   2.019 -0.4928 -0.1904  2.9931
 3387SOL     OW18126   2.535   3.620   0.343  0.4231 -0.4778 -0.5155
 3387SOL    HW118127   2.509   3.529   0.375 -1.0103 -0.2130 -0.9049
 3387SOL    HW218128   2.453   3.672   0.320  1.2496  0.8309 -0.5335
 3388SOL     OW18129   0.078   1.877   0.726 -0.3833  0.3238 -0.1933
 3388SOL    HW118130   0.172   1.895   0.696 -0.8665  2.4400 -0.5199
 3388SOL    HW218131   0.031   1.823   0.656  0.3745 -0.1195 -0.3679
 3389SOL     OW18132   3.166   4.659   0.433  0.2596  0.1030 -0.4041
 3389SOL    HW118133   3.087   4.617   0.388 -0.0289  0.0768  0.1317
 3389SOL    HW218134   3.250   4.614   0.401 -0.1722 -2.4223  1.8286
 3390SOL     OW18135   2.902   4.206   0.553 -0.0532  0.1867 -0.1958
 3390SOL    HW118136   2.873   4.134   0.491 -0.1898 -0.2837  0.4149
 3390SOL    HW218137   2.937   4.166   0.637 -2.7728  0.8892  1.3239
 3391SOL     OW18138   3.744   8.426   0.515  0.1346 -0.0857 -0.0816
 3391SOL    HW118139   3.814   8.364   0.551 -1.3455 -2.5177 -1.2397
 3391SOL    HW218140   3.695   8.468   0.591  0.3655 -1.2842  0.7607
 3392SOL     OW18141   9.224   0.287   2.136  0.3777  0.6650  0.6310
 3392SOL    HW118142   9.315   0.258   2.167  0.2077  0.6535  1.1213
 3392SOL    HW218143   9.233   0.348   2.057  0.7852  0.1517  0.2713
 3393SOL     OW18144   9.103   1.297   0.587  0.9766 -0.7456 -0.2285
 3393SOL    HW118145   9.080   1.283   0.683  0.6564 -0.5456 -0.2760
 3393SOL    HW218146   9.174   1.232   0.560  1.5038 -0.3952  0.3038
 3394SOL     OW18147   3.379   2.913   0.450 -0.2153 -0.3959  0.2871
 3394SOL    HW118148   3.341   2.950   0.535 -1.2808 -1.7699  0.4233
 3394SOL    HW218149   3.349   2.819   0.438  3.0124 -1.4773  0.2773
 3396SOL     OW18150   9.474   8.929   0.415 -0.2497 -0.3140 -0.1442
 3396SOL    HW118151   9.445   9.024   0.429 -0.8120 -0.3271 -1.1826
 3396SOL    HW218152   9.395   8.869   0.420 -0.1455 -0.5460 -1.1268
 3397SOL     OW18153   8.653  -0.078   2.051  0.1188 -0.1802  0.0243
 3397SOL    HW118154   8.681  -0.111   1.961  0.9876  0.8139 -0.0776
 3397SOL    HW218155   8.582  -0.008   2.040  0.1427 -0.1418  0.1120
 3398SOL     OW18156   0.765   7.155   1.080 -0.0333  0.2487 -0.3165
 3398SOL    HW118157   0.791   7.155   1.177  2.3218 -0.0163 -0.9087
 3398SOL    HW218158   0.763   7.249   1.045  1.5771  0.1785 -0.6186
 3400SOL     OW18159   3.043   8.366   1.549  0.2272  0.4968 -0.4842
 3400SOL    HW118160   3.082   8.434   1.612  0.7508 -0.4680  0.2568
 3400SOL    HW218161   2.957   8.331   1.587 -0.9227  1.9985 -1.7038
 3401SOL     OW18162   9.088   6.988   0.839  0.0572 -0.0177  0.4180
 3401SOL    HW118163   9.115   6.994   0.935 -0.1154 -0.5923  0.5014
 3401SOL    HW218164   9.156   7.037   0.783  1.1777 -1.2694  0.6525
 3403SOL     OW18165   4.155   3.169   2.315  0.1224 -0.1030  0.6061
 3403SOL    HW118166   4.196   3.083   2.286  1.5702  0.8407 -0.2392
 3403SOL    HW218167   4.166   3.180   2.413 -0.4851 -1.1074  0.7819
 3404SOL     OW18168   9.916   6.627   1.837  0.2403 -0.3194 -0.0659
 3404SOL    HW118169   9.875   6.544   1.799  0.2195 -0.2256 -0.2479
 3404SOL    HW218170   9.978   6.602   1.912  0.0576 -0.4808  0.0318
 3405SOL     OW18171   2.015   7.091   1.217 -1.0073 -0.1049 -0.7757
 3405SOL    HW118172   1.984   7.084   1.122  1.8631  1.3688 -1.8737
 3405SOL    HW218173   2.053   7.182   1.233  2.4729 -1.7121  0.5385
 3406SOL     OW18174   3.933   2.967   1.445  0.2996  0.5892 -0.4036
 3406SOL    HW118175   3.866   2.961   1.519  0.0944 -0.5304 -0.6763
 3406SOL    HW218176   3.887   2.960   1.357  1.0185 -3.1443 -0.5687
 3407SOL     OW18177   3.362   3.142   1.294  0.1322  0.2709 -0.8676
 3407SOL    HW118178   3.291   3.075   1.315  0.7384 -0.0244  0.3009
 3407SOL    HW218179   3.412   3.114   1.213  0.4356 -0.7522 -0.3343
 3408SOL     OW18180   2.342   0.852   1.180 -0.5116 -0.2789 -0.2249
 3408SOL    HW118181   2.286   0.846   1.263 -0.2060  0.6643  0.0656
 3408SOL    HW218182   2.342   0.764   1.133 -0.0437 -1.0570  1.1961
 3410SOL     OW18183   1.560   9.162   0.726  0.0844 -0.0510  0.2024
 3410SOL    HW118184   1.619   9.194   0.800  0.0166 -2.1848  1.2375
 3410SOL    HW218185   1.590   9.201   0.639  2.0705  0.0860  0.9294
 3411SOL     OW18186   0.341   4.302   0.586  0.1092  0.1136  0.1036
 3411SOL    HW118187   0.373   4.381   0.533  0.9336  0.5811  1.2796
 3411SOL    HW218188   0.250   4.321   0.623 -0.8354 -0.5374 -1.8005
 3412SOL     OW18189   8.915   6.721   2.027  0.1817 -0.7936 -0.1737
 3412SOL    HW118190   9.006   6.690   2.056  0.4686  0.4065  0.2264
 3412SOL    HW218191   8.924   6.779   1.946 -0.3607 -1.8062 -0.9621
 3413SOL     OW18192   0.051   3.264   0.734 -0.3094 -0.3591  0.1438
 3413SOL    HW118193   0.007   3.187   0.781 -0.5540 -1.2419 -1.4987
 3413SOL    HW218194   0.147   3.243   0.718  0.6467  1.3298  3.1993
 3414SOL     OW18195   0.890   1.764   1.989 -0.0429  0.0689 -0.0886
 3414SOL    HW118196   0.794   1.778   1.964  0.0949  0.6296 -0.3124
 3414SOL    HW218197   0.900   1.675   2.034 -0.5231 -0.3727 -0.8325
 3415SOL     OW18198   2.598   4.791   2.134 -0.0328 -0.4524  0.2267
 3415SOL    HW118199   2.611   4.873   2.189 -0.2013 -0.0136 -0.3763
 3415SOL    HW218200   2.662   4.720   2.163  0.3773  0.0239  0.4945
 3416SOL     OW18201   1.384   0.662   0.377  0.7432  0.4967 -0.1174
 3416SOL    HW118202   1.333   0.695   0.297  0.0537 -0.4906 -0.0930
 3416SOL    HW218203   1.369   0.564   0.388  1.3164  0.5144  0.8768
 3417SOL     OW18204   9.390   3.686   2.059  0.1814  0.0776  0.1097
 3417SOL    HW118205   9.303   3.657   2.099 -0.3466  0.4920 -0.7237
 3417SOL    HW218206   9.383   3.686   1.959  1.3564 -0.5575  0.0085
 3419SOL     OW18207   3.706   0.258   0.824 -0.5261  0.1848  0.0152
 3419SOL    HW118208   3.736   0.334   0.881 -0.9700  0.5176 -0.1958
 3419SOL    HW218209   3.617   0.226   0.854 -0.3285 -0.2761  0.1223
 3420SOL     OW18210   2.068   4.800   0.639 -0.7871 -0.2327  0.3050
 3420SOL    HW118211   2.095   4.861   0.565 -2.1763  0.7056  0.5492
 3420SOL    HW218212   2.131   4.811   0.716 -2.4898  2.8174  1.3273
 3421SOL     OW18213   0.254   9.269   2.223  0.0473 -0.6074  0.0641
 3421SOL    HW118214   0.263   9.346   2.287  0.9901 -1.2193  0.6686
 3421SOL    HW218215   0.203   9.300   2.142  0.5512  0.6984  0.2315
 3425SOL     OW18216  -0.011   1.047   1.973  0.3629 -0.1615 -0.2619
 3425SOL    HW118217   0.057   1.119   1.960  0.0624  0.0733 -0.5307
 3425SOL    HW218218  -0.089   1.083   2.024  0.5387 -0.4917  0.2463
 3426SOL     OW18219   8.909   0.230   0.837  0.0026  0.1423  0.3308
 3426SOL    HW118220   8.854   0.298   0.789 -1.0190 -1.2635 -0.5214
 3426SOL    HW218221   8.859   0.198   0.918  0.5284  0.4690  0.7922
 3429SOL     OW18222   9.884   7.903   0.559  0.0877  0.1176  0.1115
 3429SOL    HW118223   9.834   7.823   0.593  1.7060 -0.6757  0.7037
 3429SOL    HW218224   9.835   7.944   0.483 -1.3651 -0.7446  0.5699
 3430SOL     OW18225   9.103   6.643   0.314 -0.1628  0.8092  0.6048
 3430SOL    HW118226   9.018   6.695   0.307 -0.8684 -0.2851  0.9529
 3430SOL    HW218227   9.162   6.684   0.383 -0.3046  1.7118  0.1956
 3431SOL     OW18228   4.166   4.795   0.477 -0.0978  0.1929 -0.0127
 3431SOL    HW118229   4.147   4.760   0.385  0.1976  0.0055 -0.0021
 3431SOL    HW218230   4.121   4.884   0.488 -2.2071 -0.9018  0.5320
 3432SOL     OW18231   0.224   9.333   1.203 -0.3794 -0.0553  0.4042
 3432SOL    HW118232   0.136   9.288   1.219 -0.5969  0.1996 -0.0245
 3432SOL    HW218233   0.207   9.424   1.163  0.0303  0.6263  1.7569
 3433SOL     OW18234   4.273   4.376   2.129  0.7174 -0.6159 -0.2091
 3433SOL    HW118235   4.341   4.375   2.055  1.4367 -1.2303  0.4430
 3433SOL    HW218236   4.181   4.371   2.091  0.9702  1.5774 -1.1741
 3434SOL     OW18237   8.978   4.594   1.850 -0.1355 -0.3182  0.7731
 3434SOL    HW118238   8.973   4.509   1.797  1.0468  0.1151 -0.0466
 3434SOL    HW218239   8.985   4.671   1.787  0.6717  0.2504  1.5592
 3437SOL     OW18240   1.608   6.563   1.506 -0.1954  0.1800  0.3590
 3437SOL    HW118241   1.680   6.583   1.573 -0.6439  1.1237  0.5739
 3437SOL    HW218242   1.642   6.498   1.439  1.3368  1.6313 -0.3164
 3439SOL     OW18243   0.618   1.761   1.977  1.0044 -0.5743 -0.1710
 3439SOL    HW118244   0.521   1.779   1.962  1.0574  1.0689  1.2853
 3439SOL    HW218245   0.630   1.710   2.063  1.4905  0.0818  0.1575
 3440SOL     OW18246   9.270   9.124   2.067  0.2626 -0.1455 -0.1350
 3440SOL    HW118247   9.229   9.216   2.062  0.4470 -0.0941 -0.7896
 3440SOL    HW218248   9.367   9.130   2.044  0.3736 -0.4392  0.2610
 3442SOL     OW18249   0.628   5.049   1.190  0.6738  0.4998 -0.7606
 3442SOL    HW118250   0.688   5.023   1.265 -0.5870  1.3216  0.5655
 3442SOL    HW218251   0.557   4.979   1.178 -0.2476  1.2655  0.0808
 3444SOL     OW18252   8.811   7.821   2.238 -0.0873 -0.4009 -0.1291
 3444SOL    HW118253   8.733   7.763   2.215  0.4220 -0.9031 -0.5973
 3444SOL    HW218254   8.886   7.803   2.175  0.2355  0.4449  0.0039
 3445SOL     OW18255   8.185   8.615   2.064 -0.3406 -0.4415 -0.3003
 3445SOL    HW118256   8.282   8.631   2.083 -0.4051 -0.0675 -0.2768
 3445SOL    HW218257   8.144   8.564   2.140  0.2283 -2.0906 -1.0962
 3446SOL     OW18258   3.132   8.089   1.831  0.1264  0.2675 -0.2522
 3446SOL    HW118259   3.164   8.022   1.765  1.1015  0.8222 -0.3626
 3446SOL    HW218260   3.165   8.180   1.805 -0.3022  0.6351  0.4549
 3447SOL     OW18261   1.654   7.730   1.320  0.1169  0.0702 -0.2748
 3447SOL    HW118262   1.603   7.711   1.404  0.7721 -0.0425  0.1068
 3447SOL    HW218263   1.748   7.754   1.343  0.5196 -0.7645 -1.0235
 3448SOL     OW18264   1.906   2.017   2.139  0.6423 -1.0582  1.0320
 3448SOL    HW118265   1.808   2.002   2.153  0.7643 -1.1011  1.8522
 3448SOL    HW218266   1.944   2.066   2.217  1.0642 -0.0946  0.2265
 3449SOL     OW18267   9.911   7.822   0.965 -0.2287 -0.3908 -0.0992
 3449SOL    HW118268   9.966   7.905   0.961  2.1981 -2.0050 -1.2480
 3449SOL    HW218269   9.960   7.752   1.016 -1.7155 -1.5312 -0.1935
 3450SOL     OW18270   0.725   4.200   1.186  0.4175  0.2118  0.4035
 3450SOL    HW118271   0.656   4.270   1.170 -0.3346 -0.4710  0.5939
 3450SOL    HW218272   0.792   4.232   1.253  0.2224  0.8348  0.2960
 3451SOL     OW18273   9.085   5.981   0.427  0.5493  0.2844 -0.4060
 3451SOL    HW118274   9.138   5.930   0.359  1.6067  1.1189 -0.2225
 3451SOL    HW218275   9.147   6.034   0.484 -0.5035  1.3523 -0.2421
 3452SOL     OW18276   1.328   4.988   1.705  0.7421  0.6885  0.6165
 3452SOL    HW118277   1.277   5.032   1.780 -0.6333  0.3415 -0.1086
 3452SOL    HW218278   1.273   4.988   1.622  1.6618 -0.3052 -0.0123
 3453SOL     OW18279   1.979   9.751   0.960  0.0810  0.4857  0.6696
 3453SOL    HW118280   1.991   9.652   0.964 -2.0517  0.1546 -0.1883
 3453SOL    HW218281   1.952   9.777   0.867  2.3325  2.1032  0.4248
 3454SOL     OW18282   1.734   6.250   1.118 -0.0355  0.2719  0.6467
 3454SOL    HW118283   1.683   6.165   1.127 -0.2849  0.3175 -0.3369
 3454SOL    HW218284   1.692   6.307   1.047  0.3474  1.0570  1.0411
 3456SOL     OW18285   2.768   2.778   2.038 -0.2055 -0.0634 -0.1547
 3456SOL    HW118286   2.822   2.856   2.067 -1.1290  0.3114  0.6011
 3456SOL    HW218287   2.708   2.749   2.113  0.2195 -1.5785 -0.3765
 3457SOL     OW18288   9.828   5.727   1.475 -0.4777 -0.0657 -0.2287
 3457SOL    HW118289   9.734   5.703   1.498 -0.7768  0.8341 -0.4905
 3457SOL    HW218290   9.829   5.784   1.393  0.2809  0.1207 -0.0966
 3459SOL     OW18291   3.723   2.603   2.253 -0.2710 -0.6140 -0.1316
 3459SOL    HW118292   3.804   2.611   2.195 -0.4474  0.7752 -0.2062
 3459SOL    HW218293   3.744   2.638   2.344 -0.5245 -1.1055  0.1148
 3460SOL     OW18294   1.333   6.027   1.140 -0.4361  0.3583  0.0539
 3460SOL    HW118295   1.310   6.086   1.217 -0.3032  0.4731  0.0068
 3460SOL    HW218296   1.252   6.012   1.083 -0.6432 -0.1133  0.4765
 3461SOL     OW18297   3.185   2.237   1.271 -0.3082 -0.2961 -0.3452
 3461SOL    HW118298   3.115   2.306   1.251  0.3660  1.1712  2.1860
 3461SOL    HW218299   3.155   2.181   1.348  0.6513 -0.6175 -0.1988
 3462SOL     OW18300   0.431   8.094   2.116 -0.1014 -0.3538  0.0878
 3462SOL    HW118301   0.477   8.179   2.140  0.0459 -0.6077  0.7319
 3462SOL    HW218302   0.358   8.112   2.050  1.1125  0.0117 -1.1792
 3463SOL     OW18303   4.362   4.450   1.544 -0.0929  0.5754  0.4430
 3463SOL    HW118304   4.437   4.515   1.533  0.2829  0.0731 -0.0229
 3463SOL    HW218305   4.275   4.494   1.521  0.3338  0.4579 -1.5009
 3464SOL     OW18306   3.515   3.944   1.419 -0.1871  0.0069 -0.6633
 3464SOL    HW118307   3.525   3.911   1.325  0.9268  1.9093 -1.2469
 3464SOL    HW218308   3.430   3.997   1.427 -0.6571 -0.7788 -0.3958
 3465SOL     OW18309   0.049   5.815   0.748 -0.6197  0.6865 -0.4281
 3465SOL    HW118310   0.058   5.892   0.684  0.0971 -0.0255 -1.1976
 3465SOL    HW218311   0.119   5.746   0.727 -0.7313  0.2010  0.7854
 3466SOL     OW18312   0.645   0.552   1.662  0.1105 -0.5794  0.1226
 3466SOL    HW118313   0.722   0.574   1.721 -2.0622 -0.1426  2.8943
 3466SOL    HW218314   0.672   0.563   1.566  2.4870  2.9786  1.1088
 3467SOL     OW18315   9.128   2.326   0.930 -0.1683 -0.3398 -0.2812
 3467SOL    HW118316   9.179   2.242   0.909 -2.0504 -1.7555  0.5961
 3467SOL    HW218317   9.082   2.359   0.848 -1.6228 -1.7509 -0.0815
 3468SOL     OW18318   0.419   6.596   1.287 -0.1981 -0.4822 -0.0787
 3468SOL    HW118319   0.347   6.576   1.221  0.4145  1.1819 -1.2842
 3468SOL    HW218320   0.498   6.538   1.267 -1.0289 -2.0240  0.9994
 3469SOL     OW18321   4.478   3.499   1.963  0.2291  0.4182 -0.1535
 3469SOL    HW118322   4.550   3.524   2.028 -0.9801 -0.6241  1.6157
 3469SOL    HW218323   4.444   3.408   1.985 -0.1393 -0.0059 -2.3380
 3470SOL     OW18324   3.412   0.995   2.009  0.1992 -0.2993  0.0212
 3470SOL    HW118325   3.449   1.019   2.098 -0.9420  1.1282  0.1102
 3470SOL    HW218326   3.488   0.975   1.946  1.0153 -0.7005  1.1138
 3471SOL     OW18327   2.707   1.485   1.672 -0.2900 -0.3039  0.4956
 3471SOL    HW118328   2.723   1.526   1.762  0.2871 -1.3380  0.8772
 3471SOL    HW218329   2.609   1.481   1.654 -0.4112 -0.2142  1.1324
 3472SOL     OW18330  -0.068  -0.089   0.694 -0.1976 -0.0902  0.4288
 3472SOL    HW118331  -0.075  -0.037   0.779 -0.8559 -1.3206  1.1412
 3472SOL    HW218332   0.019  -0.068   0.649 -0.3906  1.5106  0.7584
 3473SOL     OW18333   0.105   7.163   1.400  0.0237  0.0235  0.0885
 3473SOL    HW118334   0.031   7.206   1.349  0.7645  0.5303 -0.5721
 3473SOL    HW218335   0.130   7.077   1.356 -0.6304 -0.4865  0.7062
 3475SOL     OW18336   3.712   2.299   2.281 -0.1779 -0.2273  0.2275
 3475SOL    HW118337   3.673   2.219   2.235 -1.2142  0.4613 -0.1020
 3475SOL    HW218338   3.709   2.378   2.219  0.2363  0.2322  0.7845
 3476SOL     OW18339   4.659   4.148   2.038  0.2193 -0.2760  0.1838
 3476SOL    HW118340   4.580   4.208   2.027 -0.0256 -0.5060  0.6523
 3476SOL    HW218341   4.638   4.058   1.998  0.0329 -0.5117  0.7984
 3477SOL     OW18342   8.737   7.183   1.640 -0.3966  0.0148  0.4075
 3477SOL    HW118343   8.694   7.269   1.611  0.1921  0.6539  1.3993
 3477SOL    HW218344   8.671   7.129   1.692 -0.8487 -0.2581 -0.4337
 3478SOL     OW18345   0.527   7.742   1.581  0.4818  0.2400 -0.4675
 3478SOL    HW118346   0.516   7.839   1.560  2.0104  0.7761  1.0829
 3478SOL    HW218347   0.621   7.713   1.561  0.3787 -0.6071  0.2202
 3479SOL     OW18348   9.472   7.954   2.054  0.1538  0.0528  0.5945
 3479SOL    HW118349   9.413   7.933   1.976 -0.0518  1.0016  0.4879
 3479SOL    HW218350   9.491   8.052   2.056  0.5073 -0.0283  1.4984
 3481SOL     OW18351   0.119   0.960   0.867 -0.2179  0.0563  0.0405
 3481SOL    HW118352   0.101   0.887   0.802 -1.1661  1.9095 -1.8214
 3481SOL    HW218353   0.199   0.936   0.923  0.4351 -1.6879 -1.5974
 3484SOL     OW18354   1.993   4.269   0.701  0.2846  0.0127 -0.4001
 3484SOL    HW118355   1.929   4.255   0.625 -0.6619 -0.0996  0.4016
 3484SOL    HW218356   2.006   4.367   0.716  0.2187  0.0377 -0.5045
 3486SOL     OW18357   2.645   9.117   1.454  0.5894  0.2013 -0.1110
 3486SOL    HW118358   2.590   9.186   1.406  1.0593  0.4757 -0.2542
 3486SOL    HW218359   2.585   9.042   1.483  0.4465 -0.3897 -1.8946
 3487SOL     OW18360   8.470   0.140   1.994 -0.3129  0.0740 -0.6855
 3487SOL    HW118361   8.408   0.156   1.917 -0.6606 -0.1538 -0.4546
 3487SOL    HW218362   8.420   0.151   2.080 -0.2494 -0.9396 -0.5064
 3488SOL     OW18363   8.837   0.520   2.227  0.4259  0.2828 -0.4938
 3488SOL    HW118364   8.930   0.526   2.264  1.4502  0.1127 -2.9034
 3488SOL    HW218365   8.779   0.467   2.289  1.0919  3.0103  2.5802
 3489SOL     OW18366   2.489   8.893   1.529 -0.0684  0.3611 -0.0484
 3489SOL    HW118367   2.553   8.835   1.578  0.3222  0.5707 -0.3118
 3489SOL    HW218368   2.398   8.851   1.531  0.2008 -0.2325 -0.1997
 3490SOL     OW18369   1.413   1.398   2.253  0.4368  0.3812 -0.1350
 3490SOL    HW118370   1.341   1.445   2.305  0.8027  1.2930 -0.4491
 3490SOL    HW218371   1.502   1.422   2.291  0.5289 -1.8646  1.1680
 3491SOL     OW18372   1.861   4.158   0.450  0.1685  0.2072 -0.5261
 3491SOL    HW118373   1.782   4.105   0.482  1.3448 -0.5817  1.1003
 3491SOL    HW218374   1.841   4.194   0.358 -1.6175 -0.9671 -0.6313
 3493SOL     OW18375   4.106   3.854   1.373 -0.2450 -0.3817  0.5544
 3493SOL    HW118376   4.006   3.860   1.368 -0.2875 -0.6876  1.0456
 3493SOL    HW218377   4.144   3.947   1.377 -0.3810 -0.1809 -1.8076
 3494SOL     OW18378   4.414   3.639   1.104 -0.5947 -0.2075 -0.2070
 3494SOL    HW118379   4.503   3.599   1.082 -0.4986 -1.1004  1.7159
 3494SOL    HW218380   4.407   3.653   1.203 -2.0525  1.1781 -0.4795
 3496SOL     OW18381   3.607   8.885   1.388 -0.0166 -0.1800  0.1219
 3496SOL    HW118382   3.616   8.958   1.322 -0.5989  0.9709  1.2981
 3496SOL    HW218383   3.592   8.798   1.341  1.1037  0.3828 -1.2880
 3497SOL     OW18384   2.532   0.520   1.761  0.2076 -0.3770  0.0971
 3497SOL    HW118385   2.537   0.420   1.761  0.4854 -0.3626  0.9018
 3497SOL    HW218386   2.596   0.557   1.828 -0.3863  0.3219  0.2873
 3499SOL     OW18387   1.940   1.060   0.888  0.4971  0.1974 -0.2643
 3499SOL    HW118388   1.936   1.159   0.875 -1.2564  0.4571  1.9149
 3499SOL    HW218389   2.020   1.038   0.945  0.1441  0.5218  0.3703
 3500SOL     OW18390   1.444   2.626   1.272 -0.1305 -0.3772  0.0006
 3500SOL    HW118391   1.471   2.563   1.200 -0.5674 -1.7140  0.9872
 3500SOL    HW218392   1.471   2.719   1.247  2.8069 -1.2821 -0.3244
 3501SOL     OW18393   4.111   3.670   1.170 -0.3658 -0.4102 -0.0658
 3501SOL    HW118394   4.122   3.723   1.255  0.1483 -2.5039  1.1960
 3501SOL    HW218395   4.200   3.658   1.127 -0.7086  1.1940 -1.2641
 3503SOL     OW18396   1.351   3.787   0.703  0.5406 -0.3971  0.2860
 3503SOL    HW118397   1.362   3.855   0.776  0.4478  0.4316 -0.4610
 3503SOL    HW218398   1.255   3.765   0.692  0.1749  1.8956 -1.7149
 3505SOL     OW18399   3.469   2.442   1.779 -0.0273  0.0055  0.4811
 3505SOL    HW118400   3.390   2.394   1.816 -0.9020  1.7386  0.8699
 3505SOL    HW218401   3.468   2.537   1.808  0.1936  1.0056 -2.5711
 3506SOL     OW18402   2.046   5.566   1.393  0.3386 -0.4485 -0.1421
 3506SOL    HW118403   1.988   5.534   1.318 -0.8674 -0.0897  0.6281
 3506SOL    HW218404   2.041   5.501   1.469  2.0699 -1.1506 -0.6007
 3507SOL     OW18405   9.157   9.342   1.126  0.2506  0.2244  0.3926
 3507SOL    HW118406   9.113   9.253   1.134  0.4516  0.2005  1.2839
 3507SOL    HW218407   9.144   9.378   1.034 -0.2396 -0.5107  0.1750
 3508SOL     OW18408   9.299   9.725   2.168 -0.6379 -0.3654  0.4416
 3508SOL    HW118409   9.369   9.786   2.132 -1.2496  1.5226  2.3513
 3508SOL    HW218410   9.341   9.640   2.200  0.4011 -0.3743 -0.8972
 3509SOL     OW18411   2.224   9.559   1.497 -0.6924 -0.2156 -0.3533
 3509SOL    HW118412   2.149   9.617   1.465 -1.1027 -0.2552  0.5231
 3509SOL    HW218413   2.269   9.603   1.575 -0.2498 -0.5172 -0.4399
 3511SOL     OW18414   3.774   1.660   1.147 -0.3074  0.5688 -0.0013
 3511SOL    HW118415   3.842   1.699   1.210  2.3310 -0.6535 -2.0092
 3511SOL    HW218416   3.757   1.565   1.172  2.3608 -0.5843 -2.3256
 3512SOL     OW18417   1.198   0.819   1.208  0.0539  0.7255 -0.2333
 3512SOL    HW118418   1.103   0.818   1.240 -0.5813 -0.2423 -2.0389
 3512SOL    HW218419   1.207   0.887   1.134  0.7826  0.8421 -0.0386
 3513SOL     OW18420   9.422   4.942   1.081  0.1168 -0.0031  0.5621
 3513SOL    HW118421   9.352   4.876   1.109 -0.8917  0.7303 -0.2019
 3513SOL    HW218422   9.510   4.896   1.077 -0.4552 -1.1475  0.6909
 3514SOL     OW18423   2.835   4.479   0.831  0.3836 -0.4312 -0.1406
 3514SOL    HW118424   2.791   4.389   0.822  1.8297 -1.1581 -0.0755
 3514SOL    HW218425   2.933   4.470   0.814  1.0815  0.5628  3.0791
 3515SOL     OW18426   3.734   4.500   2.120 -0.5057  0.0957 -0.4783
 3515SOL    HW118427   3.782   4.427   2.071 -2.6256 -1.1453 -0.7622
 3515SOL    HW218428   3.636   4.494   2.102 -1.2613  0.1513  3.1801
 3516SOL     OW18429   9.643   8.701   0.989  0.4743  0.0907  0.7314
 3516SOL    HW118430   9.606   8.702   0.896  2.7418 -1.0728 -0.2126
 3516SOL    HW218431   9.610   8.619   1.036  1.2362 -0.5612  0.1409
 3517SOL     OW18432   3.410   8.776   2.219 -0.4594  0.7475 -0.3500
 3517SOL    HW118433   3.490   8.802   2.164  1.0520 -0.3746  1.2703
 3517SOL    HW218434   3.429   8.691   2.267 -2.3622  0.8836  0.6763
 3518SOL     OW18435   1.077   4.241   2.324  0.7789  0.1136 -0.5390
 3518SOL    HW118436   1.050   4.333   2.352  0.1906 -0.3038  0.2747
 3518SOL    HW218437   1.107   4.188   2.404 -0.3804 -0.9021 -0.7606
 3521SOL     OW18438   7.576   0.566   1.096  0.5087 -0.0760  0.1945
 3521SOL    HW118439   7.582   0.663   1.070  1.3828 -0.2663 -0.3264
 3521SOL    HW218440   7.662   0.539   1.140  0.2189 -0.5905  0.4419
 3522SOL     OW18441   8.313  -0.020   0.943 -0.6385 -0.0377  0.7896
 3522SOL    HW118442   8.260   0.007   0.863  0.3138 -0.2176  0.0849
 3522SOL    HW218443   8.253  -0.024   1.023 -1.7244 -0.4743 -0.0336
 3524SOL     OW18444   0.659   4.492   1.595  0.2280 -0.3488  0.5644
 3524SOL    HW118445   0.661   4.393   1.587  0.8733 -0.2513 -0.5545
 3524SOL    HW218446   0.750   4.530   1.580  0.0313  0.4002  1.1922
 3525SOL     OW18447   3.814   3.617   1.218  0.0556  0.2493  0.1537
 3525SOL    HW118448   3.777   3.609   1.125 -1.1778  0.9738  0.5879
 3525SOL    HW218449   3.911   3.640   1.212  0.9819 -3.5132 -1.0119
 3526SOL     OW18450   3.434   8.300   0.966 -0.0939 -0.4466  0.1754
 3526SOL    HW118451   3.419   8.273   0.871  0.9388 -1.0440  0.1737
 3526SOL    HW218452   3.347   8.328   1.007 -0.5337 -0.1266 -0.9587
 3527SOL     OW18453   1.308   7.243   2.108 -0.2551  0.0727  0.0018
 3527SOL    HW118454   1.295   7.159   2.056 -1.5617  0.1179  0.2354
 3527SOL    HW218455   1.398   7.282   2.087  0.3562 -1.3703 -0.1075
 3528SOL     OW18456   8.832   8.433   1.688  0.0254  0.4587 -0.0769
 3528SOL    HW118457   8.802   8.406   1.780  2.2886 -1.3492  0.1739
 3528SOL    HW218458   8.755   8.428   1.625 -0.8998 -1.1948  1.1411
 3529SOL     OW18459   1.275  -0.053   1.876 -1.0160 -0.0691  0.0369
 3529SOL    HW118460   1.317  -0.078   1.963 -0.0272 -0.2181 -0.4739
 3529SOL    HW218461   1.282   0.045   1.863  0.2855 -0.2473 -0.6172
 3530SOL     OW18462   1.169   8.208   0.495  0.3467  0.0435 -0.3322
 3530SOL    HW118463   1.142   8.273   0.424  1.0197  1.7941  0.9905
 3530SOL    HW218464   1.265   8.181   0.481  0.1925 -0.3637 -0.6330
 3531SOL     OW18465   1.068   2.481   1.099 -0.6989 -0.3189  0.0007
 3531SOL    HW118466   0.971   2.456   1.103 -1.0337  0.3232 -2.8767
 3531SOL    HW218467   1.077   2.571   1.057  1.1923 -0.7157 -0.4936
 3532SOL     OW18468   4.588   2.272   0.694 -0.2324 -0.4413  0.2993
 3532SOL    HW118469   4.540   2.241   0.776 -0.9698  1.6321  0.6680
 3532SOL    HW218470   4.539   2.241   0.613 -0.1370 -1.4897  0.6245
 3533SOL     OW18471   1.776   3.579   0.475  0.0275  0.0252  0.5398
 3533SOL    HW118472   1.792   3.659   0.532 -0.7535 -0.0914  0.9289
 3533SOL    HW218473   1.732   3.606   0.390 -1.3275 -0.1243  1.1827
 3534SOL     OW18474   7.723   0.507   2.051  0.0883  0.1123 -0.2162
 3534SOL    HW118475   7.680   0.463   2.130  0.8586 -1.3421 -0.5946
 3534SOL    HW218476   7.671   0.485   1.968  0.5909 -0.2480 -0.4358
 3535SOL     OW18477   9.473   1.583   0.857  0.1532 -0.0974 -0.0964
 3535SOL    HW118478   9.511   1.595   0.949 -0.2320 -1.6731  0.2864
 3535SOL    HW218479   9.546   1.593   0.790  1.1632 -2.4006  0.5963
 3536SOL     OW18480   2.642   5.611   2.338  0.3938 -0.9167 -0.3016
 3536SOL    HW118481   2.690   5.695   2.361 -1.5787  0.0309  0.4713
 3536SOL    HW218482   2.577   5.628   2.264 -0.4293 -1.6198  0.2452
 3537SOL     OW18483   4.345   0.978   1.886 -0.0208  0.5814  0.2929
 3537SOL    HW118484   4.352   1.070   1.848 -1.4604  0.3292 -0.6747
 3537SOL    HW218485   4.256   0.967   1.930  0.3743 -0.1579  0.9136
 3540SOL     OW18486   2.663   9.031   0.906  0.5652 -0.5302  0.1428
 3540SOL    HW118487   2.741   9.073   0.953  1.2984 -1.5165 -0.1700
 3540SOL    HW218488   2.630   9.092   0.835 -0.3822  0.8586  1.7440
 3541SOL     OW18489   1.491   4.520   1.399 -0.3841 -0.2147 -0.2015
 3541SOL    HW118490   1.446   4.602   1.364  1.5530  0.3912 -1.3956
 3541SOL    HW218491   1.590   4.534   1.399 -0.1438 -1.6549  1.9505
 3542SOL     OW18492   8.663   9.073   0.462  0.0121  0.0210 -0.6531
 3542SOL    HW118493   8.626   8.986   0.493  0.6355 -0.0377 -0.0701
 3542SOL    HW218494   8.600   9.114   0.396 -0.3831 -0.7688 -0.7739
 3543SOL     OW18495   9.880   5.609   0.678  0.5834  0.0690 -0.2827
 3543SOL    HW118496   9.910   5.538   0.742  1.5172  0.6646 -0.0486
 3543SOL    HW218497   9.939   5.689   0.687 -0.7451  1.0590 -0.2180
 3545SOL     OW18498   2.930   0.825   2.011  0.0730 -0.1971 -0.0612
 3545SOL    HW118499   2.949   0.769   2.091  0.6502  1.5136  1.0089
 3545SOL    HW218500   2.953   0.773   1.928  0.8956 -1.4294  0.9273
 3546SOL     OW18501   9.039   5.194   1.913  0.3969  0.0464 -0.2147
 3546SOL    HW118502   9.029   5.254   1.833 -0.0844 -0.6261 -0.6594
 3546SOL    HW218503   8.956   5.198   1.968  0.5760  0.1999  0.0467
 3547SOL     OW18504   2.003   0.547   0.438 -0.1191 -0.7179  0.3915
 3547SOL    HW118505   1.997   0.611   0.514 -1.5563 -0.3802  0.0049
 3547SOL    HW218506   2.093   0.554   0.395 -1.0115  2.6839 -1.0688
 3548SOL     OW18507   1.946   1.239   2.261 -0.3479  0.3525  0.0006
 3548SOL    HW118508   2.001   1.259   2.181  0.5459 -0.5891  0.3685
 3548SOL    HW218509   2.006   1.213   2.337 -1.2822 -0.4229  0.4821
 3549SOL     OW18510   3.785   0.378   2.149  0.3841 -0.3423  0.6891
 3549SOL    HW118511   3.761   0.313   2.222 -0.1679  0.5651  1.3191
 3549SOL    HW218512   3.732   0.462   2.161 -0.6326 -0.6451 -1.4688
 3550SOL     OW18513   0.729   4.282   0.651 -0.3029 -0.3874  0.3221
 3550SOL    HW118514   0.659   4.238   0.595  0.7851 -1.8964  0.1032
 3550SOL    HW218515   0.694   4.297   0.743 -1.4374  0.3207 -0.2067
 3551SOL     OW18516   0.505   8.960   1.226 -0.0156 -0.2162 -0.4159
 3551SOL    HW118517   0.567   8.938   1.150 -0.5402 -1.9667 -0.3534
 3551SOL    HW218518   0.433   9.021   1.194  0.5061  0.0973 -1.0059
 3553SOL     OW18519   0.706   8.075   1.290 -0.1743  0.3931  0.1970
 3553SOL    HW118520   0.662   8.080   1.200 -0.4293  0.0499  0.2980
 3553SOL    HW218521   0.708   8.165   1.331  0.2022  0.6037 -0.2764
 3554SOL     OW18522   9.479   6.739   1.592 -0.4033 -0.2205 -0.1760
 3554SOL    HW118523   9.446   6.823   1.634 -0.4518 -0.2169 -0.2200
 3554SOL    HW218524   9.480   6.665   1.659 -0.5176 -0.2244 -0.1794
 3555SOL     OW18525   8.200   1.664   1.322  0.1771 -0.1596 -0.0129
 3555SOL    HW118526   8.288   1.699   1.288  0.1273  0.3254  0.3500
 3555SOL    HW218527   8.158   1.606   1.252  0.3941  0.2790 -0.5132
 3556SOL     OW18528   3.421   3.541   2.187 -0.1649  0.1596  0.7104
 3556SOL    HW118529   3.382   3.619   2.139 -1.6683 -0.3477  1.0995
 3556SOL    HW218530   3.414   3.555   2.286 -0.8483 -0.6721  0.7815
 3557SOL     OW18531   1.734   3.398   2.031  0.0220  0.2344 -0.4353
 3557SOL    HW118532   1.703   3.353   2.115  0.8820 -0.9665 -0.7508
 3557SOL    HW218533   1.665   3.464   2.001  0.5488  2.0916  2.2641
 3558SOL     OW18534   8.673   9.753   0.486  0.0095 -0.1847 -0.1286
 3558SOL    HW118535   8.772   9.758   0.476 -0.1021 -0.5199 -1.5797
 3558SOL    HW218536   8.643   9.659   0.472 -0.5500 -0.0197 -0.0429
 3559SOL     OW18537   0.668   6.265   1.547 -0.1421 -0.2243  0.2645
 3559SOL    HW118538   0.711   6.202   1.483  1.1128  0.1099  0.7637
 3559SOL    HW218539   0.736   6.298   1.612 -1.0588  0.6747  0.7821
 3560SOL     OW18540   8.733   8.651   0.485 -0.2852 -0.3420 -0.2763
 3560SOL    HW118541   8.782   8.676   0.402  0.0281 -0.2297 -0.0606
 3560SOL    HW218542   8.671   8.726   0.511  0.4570  0.1089  0.2210
 3561SOL     OW18543   0.378   7.718   0.841 -0.0735  0.2201  0.1286
 3561SOL    HW118544   0.298   7.661   0.860  0.1049 -0.1396 -0.1980
 3561SOL    HW218545   0.447   7.664   0.793  0.0204  0.7551 -0.3511
 3562SOL     OW18546   2.154   8.898   2.301 -0.2082  0.1461  0.5134
 3562SOL    HW118547   2.254   8.901   2.309  0.0427 -0.2681 -1.9534
 3562SOL    HW218548   2.115   8.985   2.333  1.1397  1.2207 -0.6833
 3563SOL     OW18549   0.674   8.013   1.985  0.1797 -0.6373 -0.2077
 3563SOL    HW118550   0.591   8.052   2.026  0.9297  0.9903 -0.1968
 3563SOL    HW218551   0.665   7.914   1.980 -1.7961 -0.4726 -0.2694
 3564SOL     OW18552   9.908   8.456   0.516  0.3647 -0.2801  1.0533
 3564SOL    HW118553   9.858   8.418   0.593  2.1332 -3.5986  0.6390
 3564SOL    HW218554   9.986   8.508   0.549 -0.4860  0.7069  1.5427
 3566SOL     OW18555   3.837   3.877   1.359  0.8037 -0.5801 -0.1583
 3566SOL    HW118556   3.775   3.948   1.325 -0.1703 -0.1010  2.5320
 3566SOL    HW218557   3.788   3.790   1.364  1.2850 -0.9132 -1.0588
 3567SOL     OW18558   3.179   4.060   2.233 -0.3590 -0.1224  0.1023
 3567SOL    HW118559   3.259   4.104   2.274  0.7648 -2.5205  0.5619
 3567SOL    HW218560   3.174   4.083   2.136 -0.0126  1.3192  0.4254
 3568SOL     OW18561   2.768   7.955   2.232 -0.2312  0.4782 -0.3997
 3568SOL    HW118562   2.748   7.974   2.328 -1.6971 -0.7188 -0.4349
 3568SOL    HW218563   2.797   8.038   2.186  0.3990  1.0746  1.0650
 3569SOL     OW18564   9.185   2.886   1.630  0.1156 -0.1205 -0.1723
 3569SOL    HW118565   9.265   2.833   1.604  0.7377  0.8656 -0.2855
 3569SOL    HW218566   9.180   2.969   1.575 -0.9027 -0.1011 -0.0660
 3571SOL     OW18567   9.407   3.804   1.446  0.0930 -0.1267 -0.3835
 3571SOL    HW118568   9.450   3.761   1.525 -0.2627  0.8563  0.3642
 3571SOL    HW218569   9.355   3.736   1.394  0.4693 -0.8072  0.1402
 3572SOL     OW18570   0.455   5.971   0.498 -0.0771 -0.1890 -0.1603
 3572SOL    HW118571   0.406   6.058   0.504 -1.2318 -0.7961 -0.6367
 3572SOL    HW218572   0.508   5.968   0.413  0.9679  0.5612  0.4636
 3574SOL     OW18573   4.754   2.798   0.559 -0.3314  0.0044 -0.0619
 3574SOL    HW118574   4.716   2.784   0.650 -2.0875  0.0923 -0.7566
 3574SOL    HW218575   4.825   2.730   0.541  0.6013  0.5113  1.6679
 3576SOL     OW18576   1.528  -0.002   0.452 -0.5204 -0.0822 -0.5920
 3576SOL    HW118577   1.569  -0.085   0.413 -1.4902 -1.1148  0.5330
 3576SOL    HW218578   1.465  -0.028   0.525 -0.4970  1.6910  0.0678
 3577SOL     OW18579   2.776   2.706   1.066  0.0991  0.5785 -0.0448
 3577SOL    HW118580   2.868   2.741   1.083  0.4765 -0.3673 -0.1211
 3577SOL    HW218581   2.778   2.607   1.063 -1.2439  0.4686  1.8625
 3578SOL     OW18582   3.739   4.892   0.400 -0.1943 -0.0417 -0.3302
 3578SOL    HW118583   3.642   4.886   0.423 -0.7483  1.1695 -2.3072
 3578SOL    HW218584   3.758   4.838   0.319  1.0404 -1.2405  0.7302
 3579SOL     OW18585   9.104   0.509   2.318 -0.0271  0.0650  0.0682
 3579SOL    HW118586   9.120   0.443   2.245  0.0105 -2.3832  2.2011
 3579SOL    HW218587   9.168   0.492   2.393 -2.1393  0.3583  2.0255
 3581SOL     OW18588   2.604   5.692   1.822  0.1766  0.2127  0.1166
 3581SOL    HW118589   2.534   5.637   1.776  0.0584  0.6350 -0.2210
 3581SOL    HW218590   2.683   5.635   1.842  0.2280  0.0159 -0.6122
 3583SOL     OW18591   3.666   9.128   2.245 -0.1231 -0.1286  0.0811
 3583SOL    HW118592   3.570   9.134   2.217 -0.0383 -0.1301 -0.2100
 3583SOL    HW218593   3.674   9.068   2.325 -0.4808  0.5740  0.6505
 3585SOL     OW18594   0.648   0.478   1.021 -0.2337  0.4231 -0.9692
 3585SOL    HW118595   0.585   0.554   1.003  0.4114  0.9350 -1.0800
 3585SOL    HW218596   0.742   0.512   1.023 -0.0246 -0.1704  0.1377
 3586SOL     OW18597   2.391   7.915   1.073 -0.1602 -0.5302 -0.0389
 3586SOL    HW118598   2.312   7.967   1.106  1.4365  1.9254 -0.0165
 3586SOL    HW218599   2.379   7.896   0.975 -0.4369  0.4454 -0.1971
 3587SOL     OW18600   9.654   0.469   0.582  0.8008  0.3884  0.1999
 3587SOL    HW118601   9.686   0.399   0.518  1.3415  0.5396  0.3112
 3587SOL    HW218602   9.573   0.435   0.630 -0.1422  0.5874 -1.1754
 3590SOL     OW18603   8.203   0.539   2.241  0.0232  0.4442 -0.2001
 3590SOL    HW118604   8.123   0.484   2.216 -1.3218  2.7798 -1.1837
 3590SOL    HW218605   8.187   0.584   2.328  0.5065  0.5251 -0.1490
 3591SOL     OW18606   0.733   3.027   1.408  0.3215 -0.0949  0.2590
 3591SOL    HW118607   0.704   2.943   1.453 -0.7047  0.6308  0.9511
 3591SOL    HW218608   0.745   3.099   1.475 -0.4879  0.7920 -0.5286
 3592SOL     OW18609   1.741   2.242   1.791 -0.6902  0.2209  0.7647
 3592SOL    HW118610   1.646   2.237   1.820 -1.1909 -0.5508 -0.9699
 3592SOL    HW218611   1.750   2.307   1.716  0.1557  0.3261  0.9487
 3594SOL     OW18612   3.369   3.969   1.069 -0.3603  0.1213 -0.0113
 3594SOL    HW118613   3.450   3.928   1.111  0.2446  0.1762 -1.1025
 3594SOL    HW218614   3.304   3.897   1.045 -1.0357  0.1559  1.6908
 3595SOL     OW18615  -0.040   1.363   0.447 -0.1298 -0.5566  0.1445
 3595SOL    HW118616  -0.135   1.339   0.426 -0.0806  0.3128 -1.1610
 3595SOL    HW218617   0.019   1.284   0.428 -0.4221 -0.6289 -0.5000
 3596SOL     OW18618   9.026   7.311   1.143 -1.2273 -0.5144  0.4529
 3596SOL    HW118619   8.970   7.229   1.151 -0.3298 -1.1234  0.5429
 3596SOL    HW218620   8.986   7.373   1.076 -2.0417 -0.9116  0.5684
 3597SOL     OW18621   2.433   5.320   2.039  0.0180  0.1796  0.5302
 3597SOL    HW118622   2.397   5.401   2.086 -0.7736 -0.3833  0.9041
 3597SOL    HW218623   2.450   5.248   2.106 -3.6920 -1.5967 -0.2842
 3598SOL     OW18624   1.113   6.929   0.671  0.2055 -0.1062  0.0408
 3598SOL    HW118625   1.013   6.922   0.678  0.2617  0.6156  2.0339
 3598SOL    HW218626   1.144   7.007   0.726  2.0130 -1.3070  0.7441
 3599SOL     OW18627   0.129   3.866   2.111 -0.3758 -0.2963 -0.4042
 3599SOL    HW118628   0.176   3.792   2.062  0.1676 -1.2289  1.4977
 3599SOL    HW218629   0.095   3.833   2.199  2.4122  2.4119  1.8223
 3600SOL     OW18630   9.163   4.026   2.338 -0.4180  0.4614 -0.3011
 3600SOL    HW118631   9.148   4.109   2.393 -0.8668 -0.1818  0.5656
 3600SOL    HW218632   9.257   3.995   2.351 -0.4819  0.3892  0.0064
 3601SOL     OW18633   2.260   1.094   2.269  0.0514 -0.2227 -0.2362
 3601SOL    HW118634   2.209   1.069   2.187 -0.8086 -0.8245  0.4677
 3601SOL    HW218635   2.207   1.068   2.350  0.3409  1.4515  0.5169
 3602SOL     OW18636   9.728   6.394   1.426 -0.1321  0.0093 -0.2782
 3602SOL    HW118637   9.740   6.492   1.408  1.5609  0.1722  1.6004
 3602SOL    HW218638   9.755   6.342   1.345  0.6460  1.0048 -0.6691
 3604SOL     OW18639   9.922   0.472   0.329 -0.3260 -0.9572 -0.4996
 3604SOL    HW118640   9.996   0.467   0.396 -0.0975  2.7006 -0.4066
 3604SOL    HW218641   9.849   0.409   0.357  0.3009 -0.4592  2.4880
 3606SOL     OW18642   8.672   3.423   1.502 -0.6163  0.5059 -0.4776
 3606SOL    HW118643   8.609   3.345   1.498 -1.6314  1.1876  1.3712
 3606SOL    HW218644   8.686   3.450   1.598  2.8011  0.1519 -0.8003
 3607SOL     OW18645   2.272   6.322   0.647 -0.3788 -0.1266  0.1652
 3607SOL    HW118646   2.232   6.331   0.738 -0.2341  1.2893  0.1033
 3607SOL    HW218647   2.198   6.311   0.580 -0.6838  2.2468  0.0792
 3608SOL     OW18648   8.371   1.036   0.639  0.4674 -0.2237  0.1660
 3608SOL    HW118649   8.458   1.061   0.681  1.1219  1.4839 -2.1011
 3608SOL    HW218650   8.377   0.943   0.602  1.4386  0.0190 -0.2931
 3611SOL     OW18651   1.841   8.941   0.483 -0.1221  0.1526  0.5268
 3611SOL    HW118652   1.855   8.921   0.580 -0.5679  0.7736  0.7248
 3611SOL    HW218653   1.787   8.868   0.441  2.4646 -1.5630  0.0699
 3613SOL     OW18654   9.274   7.518   1.714 -0.3998 -0.0685  0.0539
 3613SOL    HW118655   9.252   7.495   1.809 -1.5152 -0.5108 -0.3066
 3613SOL    HW218656   9.255   7.614   1.697  1.7503  0.5296  0.8310
 3614SOL     OW18657   0.660   1.166   2.310  0.8535 -0.6580  0.3454
 3614SOL    HW118658   0.733   1.157   2.242 -0.4061 -1.4294 -0.9215
 3614SOL    HW218659   0.605   1.083   2.311 -1.0677  0.5653  0.0387
 3615SOL     OW18660   8.986   2.828   0.773  0.4106 -0.4296 -0.0006
 3615SOL    HW118661   8.888   2.817   0.758  0.7870 -3.8974 -0.2634
 3615SOL    HW218662   9.036   2.779   0.702  2.3843  1.5511 -0.0375
 3616SOL     OW18663   1.680   2.577   1.436 -0.3411  0.1623  0.0332
 3616SOL    HW118664   1.688   2.534   1.526 -1.6333  1.6508  0.8940
 3616SOL    HW218665   1.600   2.541   1.388  0.5556 -0.8974 -0.6829
 3617SOL     OW18666   9.743   4.749   0.573 -0.8580 -0.5205  0.3360
 3617SOL    HW118667   9.815   4.692   0.612 -1.2617 -1.9197 -0.9208
 3617SOL    HW218668   9.684   4.783   0.647  0.4914 -0.1734  1.2707
 3618SOL     OW18669   0.615   4.034   2.005  0.1689 -0.1482  0.4898
 3618SOL    HW118670   0.607   4.099   2.080  0.3434  0.9241 -0.4045
 3618SOL    HW218671   0.547   4.056   1.934 -0.9606 -2.0227  0.9691
 3619SOL     OW18672  -0.011   6.551   1.479 -0.1012  0.4487  0.6695
 3619SOL    HW118673  -0.087   6.610   1.453  0.3314  0.3982 -0.7351
 3619SOL    HW218674  -0.027   6.514   1.571 -1.8003  0.3820  0.3505
 3620SOL     OW18675   1.376   3.216   0.327  0.5321 -0.5505 -0.0159
 3620SOL    HW118676   1.430   3.251   0.251 -0.3814  3.2009  0.9559
 3620SOL    HW218677   1.280   3.208   0.300  0.1159  1.2851  0.8398
 3621SOL     OW18678   1.697   4.411   1.571  0.1265 -0.3856 -0.2685
 3621SOL    HW118679   1.739   4.458   1.493  0.3130  0.7061  0.4899
 3621SOL    HW218680   1.675   4.317   1.544  0.4655 -0.1160 -1.5485
 3622SOL     OW18681   2.425   2.467   0.930  0.2437 -0.0651  0.4957
 3622SOL    HW118682   2.513   2.459   0.883  0.6454 -0.6361  1.3469
 3622SOL    HW218683   2.419   2.397   1.001 -1.6884 -1.2796 -0.8179
 3623SOL     OW18684   2.918   9.620   0.937  0.4465 -0.2211  0.7030
 3623SOL    HW118685   2.854   9.696   0.929  1.8319  1.0078  0.9481
 3623SOL    HW218686   2.988   9.627   0.866  2.4044  0.5429  2.6430
 3624SOL     OW18687   1.336   0.304   0.879 -0.3239 -0.0617  0.3030
 3624SOL    HW118688   1.282   0.353   0.810 -0.7219  1.2783  1.5383
 3624SOL    HW218689   1.418   0.358   0.901  0.9122 -1.4941 -0.6603
 3625SOL     OW18690   2.009   7.643   0.408  0.1820 -0.4684  0.3808
 3625SOL    HW118691   2.014   7.687   0.318  2.4978  0.7432  1.0631
 3625SOL    HW218692   1.950   7.696   0.469 -0.1705 -0.4606  0.0349
 3627SOL     OW18693   1.817   1.469   1.822  0.2444 -0.1906 -0.3189
 3627SOL    HW118694   1.862   1.380   1.816 -1.5252 -1.3527  2.4571
 3627SOL    HW218695   1.844   1.515   1.907 -1.8013  0.1934  0.1636
 3628SOL     OW18696   0.013   1.503   1.824 -0.0213 -0.0198  0.1481
 3628SOL    HW118697   0.044   1.535   1.734 -2.8156 -1.0122 -1.2033
 3628SOL    HW218698   0.023   1.578   1.890  0.6211  1.2134 -1.2970
 3630SOL     OW18699   2.034   2.047   0.685 -0.5887 -0.6254 -0.0243
 3630SOL    HW118700   2.121   2.096   0.689 -1.8254  1.8176 -1.9134
 3630SOL    HW218701   1.986   2.059   0.772  0.1788 -0.5287  0.3955
 3632SOL     OW18702   3.474   4.631   1.515 -0.0310 -0.3758 -0.3529
 3632SOL    HW118703   3.438   4.613   1.607 -0.0186 -1.5258 -0.5574
 3632SOL    HW218704   3.428   4.711   1.476  0.2538  0.3697  0.8061
 3633SOL     OW18705   0.356   7.600   0.413  0.5704  0.0462 -0.7085
 3633SOL    HW118706   0.300   7.521   0.438 -0.3458 -0.4180 -4.0051
 3633SOL    HW218707   0.373   7.655   0.495 -0.5823 -2.3931  1.2634
 3634SOL     OW18708   9.804   4.218   1.875  0.5585  0.4670  0.5040
 3634SOL    HW118709   9.726   4.258   1.923  0.0083 -0.8324  0.6972
 3634SOL    HW218710   9.885   4.224   1.933  0.1427 -0.0780  1.1440
 3635SOL     OW18711   9.086   6.684   1.580 -0.3053 -0.1971  0.0963
 3635SOL    HW118712   9.088   6.678   1.480 -1.2800 -0.6165  0.0972
 3635SOL    HW218713   9.017   6.751   1.608 -0.8449 -0.9084  0.5076
 3636SOL     OW18714   0.464   4.517   0.397  0.1181 -0.0146 -0.0259
 3636SOL    HW118715   0.517   4.441   0.359 -1.0742 -0.9875  0.2268
 3636SOL    HW218716   0.429   4.574   0.322  0.9273  0.2209 -0.2231
 3637SOL     OW18717   0.464   7.998   1.778 -0.0337  0.5243 -0.3819
 3637SOL    HW118718   0.474   8.014   1.680  0.7780 -0.6878 -0.5040
 3637SOL    HW218719   0.528   7.927   1.807  0.8732  1.9946  1.3342
 3638SOL     OW18720   1.231   3.416   1.540  0.0528  0.1666 -0.1810
 3638SOL    HW118721   1.274   3.335   1.579 -0.3920  0.4503  0.9178
 3638SOL    HW218722   1.269   3.434   1.450  1.1269 -0.4837  0.1350
 3640SOL     OW18723   3.463   3.862   1.725 -0.2848  0.2419 -0.4095
 3640SOL    HW118724   3.550   3.876   1.677  0.2134  1.2810  0.7692
 3640SOL    HW218725   3.434   3.767   1.713  0.6767  0.0541 -1.3629
 3641SOL     OW18726   8.099   8.816   0.435 -0.0796  0.1928  0.1455
 3641SOL    HW118727   8.103   8.727   0.479 -0.5976 -0.4999 -1.1816
 3641SOL    HW218728   8.009   8.858   0.453  0.2564  0.5786  0.9834
 3642SOL     OW18729   2.071   2.883   0.445 -0.1139  0.3264 -0.0420
 3642SOL    HW118730   2.150   2.943   0.430  0.9940 -0.9387  0.6236
 3642SOL    HW218731   2.091   2.819   0.519 -1.5723 -0.3815 -0.2314
 3644SOL     OW18732   1.083   2.796   1.569  0.4107  0.0402  0.0653
 3644SOL    HW118733   1.183   2.798   1.570  0.4137 -0.6573  1.5530
 3644SOL    HW218734   1.051   2.831   1.481  1.9502  0.5581 -0.3183
 3645SOL     OW18735   9.362   0.206   1.020  0.1269  0.0128 -0.0208
 3645SOL    HW118736   9.411   0.120   1.016  2.5022  1.3880 -1.6874
 3645SOL    HW218737   9.294   0.210   0.947  0.3932 -0.2149 -0.2809
 3646SOL     OW18738   2.296   7.057   0.654  0.3429  0.0439  0.4403
 3646SOL    HW118739   2.206   7.097   0.638 -0.3325 -1.5631  0.0728
 3646SOL    HW218740   2.306   7.036   0.752  0.2992  0.2011  0.4779
 3647SOL     OW18741   1.891   1.216   1.834 -0.6418 -0.0856  0.1324
 3647SOL    HW118742   1.848   1.155   1.767 -0.6578  1.5002 -1.3292
 3647SOL    HW218743   1.894   1.170   1.924 -2.5301 -1.4161 -0.4577
 3648SOL     OW18744   0.979   9.010   1.329 -0.4144  0.2497  0.2068
 3648SOL    HW118745   1.017   9.064   1.254 -0.5214  2.4000  1.6758
 3648SOL    HW218746   0.997   9.055   1.416 -1.9808 -1.2310  1.3452
 3649SOL     OW18747   1.919   4.041   1.591  0.0286 -0.2132 -0.2853
 3649SOL    HW118748   1.947   4.106   1.662 -0.6643  0.3778 -0.5449
 3649SOL    HW218749   1.853   3.976   1.629  0.4063 -0.5019 -0.1309
 3650SOL     OW18750   3.414   5.288   1.432 -0.0853 -0.7334 -0.4710
 3650SOL    HW118751   3.400   5.387   1.437  0.3598 -0.7506  1.3811
 3650SOL    HW218752   3.335   5.245   1.390 -1.1364  0.2049  0.5285
 3651SOL     OW18753   9.785   1.336   1.262  0.0591  0.4660  0.8510
 3651SOL    HW118754   9.718   1.292   1.202 -0.5267  0.5991  1.3977
 3651SOL    HW218755   9.758   1.323   1.357 -0.1312  2.0122  1.0158
 3653SOL     OW18756   3.707   8.864   0.774  0.1669  0.6789  0.3390
 3653SOL    HW118757   3.652   8.874   0.856 -0.1035  2.0068 -0.0055
 3653SOL    HW218758   3.801   8.841   0.800 -0.0334  0.5951  0.9937
 3654SOL     OW18759   4.339   3.324   0.495 -0.0634 -0.3715 -0.6326
 3654SOL    HW118760   4.364   3.374   0.412  0.6925 -0.2750 -0.3479
 3654SOL    HW218761   4.405   3.344   0.567 -0.6988 -0.4827 -0.0142
 3655SOL     OW18762   2.990   8.132   2.051 -0.0685  0.1252  0.7814
 3655SOL    HW118763   3.038   8.114   1.965  0.0248  0.3965  0.7760
 3655SOL    HW218764   3.019   8.221   2.087  1.0004 -0.6296  1.8430
 3656SOL     OW18765   1.623   8.951   1.706  0.3243  0.6969 -0.4222
 3656SOL    HW118766   1.668   8.928   1.792  1.1488  2.6857 -0.2962
 3656SOL    HW218767   1.653   8.888   1.635 -1.6186 -1.9993  1.0937
 3657SOL     OW18768   2.788   3.997   0.397  0.5320  0.1153 -0.3663
 3657SOL    HW118769   2.739   3.975   0.313  0.6035  0.1167 -0.4079
 3657SOL    HW218770   2.818   3.913   0.442  1.7351  0.1655 -1.0687
 3658SOL     OW18771   2.056   8.644   2.329  0.0290 -0.5810  0.5761
 3658SOL    HW118772   2.084   8.740   2.328  1.7323 -1.0625 -0.0825
 3658SOL    HW218773   1.956   8.638   2.330 -0.1067  1.1945 -0.6797
 3659SOL     OW18774   3.435   8.605   1.394  0.6136 -0.2232 -0.1530
 3659SOL    HW118775   3.492   8.576   1.316  0.7916  0.5912 -0.3279
 3659SOL    HW218776   3.347   8.558   1.390 -0.3680  1.7087 -2.2941
 3660SOL     OW18777   4.036   3.985   1.726  0.1394 -0.7437 -0.4162
 3660SOL    HW118778   3.957   4.038   1.757 -0.7131 -1.4063 -1.4578
 3660SOL    HW218779   4.074   3.934   1.804  0.6740  0.9696  0.4955
 3661SOL     OW18780   0.556   5.814   1.688 -0.4335 -0.0203 -0.4388
 3661SOL    HW118781   0.530   5.903   1.725  3.4371  1.9613 -2.2847
 3661SOL    HW218782   0.625   5.772   1.747 -0.1826 -0.5249 -1.0886
 3662SOL     OW18783   0.374   1.319   0.970  0.9341 -0.3954  0.3706
 3662SOL    HW118784   0.363   1.265   1.053  1.6398 -0.8754  0.1561
 3662SOL    HW218785   0.389   1.415   0.994 -1.3582 -0.1012  0.7239
 3663SOL     OW18786  -0.063   9.209   1.753  0.0014  0.5136  0.7027
 3663SOL    HW118787  -0.109   9.297   1.769  2.2703  1.5670  1.7421
 3663SOL    HW218788  -0.016   9.212   1.665 -0.7809 -0.0477  0.2660
 3664SOL     OW18789   4.065   8.738   2.312  0.0733 -0.0331 -0.4293
 3664SOL    HW118790   4.086   8.756   2.216  0.7089 -1.1724 -0.5041
 3664SOL    HW218791   4.047   8.825   2.359  1.8249  0.7138 -1.0950
 3665SOL     OW18792   0.564   8.114   1.053  0.1371 -0.7656 -0.1579
 3665SOL    HW118793   0.485   8.053   1.056 -0.9496  0.3882 -3.1969
 3665SOL    HW218794   0.625   8.086   0.980  0.1265  1.1636 -0.9318
 3666SOL     OW18795   0.903   9.464   0.784 -0.5383  0.1605  0.2075
 3666SOL    HW118796   0.904   9.558   0.750 -0.4589  0.2292  0.4028
 3666SOL    HW218797   0.950   9.459   0.872 -1.7439  0.1961  0.8665
 3667SOL     OW18798   2.778   2.478   1.748 -0.2082 -0.6417 -0.0122
 3667SOL    HW118799   2.729   2.400   1.709 -1.6388 -0.6515  1.6791
 3667SOL    HW218800   2.736   2.563   1.716  0.1420 -0.6137 -0.3866
 3668SOL     OW18801  -0.020   3.315   1.420 -0.1401 -0.0385  0.3987
 3668SOL    HW118802  -0.047   3.387   1.355 -1.0167  0.7491  1.6116
 3668SOL    HW218803   0.075   3.330   1.448  0.4125 -0.6968 -1.1126
 3669SOL     OW18804   0.363   8.616   1.033 -0.0883  0.4048  0.3971
 3669SOL    HW118805   0.334   8.693   0.976  1.4016 -0.0975 -1.0951
 3669SOL    HW218806   0.342   8.635   1.129 -1.4725  1.8259 -0.1676
 3670SOL     OW18807   1.746   0.700   1.705  0.1756 -0.0062 -0.0856
 3670SOL    HW118808   1.738   0.642   1.786 -1.5813 -1.9232 -1.5671
 3670SOL    HW218809   1.813   0.661   1.642  1.6585  1.5655  0.4869
 3671SOL     OW18810   0.564   3.541   0.881  0.5129 -0.2125 -0.3764
 3671SOL    HW118811   0.586   3.469   0.815 -0.5930 -1.1972  0.3022
 3671SOL    HW218812   0.648   3.583   0.914  1.1399 -0.6891 -1.3467
 3673SOL     OW18813   2.157   9.077   1.725 -0.3055 -0.5052  0.7906
 3673SOL    HW118814   2.091   9.004   1.708  1.2007 -1.4738 -1.1686
 3673SOL    HW218815   2.131   9.159   1.674  0.1818 -1.0113 -0.2916
 3674SOL     OW18816   9.641   0.313   1.099 -0.5147 -0.3045  0.2621
 3674SOL    HW118817   9.550   0.279   1.123  0.0558 -1.1471  1.2605
 3674SOL    HW218818   9.696   0.321   1.182  0.5705 -0.5286 -0.4330
 3675SOL     OW18819   2.629   3.453   1.100  0.3903  0.3453  0.1172
 3675SOL    HW118820   2.711   3.409   1.137  0.0677  0.0096  0.4404
 3675SOL    HW218821   2.641   3.469   1.002  0.9143  0.4677  0.1987
 3676SOL     OW18822   3.100   1.324   2.040  0.7938 -0.1118 -0.3748
 3676SOL    HW118823   3.126   1.392   1.972  2.3607  0.1175  0.4503
 3676SOL    HW218824   3.082   1.237   1.994  1.0505  0.2488 -1.1665
 3677SOL     OW18825   9.030   1.480   2.306  0.1043 -0.1840  0.1371
 3677SOL    HW118826   8.972   1.554   2.339 -0.6239 -1.2407  1.2790
 3677SOL    HW218827   8.973   1.402   2.280  0.8991 -0.5560 -0.5159
 3679SOL     OW18828   0.905   9.548   1.523 -0.1099 -0.0308  0.9873
 3679SOL    HW118829   0.823   9.573   1.471  0.2797 -1.5273 -0.3691
 3679SOL    HW218830   0.977   9.615   1.505 -0.1362 -0.2639 -0.0442
 3680SOL     OW18831   2.605   9.627   1.246  0.2978  0.7546  0.0051
 3680SOL    HW118832   2.629   9.563   1.173 -1.1918  2.8307 -2.3984
 3680SOL    HW218833   2.572   9.576   1.326  0.0041 -1.5052 -1.5138
 3681SOL     OW18834   1.742   8.126   0.788 -0.4608 -0.2003  0.1622
 3681SOL    HW118835   1.702   8.068   0.718  0.7365 -2.0550  0.9800
 3681SOL    HW218836   1.750   8.220   0.754 -0.1677 -1.0110 -2.0332
 3682SOL     OW18837   0.481   5.402   1.868  0.0981 -0.3780 -0.1788
 3682SOL    HW118838   0.572   5.380   1.905 -0.6701 -0.3858  1.7856
 3682SOL    HW218839   0.417   5.412   1.944 -1.6079 -0.6593 -1.5687
 3683SOL     OW18840   8.980   7.705   2.058  0.1115  0.1707  0.7749
 3683SOL    HW118841   8.957   7.610   2.038  0.2019  0.3061  0.0113
 3683SOL    HW218842   9.071   7.709   2.099  0.0010 -0.0965  1.0451
 3684SOL     OW18843   1.601   8.731   0.794 -0.3490 -0.2099  0.0738
 3684SOL    HW118844   1.539   8.776   0.859 -0.5244 -0.0455 -0.2063
 3684SOL    HW218845   1.584   8.767   0.702  0.5298  0.2202  0.0777
 3685SOL     OW18846   0.335   2.113   1.736 -0.0952 -0.2013 -0.5040
 3685SOL    HW118847   0.328   2.016   1.714 -0.7516 -0.3448  0.3583
 3685SOL    HW218848   0.374   2.124   1.827 -0.3610  0.3350 -0.4530
 3686SOL     OW18849   1.991   4.165   2.191 -0.6994 -0.1636  0.0468
 3686SOL    HW118850   2.048   4.227   2.246 -2.4150  0.7095  0.8891
 3686SOL    HW218851   1.987   4.197   2.097 -1.1783  0.7483  0.3707
 3688SOL     OW18852   9.036   3.319   0.740 -0.0233  0.2210 -0.5231
 3688SOL    HW118853   9.092   3.362   0.811  0.1036 -2.1543  0.8645
 3688SOL    HW218854   9.088   3.244   0.699 -0.5975  0.7507 -2.2293
 3689SOL     OW18855   9.410   8.463   1.210 -0.4874 -0.3559  0.2571
 3689SOL    HW118856   9.408   8.473   1.111  1.6600  0.6543  0.2852
 3689SOL    HW218857   9.442   8.372   1.235  2.8683  0.7022 -0.0044
 3690SOL     OW18858   4.548   2.985   0.993 -0.1628  0.6016 -0.0258
 3690SOL    HW118859   4.476   2.928   1.033 -1.5096  2.2985  0.0323
 3690SOL    HW218860   4.531   3.081   1.017  0.7765  1.2919 -2.0281
 3691SOL     OW18861   2.202   1.816   1.455 -0.4009  0.4970 -0.2186
 3691SOL    HW118862   2.260   1.798   1.534  1.3239  1.7131 -1.1633
 3691SOL    HW218863   2.141   1.738   1.439  0.4426 -0.4794  1.2470
 3693SOL     OW18864   1.939   2.971   0.947  0.2499  0.8053 -0.0836
 3693SOL    HW118865   1.859   3.014   0.990 -0.5056 -2.1879  1.6677
 3693SOL    HW218866   2.011   2.960   1.016  0.7942  0.1623 -0.7529
 3694SOL     OW18867   0.995   2.893   1.825  0.0271 -0.1242 -0.3019
 3694SOL    HW118868   1.021   2.862   1.733  0.2101 -0.0282 -0.2831
 3694SOL    HW218869   0.909   2.850   1.851 -0.1168 -0.0105 -0.5917
 3695SOL     OW18870   2.039   5.262   1.850  0.4045  0.1635 -0.0776
 3695SOL    HW118871   1.945   5.251   1.884  0.3407 -0.0901 -0.3333
 3695SOL    HW218872   2.075   5.173   1.822  0.3355  0.4192 -0.9938
 3697SOL     OW18873   0.451   6.835   1.422 -0.0951 -0.3121 -0.1194
 3697SOL    HW118874   0.392   6.852   1.501  0.6714  0.1652  0.3626
 3697SOL    HW218875   0.431   6.745   1.385  0.1942 -0.9457  1.2219
 3698SOL     OW18876   1.070  -0.104   2.115 -0.0288 -0.5930 -0.7065
 3698SOL    HW118877   1.050  -0.023   2.060 -0.5704 -0.2164  0.0315
 3698SOL    HW218878   0.992  -0.124   2.174  0.9959 -0.2685  0.7983
 3700SOL     OW18879   9.822   2.681   1.332 -0.0050 -0.5293 -0.2977
 3700SOL    HW118880   9.892   2.663   1.401  0.5677  0.2661 -0.6787
 3700SOL    HW218881   9.780   2.594   1.304  1.3463 -1.0795 -0.6369
 3701SOL     OW18882   8.878   8.109   1.590 -0.1689  0.2054 -0.0837
 3701SOL    HW118883   8.891   8.066   1.679  0.6078  2.1488  0.7807
 3701SOL    HW218884   8.838   8.199   1.602  2.3249  1.5674 -1.4552
 3703SOL     OW18885   9.683   1.599   1.823  0.2622  0.3503 -0.4500
 3703SOL    HW118886   9.616   1.613   1.897  0.0478 -0.6243 -0.4538
 3703SOL    HW218887   9.775   1.594   1.862  0.2735  1.1143 -0.3823
 3704SOL     OW18888   2.117   3.206   2.154 -0.6820  0.1004  0.0319
 3704SOL    HW118889   2.127   3.108   2.171 -1.9036 -0.0441 -0.0439
 3704SOL    HW218890   2.201   3.242   2.114  0.3899 -0.5681  1.6400
 3705SOL     OW18891   1.161   9.612   2.274  0.4580  0.3034 -0.2310
 3705SOL    HW118892   1.254   9.593   2.306  1.1318  0.9320 -1.7580
 3705SOL    HW218893   1.144   9.563   2.188 -0.6468  0.1249  0.0855
 3706SOL     OW18894   9.510   9.846   0.331 -0.3167 -0.3823  0.2332
 3706SOL    HW118895   9.564   9.781   0.384  2.0526  1.2633 -0.0836
 3706SOL    HW218896   9.466   9.911   0.393  1.0834  0.5003  0.3496
 3707SOL     OW18897   0.517   8.383   1.935 -0.5493  0.4956 -0.5209
 3707SOL    HW118898   0.487   8.374   2.030  0.5338  2.0327 -0.0029
 3707SOL    HW218899   0.567   8.301   1.908  0.2006  0.5445  0.6529
 3708SOL     OW18900   1.004   5.730   1.845  0.2199 -0.2745 -0.0320
 3708SOL    HW118901   1.068   5.712   1.771  2.2325 -0.7995  1.7629
 3708SOL    HW218902   0.960   5.819   1.832  0.8808 -0.1765 -1.5887
 3709SOL     OW18903   8.415   8.786   2.093  0.3290 -0.2941 -0.3623
 3709SOL    HW118904   8.424   8.829   2.183  1.1961 -2.7895  0.7785
 3709SOL    HW218905   8.346   8.835   2.039 -1.0696  0.5102  2.0947
 3710SOL     OW18906   1.343   8.553   1.789  0.5933 -0.7976  0.7753
 3710SOL    HW118907   1.262   8.526   1.737  1.3157  1.4053 -1.6708
 3710SOL    HW218908   1.315   8.584   1.880 -1.4591  0.5868 -0.2567
 3711SOL     OW18909   2.500   5.124   0.822 -0.0933  0.1825  0.1745
 3711SOL    HW118910   2.576   5.086   0.875 -0.0506 -0.6764 -0.4992
 3711SOL    HW218911   2.414   5.086   0.856 -0.2466  1.2908  1.0557
 3712SOL     OW18912   1.314   9.384   1.059 -0.0994 -0.7769 -0.0578
 3712SOL    HW118913   1.374   9.347   1.130 -1.1859  1.3394  2.0465
 3712SOL    HW218914   1.368   9.438   0.994  0.5534 -0.5337  0.6765
 3713SOL     OW18915   4.595   2.079   1.866 -0.4974  0.2643 -0.3613
 3713SOL    HW118916   4.500   2.100   1.843 -1.0143 -0.7001  0.8607
 3713SOL    HW218917   4.612   2.098   1.962 -0.0236 -1.5147 -0.0718
 3714SOL     OW18918   3.694   9.097   1.857  0.0816 -0.3702  0.2388
 3714SOL    HW118919   3.707   9.027   1.787 -4.0639 -2.3519  1.3336
 3714SOL    HW218920   3.618   9.157   1.831  0.6134  0.8964  1.5292
 3715SOL     OW18921   2.022   2.688   1.867  0.5994  0.0111  0.4832
 3715SOL    HW118922   1.962   2.634   1.926  1.4239 -3.6782 -1.8549
 3715SOL    HW218923   2.107   2.708   1.916  0.5746 -1.4755  1.1702
 3716SOL     OW18924   9.382   1.909   0.932  0.5148  0.3758 -0.0883
 3716SOL    HW118925   9.464   1.861   0.901  0.2231 -0.3493  0.2314
 3716SOL    HW218926   9.346   1.864   1.015  1.5436  2.5522  1.5784
 3717SOL     OW18927   0.961   6.569   0.498 -0.0648 -0.1793  0.1904
 3717SOL    HW118928   0.997   6.607   0.413  0.9910 -2.2916 -0.3304
 3717SOL    HW218929   0.884   6.625   0.529 -1.6657 -0.4331 -3.1290
 3719SOL     OW18930   1.639   7.928   2.236 -0.2794 -0.1969 -1.0074
 3719SOL    HW118931   1.698   7.943   2.156  0.4193 -1.0240 -0.6594
 3719SOL    HW218932   1.559   7.875   2.209  0.6047 -1.6166 -0.9272
 3720SOL     OW18933   0.150   8.984   1.748 -0.3638 -0.2685  0.3648
 3720SOL    HW118934   0.098   9.032   1.677  3.1351  2.5837 -0.4572
 3720SOL    HW218935   0.122   9.017   1.838 -2.1962 -1.1395  0.1235
 3721SOL     OW18936   1.657   5.705   2.051 -0.2218  0.7352 -0.2414
 3721SOL    HW118937   1.642   5.691   2.149  0.3221 -0.7039 -0.3572
 3721SOL    HW218938   1.753   5.689   2.030 -0.3618  0.9332 -1.0335
 3722SOL     OW18939   3.159   4.229   0.388  0.0935 -0.3629 -0.3437
 3722SOL    HW118940   3.082   4.253   0.447  0.4932  0.4771 -0.1688
 3722SOL    HW218941   3.125   4.195   0.301 -0.4825 -0.5052 -0.0628
 3723SOL     OW18942   2.339   7.270   1.354 -0.3922 -0.2432 -0.6143
 3723SOL    HW118943   2.332   7.353   1.408  0.2378  0.2959 -1.3496
 3723SOL    HW218944   2.305   7.192   1.407  1.8904 -0.0352  1.2514
 3724SOL     OW18945   2.761   8.299   0.962 -0.0773 -0.3669  0.0168
 3724SOL    HW118946   2.820   8.227   0.999 -0.6775 -0.3280  1.0675
 3724SOL    HW218947   2.713   8.344   1.037 -1.8423 -0.7479 -0.8576
 3725SOL     OW18948   1.811   1.610   2.079  0.1851  0.2434 -0.0284
 3725SOL    HW118949   1.778   1.549   2.151 -0.0865  0.9701  0.4687
 3725SOL    HW218950   1.737   1.671   2.051 -0.2087 -1.1171 -2.0913
 3726SOL     OW18951   3.681   0.807   1.528 -0.3727 -0.1541 -0.0243
 3726SOL    HW118952   3.589   0.810   1.490  0.1141 -0.2424 -1.2631
 3726SOL    HW218953   3.736   0.879   1.486  0.7626 -1.5972 -1.0952
 3727SOL     OW18954   2.917   1.057   0.576 -0.3263 -0.1406 -0.3962
 3727SOL    HW118955   2.908   1.141   0.629  0.8854  0.6520 -1.4391
 3727SOL    HW218956   2.826   1.029   0.543 -0.6375  1.2274 -0.7529
 3729SOL     OW18957   0.123   8.653   2.256 -0.1698  0.2250  0.1294
 3729SOL    HW118958   0.115   8.686   2.162 -1.0217  1.2591  0.5585
 3729SOL    HW218959   0.215   8.670   2.291 -0.2337  0.9926 -0.0848
 3730SOL     OW18960   3.811   4.494   1.166 -0.2099 -0.0357 -0.4230
 3730SOL    HW118961   3.746   4.459   1.233  1.0596 -2.0153 -0.1957
 3730SOL    HW218962   3.761   4.533   1.088 -1.6673  0.9429  0.9781
 3732SOL     OW18963   4.404   9.329   1.596 -0.4355 -0.2736 -0.3751
 3732SOL    HW118964   4.477   9.385   1.635 -0.9932  0.4125 -0.3120
 3732SOL    HW218965   4.315   9.369   1.618 -0.8947 -1.8636  0.7408
 3733SOL     OW18966   3.159   9.094   1.104 -0.2794 -0.8039 -0.2219
 3733SOL    HW118967   3.124   9.118   1.013  0.7053  0.6379 -0.2425
 3733SOL    HW218968   3.192   9.000   1.103 -0.8640 -1.0093 -1.1772
 3735SOL     OW18969   3.117   9.557   0.731  0.4513  0.3255  0.4536
 3735SOL    HW118970   3.048   9.505   0.680  0.3497  0.4767  0.4372
 3735SOL    HW218971   3.207   9.513   0.719  0.0464 -0.9652  2.0259
 3737SOL     OW18972   7.694   0.275   1.025  0.8196  0.3996  0.3272
 3737SOL    HW118973   7.667   0.372   1.027 -0.9176 -0.0664  0.2617
 3737SOL    HW218974   7.782   0.266   0.979  0.2251  1.7869 -1.1470
 3738SOL     OW18975   9.206   4.916   2.309  0.0148 -0.0650  0.1003
 3738SOL    HW118976   9.123   4.923   2.253 -0.5695 -2.3030  0.6288
 3738SOL    HW218977   9.247   4.826   2.295  2.0896  0.8492  0.2399
 3739SOL     OW18978   1.031   2.823   0.691 -0.0070  0.4489  0.0103
 3739SOL    HW118979   1.091   2.854   0.617 -0.5567  1.3191 -0.0753
 3739SOL    HW218980   1.019   2.724   0.685 -1.9399  0.8026 -2.4847
 3740SOL     OW18981   8.634   1.318   1.882 -0.1317  0.1629  0.1887
 3740SOL    HW118982   8.708   1.252   1.892  0.0495  0.2538 -0.5543
 3740SOL    HW218983   8.548   1.276   1.910 -0.1283 -0.6231 -0.9554
 3741SOL     OW18984   1.559   2.538   0.963  0.4978 -0.6176  0.2726
 3741SOL    HW118985   1.556   2.485   0.878  0.4495 -0.2313  0.0324
 3741SOL    HW218986   1.511   2.489   1.035 -1.4190  0.0795 -0.4921
 3742SOL     OW18987   8.211   2.243   1.104  0.4528 -0.2041 -0.2229
 3742SOL    HW118988   8.184   2.327   1.152  1.3577  0.2156 -0.4411
 3742SOL    HW218989   8.182   2.248   1.009  0.6074 -0.0921 -0.2637
 3743SOL     OW18990   0.279   7.517   1.228  0.5243  0.3203  0.0761
 3743SOL    HW118991   0.284   7.434   1.171 -4.2519 -0.4312  0.5544
 3743SOL    HW218992   0.260   7.491   1.322 -1.6939  1.9630  0.1011
 3744SOL     OW18993   1.311   0.141   1.137 -0.0207  0.5674 -0.3047
 3744SOL    HW118994   1.293   0.155   1.234  0.4729 -1.2218  0.0692
 3744SOL    HW218995   1.292   0.225   1.087  1.2045  1.9770  1.5374
 3745SOL     OW18996   4.529   3.276   1.040 -0.1698  0.6581 -0.3354
 3745SOL    HW118997   4.614   3.288   0.989  0.5419  0.5470  0.8245
 3745SOL    HW218998   4.538   3.317   1.131 -0.9721 -0.3164  0.1920
 3746SOL     OW18999   9.130   6.479   0.830 -0.3346  0.0301 -0.1358
 3746SOL    HW119000   9.198   6.487   0.757  0.2489  1.0565  0.5193
 3746SOL    HW219001   9.174   6.448   0.914 -0.6643  0.6744  0.2822
 3747SOL     OW19002   2.423   9.831   0.646  0.2747  0.6606  0.2124
 3747SOL    HW119003   2.338   9.878   0.668  0.2823  0.7180  0.1167
 3747SOL    HW219004   2.447   9.770   0.721 -1.0366 -1.0431 -0.7112
 3748SOL     OW19005   1.700   2.359   0.393  0.3025 -0.0626  0.0041
 3748SOL    HW119006   1.760   2.287   0.429  0.9838  0.8484  0.6821
 3748SOL    HW219007   1.751   2.444   0.383 -0.4241  0.2636 -1.0989
 3749SOL     OW19008   8.377   0.313   0.473  0.0258 -0.2454 -0.3054
 3749SOL    HW119009   8.367   0.217   0.449  0.8848  0.0346 -1.9159
 3749SOL    HW219010   8.441   0.323   0.549  0.4135 -0.9139 -0.5420
 3750SOL     OW19011   3.083   0.134   0.972  1.0123  0.5109 -0.4752
 3750SOL    HW119012   3.168   0.186   0.977  1.4029  0.0001 -1.5750
 3750SOL    HW219013   3.037   0.155   0.885  1.3944 -1.3019 -1.1250
 3751SOL     OW19014   1.193   2.492   1.530  0.2216 -0.0773  0.2819
 3751SOL    HW119015   1.199   2.450   1.439  1.5040 -2.2035  1.2915
 3751SOL    HW219016   1.255   2.570   1.535  0.7898 -0.4736 -0.4189
 3755SOL     OW19017  -0.061   7.636   1.386  0.2202  0.0404 -0.1425
 3755SOL    HW119018  -0.037   7.639   1.289  0.1601  0.2441 -0.1507
 3755SOL    HW219019  -0.160   7.644   1.396  0.3704  1.8678  0.0251
 3758SOL     OW19020   1.001   3.569   0.968 -0.1938 -0.5873 -0.3412
 3758SOL    HW119021   1.015   3.541   0.873 -0.1909  0.2484 -0.5856
 3758SOL    HW219022   1.089   3.590   1.011 -0.3372  0.6049 -0.6343
 3760SOL     OW19023   2.640   3.559   1.775  0.3625 -0.3609  0.2805
 3760SOL    HW119024   2.599   3.469   1.788 -2.5179  0.8998  0.1035
 3760SOL    HW219025   2.648   3.605   1.864  1.1719 -0.4869  0.2793
 3761SOL     OW19026   0.014   9.084   0.698 -0.3192 -0.3722  0.2487
 3761SOL    HW119027  -0.039   9.034   0.766 -0.4150 -1.4924 -0.6342
 3761SOL    HW219028   0.056   9.164   0.741  1.5343 -2.3135  2.1831
 3762SOL     OW19029   0.239   0.558   0.860  0.3180 -0.1280  0.0178
 3762SOL    HW119030   0.176   0.484   0.885 -1.6501  0.6927 -2.2850
 3762SOL    HW219031   0.197   0.614   0.789  3.4515  0.8010 -1.1752
 3763SOL     OW19032   2.772   8.812   1.219  0.1277  0.0779  0.0181
 3763SOL    HW119033   2.820   8.780   1.138  1.2170  2.9448 -0.5327
 3763SOL    HW219034   2.787   8.910   1.230 -3.0306  0.4643  1.6170
 3765SOL     OW19035   0.080   8.543   1.472  0.0118  0.1265 -0.0219
 3765SOL    HW119036   0.119   8.597   1.546 -0.2743  0.0704  0.1727
 3765SOL    HW219037   0.074   8.447   1.500 -0.0135  0.0902 -0.1499
 3766SOL     OW19038   3.552   4.163   0.996 -0.0910 -0.5061 -1.0461
 3766SOL    HW119039   3.486   4.096   1.030 -0.1998  0.1688  0.0780
 3766SOL    HW219040   3.641   4.119   0.983 -0.2284 -0.9232 -0.5736
 3767SOL     OW19041   2.099   1.359   1.616 -0.0199 -0.2233  0.0568
 3767SOL    HW119042   2.050   1.273   1.606 -0.9435  0.1622  1.2634
 3767SOL    HW219043   2.117   1.377   1.712 -0.7965  1.4576 -0.0871
 3768SOL     OW19044   3.002   8.899   1.783 -0.1557 -0.1399 -0.2810
 3768SOL    HW119045   3.039   8.977   1.834  1.0075 -1.0424  0.2901
 3768SOL    HW219046   2.913   8.873   1.822  1.1457 -1.4092  1.9553
 3769SOL     OW19047  -0.034   1.048   1.518 -0.3273 -0.7334 -0.5607
 3769SOL    HW119048   0.028   0.970   1.512  1.3432  0.6523 -1.8504
 3769SOL    HW219049   0.016   1.128   1.551 -2.1042 -0.2903  1.1197
 3770SOL     OW19050   8.023   0.945   1.080  0.0755  0.0780 -0.4135
 3770SOL    HW119051   8.103   0.975   1.027 -0.7128  0.1362 -1.5947
 3770SOL    HW219052   8.023   0.990   1.169  0.8369  0.8466 -0.7937
 3771SOL     OW19053   1.550   5.256   1.187 -0.1465  0.6195 -0.0928
 3771SOL    HW119054   1.489   5.324   1.227 -0.3007  1.8121 -2.2986
 3771SOL    HW219055   1.635   5.300   1.157  0.6032 -0.5258  0.2868
 3772SOL     OW19056   1.114   7.843   2.074  0.1212 -0.4567  0.2870
 3772SOL    HW119057   1.019   7.847   2.105 -0.0192 -0.5447 -0.1293
 3772SOL    HW219058   1.116   7.831   1.974  0.5715 -0.0098  0.2440
 3774SOL     OW19059   9.037   8.416   2.056  0.2301  0.0803  0.0157
 3774SOL    HW119060   9.113   8.382   2.110  0.7401  1.3510  0.1264
 3774SOL    HW219061   9.066   8.496   2.004 -1.0655  0.6799  0.1791
 3775SOL     OW19062   3.709   0.346   0.581  0.4136 -1.2783  0.6926
 3775SOL    HW119063   3.636   0.307   0.525  1.5773 -2.2829 -0.1590
 3775SOL    HW219064   3.701   0.312   0.674  0.4832 -2.3162  0.3258
 3776SOL     OW19065   9.498   6.931   0.777  0.3464 -0.1175 -0.4082
 3776SOL    HW119066   9.512   6.852   0.837 -0.4267  0.1434  0.1310
 3776SOL    HW219067   9.550   6.919   0.693 -0.2074 -1.4674 -0.5767
 3777SOL     OW19068   3.941   2.589   2.085  0.7214  0.0338 -0.1728
 3777SOL    HW119069   4.029   2.563   2.125  0.2890  0.8103  1.3140
 3777SOL    HW219070   3.895   2.507   2.049  1.3200 -0.6147  0.5185
 3778SOL     OW19071   0.682  -0.073   1.728  0.0686 -0.1634  0.2937
 3778SOL    HW119072   0.724   0.007   1.685  0.6116 -1.0545 -0.8632
 3778SOL    HW219073   0.748  -0.115   1.790  0.6028 -1.0496 -0.8555
 3779SOL     OW19074   2.551   0.007   1.762  0.1401 -0.0638  0.2487
 3779SOL    HW119075   2.484   0.052   1.702  0.6097 -0.1453 -0.3437
 3779SOL    HW219076   2.643   0.023   1.726  0.4411  0.0730  1.0802
 3780SOL     OW19077   1.923   2.050   1.848 -0.0434 -0.0324 -0.2043
 3780SOL    HW119078   1.847   2.112   1.829 -0.6070 -0.4789  0.5370
 3780SOL    HW219079   1.947   2.055   1.945  2.5936  2.0045 -0.9192
 3781SOL     OW19080   3.303   0.609   0.492  0.1151 -0.6848 -0.1494
 3781SOL    HW119081   3.347   0.649   0.412  0.4496 -0.9279 -0.0857
 3781SOL    HW219082   3.212   0.650   0.503 -0.2292 -1.1637 -1.0747
 3782SOL     OW19083   0.850   6.765   1.553  0.2524 -0.2889 -0.3493
 3782SOL    HW119084   0.913   6.764   1.475  1.4136  1.2490  0.5562
 3782SOL    HW219085   0.831   6.859   1.579  1.5905 -0.7795  2.6088
 3783SOL     OW19086   0.113   1.478   0.663  0.3222  0.7155  0.2294
 3783SOL    HW119087   0.085   1.436   0.750  1.7167  1.0628  0.8690
 3783SOL    HW219088   0.051   1.450   0.591 -0.5485 -0.0154  1.2428
 3784SOL     OW19089   0.161   7.782   1.929  0.0587 -0.1461  0.5072
 3784SOL    HW119090   0.198   7.824   1.846  4.2238 -0.0762  2.2550
 3784SOL    HW219091   0.181   7.841   2.007 -1.1413 -1.6072  1.9438
 3785SOL     OW19092   0.166   1.147   2.341  0.3709 -0.2124  0.1183
 3785SOL    HW119093   0.151   1.172   2.436  1.5378  1.3619 -0.0941
 3785SOL    HW219094   0.103   1.200   2.283  0.9950  0.2753 -0.1229
 3786SOL     OW19095   0.329   5.568   2.065 -0.5545  0.1136  0.4910
 3786SOL    HW119096   0.345   5.536   2.158 -0.2694 -0.1097  0.3631
 3786SOL    HW219097   0.325   5.668   2.064 -2.0870  0.0715  0.9930
 3787SOL     OW19098   0.108   0.687   0.677  0.2719  0.1524  0.2550
 3787SOL    HW119099   0.017   0.725   0.662  0.0359  0.2743  1.8925
 3787SOL    HW219100   0.175   0.738   0.622 -0.7629 -0.5639 -1.6903
 3788SOL     OW19101   8.537   7.764   2.046  0.1109  0.3810  0.2005
 3788SOL    HW119102   8.567   7.798   1.957 -1.0865 -0.2838 -0.4673
 3788SOL    HW219103   8.494   7.838   2.098 -0.4218  0.4412 -0.3273
 3789SOL     OW19104   3.846   2.411   0.843  0.0661  0.0059 -0.5155
 3789SOL    HW119105   3.908   2.431   0.920  0.3346 -0.7438 -0.5370
 3789SOL    HW219106   3.894   2.430   0.757 -0.8945  2.7957 -0.4895
 3791SOL     OW19107   2.777   1.214   1.520 -0.5366  0.0313  0.0433
 3791SOL    HW119108   2.869   1.238   1.488 -0.7164  1.7932  0.7568
 3791SOL    HW219109   2.709   1.269   1.470 -1.0279  0.4848  1.1892
 3792SOL     OW19110  -0.036   3.823   1.360 -0.0333  0.0170 -0.2358
 3792SOL    HW119111   0.049   3.815   1.309 -0.2125 -1.6223 -0.2958
 3792SOL    HW219112  -0.074   3.732   1.377 -0.6845  0.6080  1.6084
 3793SOL     OW19113   9.543   5.816   1.874 -0.0898  0.1141 -0.0746
 3793SOL    HW119114   9.522   5.887   1.807 -1.3898 -0.4427 -0.2679
 3793SOL    HW219115   9.631   5.774   1.851 -0.4023  0.1041 -1.2783
 3794SOL     OW19116   2.696   0.213   0.665  0.4482 -0.4537 -0.2581
 3794SOL    HW119117   2.645   0.153   0.604 -0.0073 -0.2543 -0.0705
 3794SOL    HW219118   2.665   0.200   0.759 -0.3103  0.7504 -0.3280
 3795SOL     OW19119   2.488   6.793   2.307  0.0975 -0.4846  0.4534
 3795SOL    HW119120   2.494   6.848   2.390 -1.2833 -1.2724  1.0949
 3795SOL    HW219121   2.501   6.697   2.330 -0.0322 -0.6861 -0.2870
 3796SOL     OW19122   3.640   0.806   0.503  0.7201 -0.6717  0.6340
 3796SOL    HW119123   3.637   0.711   0.472  2.9278 -0.0690 -1.6023
 3796SOL    HW219124   3.735   0.834   0.515  0.2600  2.0574 -1.4432
 3797SOL     OW19125   9.690   3.181   1.226 -0.0777  0.2751 -0.4608
 3797SOL    HW119126   9.658   3.259   1.280  3.1066  1.2286  0.1496
 3797SOL    HW219127   9.618   3.111   1.222 -1.0887  0.9959  3.4148
 3800SOL     OW19128   9.016   5.397   0.900 -0.1942 -0.1216  0.3193
 3800SOL    HW119129   9.031   5.414   0.998 -1.4599  0.3610  0.4373
 3800SOL    HW219130   9.104   5.393   0.853  0.4698 -1.2971  1.6351
 3801SOL     OW19131   2.110   7.533   1.862 -0.4520  0.5669  0.1337
 3801SOL    HW119132   2.171   7.613   1.870  0.5789 -0.0969 -0.8735
 3801SOL    HW219133   2.035   7.555   1.799 -0.9290  1.1979  0.9209
 3802SOL     OW19134   3.341   4.243   1.488 -0.1846 -0.5460  0.0928
 3802SOL    HW119135   3.259   4.206   1.444  1.3921 -1.9892 -1.7466
 3802SOL    HW219136   3.339   4.343   1.482 -0.1681 -0.6751 -3.1062
 3804SOL     OW19137   0.217   9.828   1.573  0.3656  0.0401 -0.6221
 3804SOL    HW119138   0.160   9.816   1.654  0.1931  0.2294 -0.7182
 3804SOL    HW219139   0.224   9.925   1.550  0.9503  0.0449 -0.4464
 3805SOL     OW19140   3.619   9.759   2.327  0.2870  0.2453  0.3163
 3805SOL    HW119141   3.697   9.801   2.281  0.1861 -0.1169 -0.1829
 3805SOL    HW219142   3.534   9.792   2.287  0.1860  0.3613  0.6196
 3806SOL     OW19143   1.652   1.272   0.746  0.2317  0.4367 -0.2768
 3806SOL    HW119144   1.588   1.348   0.738 -1.1055 -0.7157 -0.6687
 3806SOL    HW219145   1.669   1.233   0.656 -1.3425 -1.5416  0.2553
 3807SOL     OW19146   1.212   3.794   1.747 -0.5172  0.6131 -0.4351
 3807SOL    HW119147   1.306   3.793   1.779 -0.6784  2.5502  0.1318
 3807SOL    HW219148   1.156   3.848   1.810 -2.5111 -2.5214  0.5913
 3808SOL     OW19149   9.683   4.538   2.165  0.0811  0.4563  0.3916
 3808SOL    HW119150   9.648   4.565   2.255 -0.2627  1.0244  0.0903
 3808SOL    HW219151   9.630   4.462   2.130  0.6134 -0.1756  0.9432
 3809SOL     OW19152   9.926   9.173   2.213  0.2265 -0.0693  0.1969
 3809SOL    HW119153   9.852   9.233   2.183 -0.6247 -0.0952  2.1787
 3809SOL    HW219154   9.972   9.213   2.292  1.2879 -0.8251 -0.0241
 3811SOL     OW19155   3.929   2.407   0.583  0.6060  0.1388 -0.2292
 3811SOL    HW119156   3.887   2.490   0.545  0.4766  0.1132 -0.1441
 3811SOL    HW219157   4.027   2.408   0.564  0.3759 -0.3791 -1.4762
 3812SOL     OW19158   1.824   6.967   1.009  0.1990 -0.3170 -0.2572
 3812SOL    HW119159   1.768   6.928   1.082 -2.4170 -0.4036 -2.2285
 3812SOL    HW219160   1.852   6.894   0.947  0.0329  0.1351 -0.8630
 3814SOL     OW19161   2.740   6.318   1.634  0.1119 -0.2251  0.4040
 3814SOL    HW119162   2.761   6.227   1.672 -1.1071  0.1183  1.9243
 3814SOL    HW219163   2.671   6.309   1.562  1.7730 -0.7685 -1.1704
 3817SOL     OW19164   2.495   2.575   0.576 -0.2153  1.4783 -0.4884
 3817SOL    HW119165   2.410   2.543   0.616 -0.0274  2.1471  0.4965
 3817SOL    HW219166   2.571   2.518   0.609 -0.0727  1.9653  0.0379
 3819SOL     OW19167   3.954   9.287   1.844 -0.0940  0.5910  0.0503
 3819SOL    HW119168   3.887   9.281   1.918  0.1444 -1.3696  0.1129
 3819SOL    HW219169   4.000   9.199   1.832  0.0562  0.9363 -2.2674
 3821SOL     OW19170   0.152   5.640   1.455  0.3135  0.4202 -0.1833
 3821SOL    HW119171   0.222   5.637   1.384 -0.3337  0.1479 -0.8175
 3821SOL    HW219172   0.153   5.729   1.500  0.2403  0.8473 -1.0251
 3822SOL     OW19173   2.343   3.103   1.053 -0.0209  0.5696 -0.1163
 3822SOL    HW119174   2.324   3.199   1.077  2.0390  1.5411 -2.1569
 3822SOL    HW219175   2.439   3.083   1.070 -0.2206 -0.8641 -0.6237
 3823SOL     OW19176   8.655   1.518   2.343  0.3730 -0.0705 -0.2431
 3823SOL    HW119177   8.641   1.523   2.244  0.9603  0.2666 -0.3118
 3823SOL    HW219178   8.679   1.609   2.378  0.3712 -0.2297  0.1751
 3825SOL     OW19179   3.307   7.888   2.030  0.4558  0.3625  0.4494
 3825SOL    HW119180   3.339   7.922   2.119 -1.2231  0.7160  0.9562
 3825SOL    HW219181   3.265   7.964   1.979 -0.9082 -0.3633  0.4604
 3826SOL     OW19182   1.514   3.848   1.138 -0.2837 -0.7076  0.0196
 3826SOL    HW119183   1.419   3.871   1.161 -0.9758 -0.5215 -2.8401
 3826SOL    HW219184   1.520   3.752   1.113 -0.0519 -0.3703 -1.2957
 3827SOL     OW19185   1.624   4.061   1.818 -0.1082 -0.4511 -0.2862
 3827SOL    HW119186   1.649   3.984   1.759 -2.0149 -1.1218 -0.2492
 3827SOL    HW219187   1.531   4.090   1.797  0.2004  1.1409  0.4735
 3828SOL     OW19188   2.537   4.983   1.470 -0.7907  0.0191  0.3139
 3828SOL    HW119189   2.553   5.018   1.562  1.3158 -0.3854  0.1166
 3828SOL    HW219190   2.581   5.042   1.403  1.1785 -1.9015 -0.1433
 3830SOL     OW19191   3.929   4.925   1.412 -0.2065  0.3066  0.3840
 3830SOL    HW119192   3.873   5.000   1.375  1.0626  1.1587  0.1783
 3830SOL    HW219193   4.020   4.928   1.372  0.9428  0.7446  2.9787
 3832SOL     OW19194   3.438   0.495   1.904 -0.4624 -0.4150  0.4434
 3832SOL    HW119195   3.362   0.548   1.942  0.0931  0.2159  0.7088
 3832SOL    HW219196   3.453   0.521   1.809  0.6559  0.9127  0.9509
 3834SOL     OW19197   9.428   4.910   1.678  0.3409  0.3472 -0.1632
 3834SOL    HW119198   9.433   4.968   1.597 -2.9312  0.4853 -0.3232
 3834SOL    HW219199   9.408   4.965   1.759 -1.7589 -0.4040 -0.1504
 3835SOL     OW19200   3.210   4.570   2.308  0.0663 -0.2102  0.1126
 3835SOL    HW119201   3.174   4.571   2.401  1.6119 -0.5749  0.7315
 3835SOL    HW219202   3.226   4.664   2.278  1.3685 -0.1520  0.9468
 3836SOL     OW19203   0.401   4.513   1.899 -0.0674  0.5512  0.6019
 3836SOL    HW119204   0.438   4.587   1.842 -0.9337 -0.8473 -1.8399
 3836SOL    HW219205   0.463   4.435   1.895  0.0849  0.5867  1.9767
 3837SOL     OW19206   0.772  -0.054   2.263 -0.4178 -0.1652  0.2540
 3837SOL    HW119207   0.680  -0.092   2.257 -0.4770 -0.2048  1.3024
 3837SOL    HW219208   0.782   0.020   2.197 -0.8459 -0.8871 -0.6302
 3838SOL     OW19209   9.259   2.661   1.087  0.2104 -0.2171 -0.4787
 3838SOL    HW119210   9.285   2.619   1.174  0.4988  1.4532  0.2750
 3838SOL    HW219211   9.339   2.665   1.027  0.8309  1.5410  0.4245
 3839SOL     OW19212   0.157   9.803   1.257  0.3204  0.0142 -0.3582
 3839SOL    HW119213   0.225   9.871   1.228  0.6157 -0.5059 -0.8992
 3839SOL    HW219214   0.186   9.762   1.343 -0.1074  0.9226  0.2287
 3840SOL     OW19215   3.147   2.072   2.329  0.0118  0.3818  0.1299
 3840SOL    HW119216   3.145   1.972   2.325  0.9369  0.3699 -0.3321
 3840SOL    HW219217   3.055   2.107   2.345 -0.1385 -0.5891  1.4915
 3842SOL     OW19218   3.478   2.719   1.890  0.0642  0.1402  0.4336
 3842SOL    HW119219   3.473   2.726   1.990  1.8043 -0.3751  0.5745
 3842SOL    HW219220   3.431   2.797   1.849  2.5148  2.3773  1.7221
 3844SOL     OW19221   3.245   4.016   1.691  0.3109  0.2041 -0.8102
 3844SOL    HW119222   3.330   3.963   1.696 -0.1220 -0.4394 -0.3141
 3844SOL    HW219223   3.255   4.088   1.622  1.6296  0.7793 -0.0510
 3845SOL     OW19224   1.564   8.181   1.803 -0.1307  0.1948  0.2231
 3845SOL    HW119225   1.496   8.116   1.769  0.4618  0.2580 -1.1007
 3845SOL    HW219226   1.582   8.251   1.734  0.4160  0.8561  1.0191
 3846SOL     OW19227   0.478   6.084   1.816  0.2538 -0.1539  0.1828
 3846SOL    HW119228   0.455   6.123   1.727  0.5135 -0.4179  0.0020
 3846SOL    HW219229   0.394   6.076   1.870  0.0397 -0.3354 -0.1708
 3847SOL     OW19230   3.311   7.447   0.813 -0.1532  0.0532 -0.0669
 3847SOL    HW119231   3.264   7.436   0.726 -1.5360  2.5779  0.2873
 3847SOL    HW219232   3.409   7.463   0.797 -0.6311  1.9382 -1.2702
 3849SOL     OW19233   9.204   7.752   0.463 -0.3519  0.5273  0.3021
 3849SOL    HW119234   9.160   7.842   0.470 -0.4942  0.6599 -1.9190
 3849SOL    HW219235   9.246   7.729   0.550  1.2997  3.6064  0.3798
 3850SOL     OW19236   2.394   6.346   1.029 -0.1254  0.0568 -0.1358
 3850SOL    HW119237   2.448   6.419   1.070 -1.2196  0.2699  0.9507
 3850SOL    HW219238   2.450   6.263   1.021  0.6188  0.5334  0.1552
 3851SOL     OW19239   2.898   7.885   1.959  0.3048  0.3207  0.1818
 3851SOL    HW119240   2.822   7.840   2.006 -0.0521  1.0836  0.3466
 3851SOL    HW219241   2.928   7.964   2.013 -1.4877  2.4749 -1.8169
 3852SOL     OW19242   0.346   7.947   1.041  0.2843  0.3316  0.9099
 3852SOL    HW119243   0.255   7.987   1.034 -0.0862 -0.4080  1.3644
 3852SOL    HW219244   0.355   7.873   0.975  0.5597  0.4131  0.8568
 3853SOL     OW19245   2.592   6.112   1.445 -0.6954 -0.5327 -0.3743
 3853SOL    HW119246   2.643   6.032   1.415  1.8128  0.2596  1.6308
 3853SOL    HW219247   2.618   6.191   1.390  0.0660 -0.1962  0.4491
 3855SOL     OW19248   0.430   3.741   1.013  0.0783 -0.0553  0.1433
 3855SOL    HW119249   0.480   3.673   0.959  1.5514 -0.2165  1.6493
 3855SOL    HW219250   0.332   3.726   1.002  0.2733  1.1621 -3.9892
 3856SOL     OW19251   1.105   0.393   1.085  0.3918 -0.0577  0.3241
 3856SOL    HW119252   1.180   0.457   1.101  0.3891 -0.0170  0.1713
 3856SOL    HW219253   1.080   0.395   0.989  0.4400 -0.3400  0.3049
 3857SOL     OW19254   2.559   1.925   2.051 -0.3639  0.2930 -0.3624
 3857SOL    HW119255   2.596   2.011   2.085  0.2290  0.2095 -0.7906
 3857SOL    HW219256   2.551   1.860   2.126  0.6536  0.2079 -0.3216
 3858SOL     OW19257   3.227   4.915   1.542 -0.0174 -0.8171 -0.3856
 3858SOL    HW119258   3.326   4.921   1.528 -0.0770  1.5747  0.1058
 3858SOL    HW219259   3.179   4.934   1.456 -0.0892  0.1876 -0.1274
 3859SOL     OW19260   2.417   5.502   0.557  0.0543  0.5164  0.2839
 3859SOL    HW119261   2.319   5.520   0.552 -0.1801 -0.6723  0.6081
 3859SOL    HW219262   2.435   5.405   0.542  1.2548  0.8516 -0.5909
 3861SOL     OW19263   4.351   0.183   0.714 -0.0987  0.2451  0.0931
 3861SOL    HW119264   4.335   0.126   0.634  2.6610 -0.8494  0.2518
 3861SOL    HW219265   4.287   0.158   0.786 -0.4580 -1.0343 -0.6465
 3862SOL     OW19266   0.491   9.218   1.764  0.1799 -0.2397  0.7287
 3862SOL    HW119267   0.401   9.175   1.766 -0.6383  1.4115  0.7785
 3862SOL    HW219268   0.481   9.315   1.786  1.7182  0.3613 -1.0914
 3864SOL     OW19269   9.055   9.367   1.412  0.1572  0.1354 -0.0471
 3864SOL    HW119270   9.123   9.299   1.384 -0.8596 -0.8524 -0.1511
 3864SOL    HW219271   9.076   9.455   1.368  1.2074 -0.2292 -0.2838
 3865SOL     OW19272   4.312   4.860   0.790 -0.3592  0.2135 -0.3651
 3865SOL    HW119273   4.387   4.856   0.856 -1.5127 -0.5760  0.9148
 3865SOL    HW219274   4.315   4.779   0.731  0.9446  1.1407 -1.6283
 3867SOL     OW19275   2.358   7.586   0.786 -0.1176  0.1316  0.3983
 3867SOL    HW119276   2.326   7.566   0.879  0.2253 -0.7208  0.3340
 3867SOL    HW219277   2.290   7.553   0.720 -0.5991  1.1867  0.3533
 3868SOL     OW19278   1.041   1.520   1.259 -0.0565  0.2022 -0.5224
 3868SOL    HW119279   1.127   1.538   1.211  0.8232 -0.6324  0.7302
 3868SOL    HW219280   1.053   1.535   1.357 -0.9719 -1.2179 -0.1717
 3869SOL     OW19281   2.272   3.031   0.342  0.0289 -0.5028 -0.7530
 3869SOL    HW119282   2.262   3.085   0.426  0.7613 -1.4266 -0.0728
 3869SOL    HW219283   2.368   3.013   0.326 -0.1640 -0.9184 -1.4337
 3870SOL     OW19284   0.549   6.010   1.241 -0.2366 -0.0686 -0.2612
 3870SOL    HW119285   0.489   6.089   1.254  0.8473  0.9116 -1.1266
 3870SOL    HW219286   0.567   5.998   1.143 -0.8730 -1.7609 -0.1909
 3872SOL     OW19287   8.897   8.682   1.880 -0.3396  0.3802 -0.1296
 3872SOL    HW119288   8.846   8.632   1.810 -0.2953  0.3956 -0.1723
 3872SOL    HW219289   8.991   8.648   1.884 -0.0446  1.0893 -0.8011
 3873SOL     OW19290   3.302   5.565   0.779  0.7740 -0.4044  0.1133
 3873SOL    HW119291   3.243   5.484   0.782 -0.4627  0.4624 -0.6647
 3873SOL    HW219292   3.346   5.576   0.868 -0.6415 -0.7729  0.8817
 3874SOL     OW19293   1.638   9.404   1.055 -0.4161  0.5637 -0.1933
 3874SOL    HW119294   1.639   9.410   1.155 -1.0589  0.7121 -0.1934
 3874SOL    HW219295   1.672   9.314   1.027 -1.1754  0.1369  0.2048
 3875SOL     OW19296   0.445   4.926   0.743  0.1590 -0.2470 -0.0128
 3875SOL    HW119297   0.531   4.884   0.772  0.1338  0.3816  0.9893
 3875SOL    HW219298   0.400   4.867   0.677 -0.1235 -2.0677  1.7507
 3876SOL     OW19299   7.669   0.555   1.651  0.1988 -0.1151  0.5053
 3876SOL    HW119300   7.613   0.551   1.568  1.0750  0.2316 -0.1094
 3876SOL    HW219301   7.766   0.548   1.627  0.6190  2.3589  1.2549
 3877SOL     OW19302   1.462   3.366   1.332 -0.6314 -0.5316 -0.0052
 3877SOL    HW119303   1.382   3.414   1.298 -1.3741 -2.1555 -0.5880
 3877SOL    HW219304   1.444   3.268   1.335  1.2398 -0.8993  0.1004
 3878SOL     OW19305   3.119   4.023   0.740  0.3204  0.2323  0.1796
 3878SOL    HW119306   3.102   4.019   0.838 -0.7156  0.6789  0.0300
 3878SOL    HW219307   3.058   3.959   0.693  1.6491 -0.8744 -0.0863
 3879SOL     OW19308   1.781   6.752   1.913 -0.4200 -0.0656 -0.1313
 3879SOL    HW119309   1.877   6.727   1.924  0.0580  0.7655 -2.2732
 3879SOL    HW219310   1.762   6.837   1.961  0.0059 -0.0157 -0.0536
 3880SOL     OW19311   1.319   5.773   0.384 -0.2890  0.0979 -0.1342
 3880SOL    HW119312   1.323   5.872   0.372  0.0899  0.0560 -0.3480
 3880SOL    HW219313   1.408   5.733   0.363 -0.4750 -0.3003 -0.1718
 3881SOL     OW19314   0.276   1.398   2.124 -0.1949 -0.4614 -0.6873
 3881SOL    HW119315   0.208   1.464   2.155  1.1401  0.9550 -0.6949
 3881SOL    HW219316   0.304   1.341   2.201  2.0152  2.0617  0.4634
 3882SOL     OW19317   8.762   1.522   1.721  0.4970 -0.0938 -0.4719
 3882SOL    HW119318   8.785   1.587   1.792  1.1541 -0.1429 -0.6419
 3882SOL    HW219319   8.701   1.452   1.758 -0.4581  0.7821 -0.3651
 3883SOL     OW19320   1.087   2.729   0.964 -0.0306  0.0659 -0.4312
 3883SOL    HW119321   1.048   2.731   0.873  2.2558 -0.3127 -1.4557
 3883SOL    HW219322   1.187   2.723   0.958  0.1965  0.5957  2.0863
 3887SOL     OW19323   1.071   3.055   0.858 -0.0521  0.2042  0.2198
 3887SOL    HW119324   0.985   3.106   0.852 -0.9511 -1.2689  0.2104
 3887SOL    HW219325   1.065   2.973   0.801  0.9711 -0.4614  1.0469
 3891SOL     OW19326   0.193   1.868   0.986  0.2174  0.1420  0.3920
 3891SOL    HW119327   0.288   1.838   0.971 -0.0026  0.0489 -0.8523
 3891SOL    HW219328   0.138   1.845   0.906 -1.1065 -0.7812  1.5449
 3892SOL     OW19329   3.606   1.929   0.790 -0.0569 -0.2064 -0.0294
 3892SOL    HW119330   3.658   2.008   0.822  1.2689 -1.1510  0.1959
 3892SOL    HW219331   3.607   1.857   0.861 -0.4563 -0.7817 -0.6014
 3893SOL     OW19332   8.831   6.548   1.711  0.3984 -0.4999 -0.1317
 3893SOL    HW119333   8.767   6.567   1.636  0.4270 -2.1768 -0.6038
 3893SOL    HW219334   8.921   6.586   1.688 -0.1018  0.7462 -0.0404
 3895SOL     OW19335   3.648   1.671   0.405  0.6391  0.2240  0.0772
 3895SOL    HW119336   3.724   1.662   0.469  1.8659  2.0834 -1.0837
 3895SOL    HW219337   3.580   1.734   0.443 -0.0283 -0.9232  0.8179
 3896SOL     OW19338   2.476   4.761   1.873 -0.0811 -0.1965  0.1661
 3896SOL    HW119339   2.540   4.794   1.943 -1.5150  1.7715  0.6131
 3896SOL    HW219340   2.421   4.687   1.910  0.0852 -0.0665  0.6746
 3897SOL     OW19341   4.411   9.225   1.331 -0.2757 -0.2835 -0.2110
 3897SOL    HW119342   4.340   9.275   1.280  1.9926  2.2621 -1.0041
 3897SOL    HW219343   4.428   9.271   1.418  0.2245 -0.9924  0.0664
 3898SOL     OW19344   9.267   2.592   2.090 -0.0499 -0.1858  0.1919
 3898SOL    HW119345   9.332   2.605   2.016  1.9471 -3.8003  1.1658
 3898SOL    HW219346   9.185   2.548   2.055  1.1596 -2.5021  0.1482
 3899SOL     OW19347   0.528   7.568   0.669 -0.4543 -0.4230  0.2108
 3899SOL    HW119348   0.541   7.480   0.623 -1.8090 -0.8308  0.5896
 3899SOL    HW219349   0.616   7.600   0.706  0.6892 -0.0600 -2.6745
 3901SOL     OW19350   2.024   7.648   1.128  0.2807  0.0208  0.2634
 3901SOL    HW119351   1.968   7.653   1.045  1.1994  1.7053 -0.2934
 3901SOL    HW219352   1.991   7.715   1.194 -0.0965 -0.9327  1.0533
 3902SOL     OW19353   3.692   9.791   1.659 -0.3423  0.4305 -0.5050
 3902SOL    HW119354   3.692   9.873   1.602 -0.8792  1.0447  0.3619
 3902SOL    HW219355   3.761   9.727   1.626 -0.6248  0.7920 -1.8128
 3903SOL     OW19356   8.474   0.452   1.343  0.3305 -1.2144  0.2362
 3903SOL    HW119357   8.459   0.529   1.405  0.8800 -2.3118  1.7694
 3903SOL    HW219358   8.426   0.469   1.257 -1.0956 -0.0024  1.2271
 3904SOL     OW19359   3.785   2.154   0.910 -0.0674 -0.3445  0.9000
 3904SOL    HW119360   3.838   2.230   0.872 -0.4799 -0.1047  0.7997
 3904SOL    HW219361   3.845   2.076   0.927  0.7330  0.6854  2.9284
 3905SOL     OW19362   2.808   0.816   0.967 -0.3225 -0.0423  0.8333
 3905SOL    HW119363   2.718   0.781   0.995 -1.1995  2.4110  1.1562
 3905SOL    HW219364   2.833   0.894   1.024  2.3781 -1.1214  1.2274
 3906SOL     OW19365   3.732   3.034   0.945  0.4594 -0.0559 -0.1625
 3906SOL    HW119366   3.808   2.998   0.890  2.4494  1.2695  1.6178
 3906SOL    HW219367   3.731   3.133   0.939  0.1861  0.0530  1.5266
 3908SOL     OW19368   1.822   1.049   2.068  0.3581  0.2005 -0.6359
 3908SOL    HW119369   1.724   1.036   2.054  0.0030  1.6384  0.3546
 3908SOL    HW219370   1.837   1.108   2.148  2.0414 -0.3660 -0.5105
 3909SOL     OW19371   2.340   5.195   1.811 -0.0727  0.0549 -0.0250
 3909SOL    HW119372   2.430   5.155   1.792 -1.3984 -2.5067 -1.1810
 3909SOL    HW219373   2.337   5.229   1.905  2.3743  0.9841 -0.2542
 3910SOL     OW19374   9.607   6.729   0.916 -0.3491  0.4353  0.1964
 3910SOL    HW119375   9.703   6.755   0.917  0.0024 -0.7592 -0.6642
 3910SOL    HW219376   9.579   6.704   1.008  0.4584 -0.1845  0.2862
 3912SOL     OW19377   2.105   0.550   1.865 -0.2820 -0.6742 -0.3431
 3912SOL    HW119378   2.129   0.487   1.791 -0.5834 -0.7140 -0.4111
 3912SOL    HW219379   2.170   0.625   1.869  0.8881 -1.7149  0.6205
 3913SOL     OW19380   0.342   2.052   2.015 -0.1273  0.0186 -0.1823
 3913SOL    HW119381   0.418   2.114   2.033 -1.5247  1.5021  0.7035
 3913SOL    HW219382   0.273   2.063   2.086 -0.5994 -2.2460 -0.2552
 3914SOL     OW19383   0.175   2.559   0.801  0.1138  0.5271  0.2298
 3914SOL    HW119384   0.156   2.538   0.705 -2.3384  0.5553  0.7010
 3914SOL    HW219385   0.090   2.581   0.848  1.0062 -1.5992  2.9335
 3915SOL     OW19386   3.757   1.424   0.712  0.2502 -0.3000 -0.4016
 3915SOL    HW119387   3.682   1.431   0.777 -0.5458 -0.2355 -1.3128
 3915SOL    HW219388   3.722   1.390   0.624  1.6712 -2.4663 -0.1667
 3916SOL     OW19389   2.714   1.456   1.385 -0.5081  0.3346 -0.4374
 3916SOL    HW119390   2.719   1.494   1.478  0.7338  1.5238 -0.9804
 3916SOL    HW219391   2.677   1.526   1.323 -0.7710 -0.2583 -0.9464
 3918SOL     OW19392   8.054   0.642   1.046  0.4662 -0.4667  0.1120
 3918SOL    HW119393   8.026   0.726   1.093  0.2539 -1.2095  1.3444
 3918SOL    HW219394   8.086   0.664   0.954  0.9226  1.0313  0.6135
 3919SOL     OW19395   9.293   4.850   0.727  0.3103 -0.2014  0.0754
 3919SOL    HW119396   9.293   4.830   0.825 -0.5722  0.4376  0.2102
 3919SOL    HW219397   9.213   4.906   0.704  1.6462  1.4478 -0.6455
 3920SOL     OW19398   0.118   1.251   1.645 -0.9168  0.1386 -0.3027
 3920SOL    HW119399   0.114   1.349   1.625 -2.4397  0.1575  0.0584
 3920SOL    HW219400   0.070   1.232   1.730  0.1348 -0.8107  0.0818
 3921SOL     OW19401   2.170  -0.084   0.691  0.0544  0.4146  0.9106
 3921SOL    HW119402   2.100  -0.017   0.665 -0.4757 -0.9669 -1.3740
 3921SOL    HW219403   2.131  -0.176   0.687  1.8957 -0.3562 -0.0419
 3922SOL     OW19404   8.832   0.563   1.952 -0.4488 -0.1681  0.0263
 3922SOL    HW119405   8.858   0.658   1.932 -1.9786  0.0751 -0.9185
 3922SOL    HW219406   8.833   0.549   2.051 -0.0135  0.7732  0.1627
 3923SOL     OW19407   3.318   2.888   1.724 -0.0857 -0.2722 -0.3365
 3923SOL    HW119408   3.328   2.987   1.716  2.3991 -0.3611  1.3001
 3923SOL    HW219409   3.375   2.843   1.655  0.2097 -0.5701  0.0963
 3924SOL     OW19410   1.235   3.018   1.879 -0.1653  0.0823  0.5725
 3924SOL    HW119411   1.153   2.963   1.866  1.2993 -2.1459  0.5366
 3924SOL    HW219412   1.284   2.985   1.960  1.4970  0.3747 -0.3036
 3925SOL     OW19413   3.392   8.228   1.297 -0.1621 -0.2693  0.5271
 3925SOL    HW119414   3.400   8.327   1.285 -0.2114 -0.3219  0.0381
 3925SOL    HW219415   3.330   8.208   1.372 -0.5522  0.0640  0.2940
 3926SOL     OW19416   1.096   1.115   1.926 -0.2649  0.3432 -0.7245
 3926SOL    HW119417   1.158   1.042   1.900 -1.5700 -1.1605  0.2649
 3926SOL    HW219418   1.148   1.197   1.949  1.3352 -0.8340 -0.0850
 3929SOL     OW19419   0.921   0.225   2.270 -0.2923 -0.6814  0.1174
 3929SOL    HW119420   0.885   0.262   2.184 -1.7921 -2.5491 -0.1113
 3929SOL    HW219421   0.916   0.295   2.341 -0.1706  0.5074 -1.0197
 3930SOL     OW19422   0.180   7.923   1.670 -0.3651  0.4075 -0.3613
 3930SOL    HW119423   0.258   7.970   1.712 -0.0292 -0.5090  0.0439
 3930SOL    HW219424   0.208   7.832   1.640 -1.5580 -0.3677  0.8020
 3931SOL     OW19425   8.357   8.571   1.587  0.1513 -0.4495 -0.1327
 3931SOL    HW119426   8.409   8.489   1.564  1.0790  0.8389 -2.8629
 3931SOL    HW219427   8.384   8.603   1.678  3.5906 -0.2936 -1.1220
 3932SOL     OW19428   9.414   3.235   0.707  0.0675  0.0134  0.6265
 3932SOL    HW119429   9.390   3.138   0.698 -1.7561  0.1095  3.5682
 3932SOL    HW219430   9.374   3.286   0.632 -0.3486 -1.3112 -0.0717
 3934SOL     OW19431   8.879   6.844   1.650  0.1306  0.1538  0.3966
 3934SOL    HW119432   8.840   6.883   1.733 -0.3689  0.1150  0.1799
 3934SOL    HW219433   8.841   6.889   1.569  0.0302 -0.3359  0.1646
 3935SOL     OW19434   8.295   1.982   1.132 -0.1262  0.0607  0.5509
 3935SOL    HW119435   8.289   2.078   1.158  0.9636  0.2283  0.2141
 3935SOL    HW219436   8.298   1.925   1.214  0.1829  0.3720  0.7554
 3936SOL     OW19437   1.517   5.446   0.518 -0.3423 -0.5232 -0.2981
 3936SOL    HW119438   1.542   5.459   0.614 -0.1852 -0.4838 -0.3438
 3936SOL    HW219439   1.494   5.535   0.478 -0.2649 -0.5204 -0.3361
 3937SOL     OW19440   9.227   8.727   1.636  0.0007  0.5659 -0.1989
 3937SOL    HW119441   9.236   8.823   1.611 -0.3150  0.0204 -2.5136
 3937SOL    HW219442   9.259   8.669   1.560  0.2059 -1.1505  1.1629
 3939SOL     OW19443   8.062   9.032   0.665  0.3427  0.4327 -0.3705
 3939SOL    HW119444   8.152   9.027   0.708  0.4457  0.3050 -0.6000
 3939SOL    HW219445   8.069   8.997   0.571  0.0238  0.2859 -0.3386
 3940SOL     OW19446   1.494   6.885   0.379 -0.3947  0.6147 -0.3671
 3940SOL    HW119447   1.567   6.818   0.396  0.3037  1.6849  0.9951
 3940SOL    HW219448   1.523   6.948   0.307 -0.3947  0.4217 -0.5363
 3941SOL     OW19449   4.035   4.752   2.127  0.2899  1.0551  0.0149
 3941SOL    HW119450   4.056   4.810   2.049 -0.1572  0.5248 -0.5012
 3941SOL    HW219451   4.095   4.672   2.126 -0.7755  0.2578 -0.6634
 3942SOL     OW19452   2.044   9.164   1.040 -0.1086 -0.2086 -0.4981
 3942SOL    HW119453   2.107   9.216   0.982  0.9376 -0.9591 -0.0451
 3942SOL    HW219454   2.056   9.066   1.024 -1.3480 -0.3528 -0.5977
 3943SOL     OW19455   8.316   1.700   2.268  0.1148  0.5002  0.0510
 3943SOL    HW119456   8.301   1.648   2.184  1.1994  1.7000 -0.8954
 3943SOL    HW219457   8.270   1.653   2.344 -0.3845 -0.9053 -1.0846
 3944SOL     OW19458   3.226   0.279   2.077  0.4323 -0.1748  0.8488
 3944SOL    HW119459   3.153   0.222   2.116  0.2434  0.2976  1.1856
 3944SOL    HW219460   3.309   0.224   2.066 -0.8442 -1.5458 -2.4092
 3946SOL     OW19461   9.017   9.543   1.880  0.4870  0.1986  0.2821
 3946SOL    HW119462   8.942   9.504   1.934  0.4606 -1.0617 -0.6348
 3946SOL    HW219463   9.055   9.622   1.928 -2.3010  1.6894  0.1666
 3947SOL     OW19464   3.562   1.731   0.973  0.3367  0.3056 -0.0480
 3947SOL    HW119465   3.633   1.681   1.022 -3.2805 -3.2810  1.8788
 3947SOL    HW219466   3.524   1.802   1.033  2.0419  2.0895 -1.0093
 3948SOL     OW19467   3.987   4.151   0.744  0.2120 -0.0560  0.1482
 3948SOL    HW119468   4.084   4.167   0.765  0.5505 -0.4936 -1.0854
 3948SOL    HW219469   3.940   4.239   0.737  0.5603  0.1641  0.5342
 3949SOL     OW19470   9.020   2.546   0.374 -0.5729  0.1073 -0.0857
 3949SOL    HW119471   9.078   2.585   0.446  1.3178 -0.6689 -1.1260
 3949SOL    HW219472   8.945   2.495   0.415  0.4891 -0.3351  1.3620
 3952SOL     OW19473   2.288   3.350   1.938 -0.2595  0.4688  0.6468
 3952SOL    HW119474   2.225   3.388   1.870 -0.0725 -0.6867 -0.1788
 3952SOL    HW219475   2.365   3.307   1.892  1.1468  1.8407  1.6483
 3954SOL     OW19476   0.532   7.675   1.140 -0.1048 -0.3024  0.5426
 3954SOL    HW119477   0.438   7.655   1.168  0.2941 -0.3879  1.8731
 3954SOL    HW219478   0.595   7.638   1.208  0.8528  0.5539  0.1267
 3955SOL     OW19479   8.105   0.059   1.578 -0.1205 -0.2265 -0.3619
 3955SOL    HW119480   8.091   0.158   1.585  0.7055 -0.0347 -1.2863
 3955SOL    HW219481   8.026   0.016   1.535  0.4703  0.3423 -2.0590
 3956SOL     OW19482   0.873   4.397   0.889 -0.3092 -1.1620 -0.0552
 3956SOL    HW119483   0.775   4.378   0.900 -0.2175 -1.4216  0.3046
 3956SOL    HW219484   0.909   4.340   0.814 -0.9635  0.7284 -1.8636
 3957SOL     OW19485   3.982   2.158   0.379 -0.5307 -0.3404  0.0996
 3957SOL    HW119486   3.915   2.213   0.430  0.0365  0.8385 -0.3937
 3957SOL    HW219487   4.036   2.219   0.321  0.4572 -1.3837 -0.0730
 3958SOL     OW19488   2.335   8.366   1.952 -0.3071 -0.1698  0.4143
 3958SOL    HW119489   2.431   8.385   1.970 -0.0028  0.4323 -1.7231
 3958SOL    HW219490   2.279   8.403   2.027  0.8034  3.1012 -0.2808
 3961SOL     OW19491   0.104   5.348   1.055  0.1481  0.0840 -0.0827
 3961SOL    HW119492   0.047   5.396   1.121 -1.1017 -0.9381 -0.3921
 3961SOL    HW219493   0.157   5.277   1.101  0.8037  0.7092  0.1297
 3962SOL     OW19494   0.821   5.694   0.510 -0.0344  0.0085 -0.1118
 3962SOL    HW119495   0.806   5.706   0.608  0.1543 -1.4792  0.1137
 3962SOL    HW219496   0.917   5.675   0.493  0.1540  1.4656 -0.7205
 3963SOL     OW19497   2.547   3.309   1.764  0.8509 -0.0809 -0.0317
 3963SOL    HW119498   2.491   3.293   1.683 -0.8409  0.6092  0.9740
 3963SOL    HW219499   2.597   3.225   1.787 -0.6470 -1.0437 -0.2792
 3964SOL     OW19500   9.706   2.338   2.033 -0.1008 -0.3459 -0.5521
 3964SOL    HW119501   9.634   2.268   2.037 -0.2163 -0.2852 -1.4676
 3964SOL    HW219502   9.740   2.345   1.940  0.0688  0.6668 -0.4184
 3965SOL     OW19503   1.941   5.924   1.113 -0.6089 -0.3937  0.1035
 3965SOL    HW119504   1.875   5.888   1.180 -0.0845  0.3964  1.0560
 3965SOL    HW219505   1.936   6.024   1.113  0.5893 -0.3329  0.1849
 3966SOL     OW19506   1.449   2.788   0.609 -0.1619  0.5719 -0.2056
 3966SOL    HW119507   1.465   2.854   0.536 -1.0238  0.8453 -0.1430
 3966SOL    HW219508   1.371   2.730   0.586  0.1729  0.0130  0.0501
 3969SOL     OW19509   7.658   9.674   0.704  0.1010 -0.3345 -0.1796
 3969SOL    HW119510   7.757   9.681   0.715  0.0875 -0.4533  0.0153
 3969SOL    HW219511   7.618   9.634   0.786  0.1046 -2.1671 -1.0451
 3970SOL     OW19512   2.501   1.719   0.411 -0.0420  0.0727  0.2132
 3970SOL    HW119513   2.504   1.775   0.494 -3.3215  1.1921 -0.3817
 3970SOL    HW219514   2.460   1.630   0.433  0.3289 -0.1422  0.0450
 3975SOL     OW19515   2.164   5.760   2.158 -0.3194 -0.8013 -0.4132
 3975SOL    HW119516   2.191   5.674   2.114  2.5589  0.6898 -1.7007
 3975SOL    HW219517   2.223   5.775   2.238 -1.7728 -0.7015  0.6532
 3976SOL     OW19518   2.765   6.584   0.763  0.6838  0.2557 -0.3359
 3976SOL    HW119519   2.665   6.587   0.761  0.6812  0.5372  0.0941
 3976SOL    HW219520   2.799   6.646   0.834  1.2319  1.3573 -1.5300
 3977SOL     OW19521   2.537   5.970   1.871  0.4399 -0.2889  0.0900
 3977SOL    HW119522   2.439   5.981   1.886  0.5295 -0.3213  0.7196
 3977SOL    HW219523   2.557   5.876   1.844  0.3720 -0.4563  0.6125
 3978SOL     OW19524   3.234   0.187   1.338  0.2405 -0.0862 -0.3953
 3978SOL    HW119525   3.165   0.115   1.339  1.0517 -0.8799  0.6618
 3978SOL    HW219526   3.261   0.207   1.244 -1.0106 -0.1594 -0.7757
 3982SOL     OW19527   2.099   8.784   0.340 -0.4072 -0.3381 -0.1444
 3982SOL    HW119528   2.120   8.851   0.269 -0.4055 -1.2831 -1.0582
 3982SOL    HW219529   2.027   8.819   0.399  0.5855  1.0518  0.2612
 3983SOL     OW19530   8.459   9.084   1.445 -0.5947  0.3020 -0.5987
 3983SOL    HW119531   8.363   9.079   1.474 -0.0746 -0.6324  1.0390
 3983SOL    HW219532   8.478   9.012   1.379 -0.5643 -0.7355  0.5184
 3984SOL     OW19533   0.822   5.987   2.219 -0.1105  0.0869 -0.0792
 3984SOL    HW119534   0.847   6.073   2.174 -0.8104  0.7454  0.7625
 3984SOL    HW219535   0.769   6.007   2.301  0.4562 -1.1329  0.5944
 3985SOL     OW19536   8.749   1.599   1.200  0.1541 -0.0351 -0.0594
 3985SOL    HW119537   8.780   1.548   1.120 -0.5446 -1.6562  0.6907
 3985SOL    HW219538   8.737   1.537   1.278  2.1304  1.7330  1.7089
 3986SOL     OW19539   1.260   5.299   2.137 -0.1793 -0.3885 -0.0450
 3986SOL    HW119540   1.290   5.324   2.229  0.2392 -1.0188 -0.0111
 3986SOL    HW219541   1.202   5.372   2.101  0.4074  0.2940  0.3545
 3988SOL     OW19542   3.450   4.291   0.768  0.6515  0.2217 -0.2182
 3988SOL    HW119543   3.499   4.271   0.682  0.4761  1.1519 -0.5424
 3988SOL    HW219544   3.485   4.232   0.840 -0.8100 -2.2403 -1.4480
 3989SOL     OW19545   0.357   3.650   0.487 -0.2400 -0.2103 -0.2945
 3989SOL    HW119546   0.299   3.660   0.407 -0.5411  0.1549 -0.0299
 3989SOL    HW219547   0.367   3.738   0.533  0.9801 -0.1435 -0.6502
 3991SOL     OW19548   0.270   4.266   2.291 -0.4327  0.3899  0.6572
 3991SOL    HW119549   0.231   4.296   2.378  1.9976  2.2016  1.1844
 3991SOL    HW219550   0.318   4.179   2.304 -1.4111 -0.1454  0.7473
 3992SOL     OW19551   9.451   0.799   0.905 -0.5192  0.9847 -0.5893
 3992SOL    HW119552   9.543   0.840   0.901  0.3356 -0.9003 -0.5446
 3992SOL    HW219553   9.458   0.703   0.932 -2.4256  0.5062 -1.7245
 3993SOL     OW19554   9.571   5.723   1.282  0.4680 -0.0608 -0.7129
 3993SOL    HW119555   9.567   5.666   1.364 -0.3808 -1.4421 -1.7001
 3993SOL    HW219556   9.590   5.818   1.309 -1.0264 -0.2644  1.1855
 3994SOL     OW19557   9.689   4.951   1.159  0.0407  0.0570  0.0805
 3994SOL    HW119558   9.729   4.874   1.208  1.1210  0.3014 -0.4039
 3994SOL    HW219559   9.761   5.000   1.109 -0.8972  0.3544 -1.0040
 3995SOL     OW19560   2.969   2.552   0.884  0.6395  0.5630 -0.3015
 3995SOL    HW119561   3.025   2.543   0.801  1.0939 -0.6364  0.1136
 3995SOL    HW219562   3.029   2.551   0.964  0.1356  0.7855  0.0783
 3997SOL     OW19563   4.452   9.378   0.434 -0.3924 -0.4431  0.0035
 3997SOL    HW119564   4.392   9.456   0.418 -0.2558 -0.2911  0.2351
 3997SOL    HW219565   4.398   9.302   0.470 -0.8794 -1.1243 -2.1181
 3998SOL     OW19566   9.179   5.897   1.098 -0.4315 -0.3110  0.6994
 3998SOL    HW119567   9.249   5.966   1.115  0.1240 -0.5636 -0.4979
 3998SOL    HW219568   9.150   5.857   1.184  0.1891  0.4974  1.2880
 3999SOL     OW19569   9.423   9.263   1.410  0.1395  0.2444  0.4533
 3999SOL    HW119570   9.371   9.193   1.362  2.4905 -0.8197 -0.6045
 3999SOL    HW219571   9.427   9.346   1.354  2.2459 -0.7452 -0.9097
 4000SOL     OW19572   0.929   9.749   0.821  0.2054  0.2350 -0.1891
 4000SOL    HW119573   1.001   9.750   0.890  0.0079  0.0604  0.0214
 4000SOL    HW219574   0.840   9.761   0.865 -0.2675 -3.3438  0.0173
 4001SOL     OW19575   0.886   1.730   1.091  0.3795  0.0719  0.0934
 4001SOL    HW119576   0.925   1.655   1.144  2.3865 -0.2766 -1.8060
 4001SOL    HW219577   0.813   1.694   1.032  1.2211 -0.3849 -0.6886
 4003SOL     OW19578   9.526   3.246   2.251  0.3276 -0.1186 -0.2341
 4003SOL    HW119579   9.458   3.314   2.224  0.8211  0.3715 -0.2471
 4003SOL    HW219580   9.540   3.181   2.177  1.9579  1.4445 -1.3284
 4005SOL     OW19581   9.642   1.209   1.906 -0.1013 -0.2289 -0.1966
 4005SOL    HW119582   9.642   1.276   1.979 -0.3046  0.3602 -0.7362
 4005SOL    HW219583   9.547   1.188   1.881 -0.0421 -0.8053  0.0464
 4006SOL     OW19584   3.001   4.039   1.240 -0.2065  0.2887 -0.5955
 4006SOL    HW119585   2.967   3.945   1.233 -0.0403  0.0429  1.6687
 4006SOL    HW219586   2.971   4.091   1.159 -0.6628 -1.5739 -1.6556
 4007SOL     OW19587   0.572   7.217   2.293  0.7062  0.3892  0.1764
 4007SOL    HW119588   0.507   7.293   2.298  0.6545  0.3480  0.1225
 4007SOL    HW219589   0.665   7.253   2.304  0.5997  0.3143  1.4666
 4008SOL     OW19590   8.501   2.859   0.761 -0.0699  0.1679 -0.4440
 4008SOL    HW119591   8.526   2.943   0.809  1.1237  0.4680 -1.5613
 4008SOL    HW219592   8.436   2.807   0.817 -0.3670  1.5392  0.5170
 4009SOL     OW19593   0.397   0.494   1.714  0.5096  0.5185  0.3861
 4009SOL    HW119594   0.358   0.483   1.623  1.2689 -0.9403  0.2256
 4009SOL    HW219595   0.495   0.514   1.706  0.0568  3.0374  0.8173
 4010SOL     OW19596   0.468   7.305   1.216  0.1730 -0.0634 -0.4650
 4010SOL    HW119597   0.500   7.399   1.231  1.0818 -0.6877  1.7395
 4010SOL    HW219598   0.465   7.257   1.304 -0.1489 -2.1344 -1.5907
 4012SOL     OW19599   0.941   7.964   1.022  0.2867  0.6905  0.2711
 4012SOL    HW119600   0.842   7.950   1.025  0.4229 -0.6918 -1.1981
 4012SOL    HW219601   0.960   8.062   1.020 -1.1702  0.9773 -1.6395
 4013SOL     OW19602   3.372   1.408   0.621  0.3434  0.4321  0.1900
 4013SOL    HW119603   3.395   1.311   0.613 -0.9837  0.1043  0.2303
 4013SOL    HW219604   3.428   1.449   0.693  0.2849 -0.5064  0.7857
 4014SOL     OW19605   3.036   2.715   1.195  0.1699  0.6399 -0.0652
 4014SOL    HW119606   3.024   2.718   1.295 -2.1420  3.2219 -0.3661
 4014SOL    HW219607   3.128   2.747   1.172 -0.3189  2.9342  1.0866
 4015SOL     OW19608   9.839   5.813   1.740  0.6718 -0.2177 -0.3086
 4015SOL    HW119609   9.826   5.904   1.779  0.1292 -0.9250  1.1860
 4015SOL    HW219610   9.830   5.818   1.641  2.1811  1.6305 -0.3878
 4016SOL     OW19611   9.304   9.630   0.608  0.3102 -0.3937 -0.3273
 4016SOL    HW119612   9.398   9.657   0.586  0.3745  0.1868  0.6529
 4016SOL    HW219613   9.247   9.712   0.617 -0.0918 -0.7032 -0.0222
 4017SOL     OW19614   9.633   9.375   0.818  0.7553 -0.3666  0.2752
 4017SOL    HW119615   9.608   9.382   0.915  0.3215  0.5396  0.1043
 4017SOL    HW219616   9.677   9.459   0.789  0.2343 -0.3528 -0.4994
 4018SOL     OW19617   3.486   8.098   1.978  0.6108 -0.0044 -0.3382
 4018SOL    HW119618   3.480   8.018   2.039 -0.3623  0.1254 -0.2472
 4018SOL    HW219619   3.538   8.074   1.896 -0.1237 -0.9044 -0.5554
 4019SOL     OW19620   4.268   1.900   2.303  0.1246 -0.0307 -0.0926
 4019SOL    HW119621   4.249   1.998   2.310 -0.1282 -0.2011  1.6713
 4019SOL    HW219622   4.360   1.881   2.338 -0.3139 -0.5984  0.7500
 4020SOL     OW19623   3.078   8.415   0.636 -0.2013  0.1093 -0.1221
 4020SOL    HW119624   3.018   8.415   0.716  1.6169  0.1891  1.2712
 4020SOL    HW219625   3.089   8.322   0.602 -0.8475  0.0553 -0.1901
 4021SOL     OW19626   1.057   6.427   1.863  0.0899 -0.3327 -0.2190
 4021SOL    HW119627   1.087   6.381   1.779 -1.3869 -1.4584 -0.1567
 4021SOL    HW219628   0.980   6.487   1.843  0.5199  0.3309  0.1163
 4022SOL     OW19629   9.291   5.225   1.499 -0.0547 -0.1394 -0.4465
 4022SOL    HW119630   9.347   5.304   1.476 -0.8122  0.4613 -0.2316
 4022SOL    HW219631   9.347   5.142   1.493  0.8549  0.4476 -0.2352
 4023SOL     OW19632   2.872   7.080   1.067 -0.3198 -0.4116  0.3451
 4023SOL    HW119633   2.808   7.047   1.137 -0.2979 -1.4559 -0.1192
 4023SOL    HW219634   2.854   7.177   1.048 -1.4804 -0.5873  0.5346
 4024SOL     OW19635   7.523   0.494   1.429 -0.6051 -0.4893  0.1923
 4024SOL    HW119636   7.446   0.522   1.372 -1.0261 -0.3624  0.8190
 4024SOL    HW219637   7.567   0.413   1.389  1.3638  1.7197 -2.2987
 4025SOL     OW19638   2.110   4.359   1.007 -0.7898  0.5031  0.2053
 4025SOL    HW119639   2.177   4.285   0.999  0.2525  1.4745 -0.1202
 4025SOL    HW219640   2.019   4.324   0.983 -0.3803 -0.7751  0.4602
 4026SOL     OW19641  -0.015   2.200   0.769 -0.1054  0.7198 -0.0306
 4026SOL    HW119642  -0.109   2.191   0.801  0.2598 -0.4210  0.7725
 4026SOL    HW219643   0.048   2.168   0.841  0.8002 -0.6291 -1.3833
 4027SOL     OW19644   0.995   6.604   0.962 -0.4068 -0.2084  0.6682
 4027SOL    HW119645   1.043   6.691   0.962  1.2285 -1.0882  1.1280
 4027SOL    HW219646   1.008   6.558   0.874 -2.4716  0.6336 -0.1110
 4028SOL     OW19647   2.412   7.486   1.754 -0.4658  0.3895  0.6023
 4028SOL    HW119648   2.331   7.476   1.813 -0.1762 -0.1065  0.9163
 4028SOL    HW219649   2.485   7.531   1.806 -0.5617  0.9137  0.2931
 4029SOL     OW19650   8.422   9.722   0.967 -0.6779  0.1880 -0.6292
 4029SOL    HW119651   8.392   9.817   0.963 -1.5907 -0.0056  1.2602
 4029SOL    HW219652   8.416   9.689   1.061  2.3380 -0.8684 -0.7432
 4030SOL     OW19653   7.764   0.596   0.687  0.4920 -0.7578  0.4451
 4030SOL    HW119654   7.832   0.589   0.614 -0.5233 -1.0434 -0.4915
 4030SOL    HW219655   7.744   0.692   0.704 -0.8391 -0.7390 -1.1507
 4032SOL     OW19656   0.713   8.957   0.693  0.0107 -0.0364  0.3979
 4032SOL    HW119657   0.734   9.026   0.624  1.8939  0.6871  1.6687
 4032SOL    HW219658   0.791   8.945   0.754 -1.1193 -1.6577  1.5892
 4033SOL     OW19659   9.022   4.913   2.097 -0.1560 -0.4800 -0.0697
 4033SOL    HW119660   8.958   4.837   2.105 -0.5257  0.0000  1.6232
 4033SOL    HW219661   9.103   4.883   2.046 -0.5578 -1.8261  0.0650
 4034SOL     OW19662   9.169  -0.078   1.165 -0.2556  0.2438 -0.3994
 4034SOL    HW119663   9.107  -0.131   1.108 -0.0606  0.1991 -0.5678
 4034SOL    HW219664   9.130   0.013   1.180 -0.1950  0.3370 -0.8005
 4035SOL     OW19665   2.158   0.838   1.379 -0.1130 -0.4705 -0.0292
 4035SOL    HW119666   2.060   0.853   1.369  0.5357  2.8209 -2.1766
 4035SOL    HW219667   2.195   0.901   1.447  0.5751 -1.3769  0.4446
 4036SOL     OW19668   2.086   4.196   1.788  0.0639 -0.4389 -0.3224
 4036SOL    HW119669   2.034   4.223   1.870  0.1136  1.3386 -0.8608
 4036SOL    HW219670   2.087   4.271   1.723  1.7729 -1.1235 -1.1057
 4037SOL     OW19671   0.553   5.446   1.596  0.0532 -0.2842  0.6259
 4037SOL    HW119672   0.485   5.470   1.527  0.7422 -0.0665  0.0170
 4037SOL    HW219673   0.510   5.446   1.687 -1.0035 -1.2163  0.1328
 4039SOL     OW19674   1.579   9.323   0.489  0.0505 -0.5043  0.1902
 4039SOL    HW119675   1.567   9.410   0.538  0.8476 -0.7626  0.8659
 4039SOL    HW219676   1.490   9.279   0.477 -0.4773  0.8143 -0.9338
 4040SOL     OW19677   9.623   4.394   0.344 -0.0617  0.1570 -0.0160
 4040SOL    HW119678   9.705   4.412   0.289 -0.7977 -1.7688 -1.8187
 4040SOL    HW219679   9.580   4.480   0.369  1.8219  1.1586 -0.1260
 4041SOL     OW19680   2.988   1.882   1.214 -0.5325  0.1331  0.1066
 4041SOL    HW119681   3.029   1.922   1.132  0.2396  0.6895  0.7461
 4041SOL    HW219682   3.032   1.795   1.234  1.1002  1.2007  1.3630
 4042SOL     OW19683   1.348   8.332   0.900 -0.5622 -0.9671 -0.4304
 4042SOL    HW119684   1.402   8.366   0.823 -2.2169 -2.2508 -2.2062
 4042SOL    HW219685   1.282   8.402   0.928 -3.8755 -2.4663 -3.9940
 4045SOL     OW19686   2.088   2.209   1.673  0.1300  0.3686 -0.7608
 4045SOL    HW119687   2.055   2.304   1.679 -0.7040  0.0255  0.2773
 4045SOL    HW219688   2.038   2.153   1.739 -0.1208 -1.0041 -2.0988
 4046SOL     OW19689   1.020   5.174   0.433 -0.1097 -0.2646 -0.0952
 4046SOL    HW119690   1.013   5.110   0.357 -0.4339 -0.5864  0.2058
 4046SOL    HW219691   0.938   5.167   0.490  0.4053 -0.4660  0.6230
 4047SOL     OW19692   8.497   7.517   0.605  0.0099  0.4263  0.0160
 4047SOL    HW119693   8.493   7.444   0.673 -0.7749  0.1049 -0.3661
 4047SOL    HW219694   8.579   7.505   0.549 -0.0239 -0.0627  0.0668
 4049SOL     OW19695   0.044   4.775   0.433 -0.1639  0.4038 -0.6997
 4049SOL    HW119696   0.060   4.676   0.430  1.2234  0.5754  0.6507
 4049SOL    HW219697  -0.037   4.794   0.488  0.4802  0.1053  0.3666
 4051SOL     OW19698   2.767   6.689   1.301  0.1448  0.2843  0.1876
 4051SOL    HW119699   2.753   6.645   1.390 -0.0697  0.2775  0.1508
 4051SOL    HW219700   2.726   6.780   1.302  2.5257  1.3907  1.0047
 4052SOL     OW19701   4.506   4.035   1.017 -0.1271 -0.1810  0.7499
 4052SOL    HW119702   4.536   3.991   1.102 -0.0827  0.1062  0.8833
 4052SOL    HW219703   4.492   3.965   0.947 -2.1834 -0.6535  1.5877
 4053SOL     OW19704   4.107   2.369   2.116  0.3162  0.4345 -0.3720
 4053SOL    HW119705   4.068   2.282   2.146 -0.3060  0.7346 -0.3043
 4053SOL    HW219706   4.104   2.373   2.016  0.3913  0.3518 -0.3773
 4054SOL     OW19707   1.410   7.923   0.715  0.1611  0.5234 -0.0264
 4054SOL    HW119708   1.403   7.828   0.685  1.0313  0.3240  0.3747
 4054SOL    HW219709   1.486   7.967   0.669 -0.5122  1.1584 -0.5370
 4055SOL     OW19710   2.620   1.107   0.611 -0.2262  0.6984  0.0849
 4055SOL    HW119711   2.632   1.170   0.688  0.5818  0.4817  0.1349
 4055SOL    HW219712   2.619   1.013   0.645  1.3646  0.5277 -0.2971
 4056SOL     OW19713   8.556   2.488   1.173 -0.3910 -0.3074  0.3061
 4056SOL    HW119714   8.496   2.425   1.222 -2.0876  0.8331 -0.2596
 4056SOL    HW219715   8.561   2.574   1.223 -0.3286  0.0858 -0.3696
 4057SOL     OW19716   3.352   9.867   1.555 -0.4817 -0.5398  0.6828
 4057SOL    HW119717   3.420   9.795   1.549 -0.4806 -0.3215 -2.4481
 4057SOL    HW219718   3.261   9.830   1.535 -0.7527 -0.0350  0.9528
 4060SOL     OW19719   3.216   5.274   0.594 -0.0552 -0.2637 -0.2259
 4060SOL    HW119720   3.229   5.214   0.515  0.2619 -1.6248  0.8517
 4060SOL    HW219721   3.132   5.328   0.581  0.3244 -0.0261 -1.7658
 4061SOL     OW19722   2.072   8.683   0.743 -0.5107 -0.2391  0.3286
 4061SOL    HW119723   2.086   8.715   0.837  0.7409  0.4973 -0.0986
 4061SOL    HW219724   2.080   8.583   0.741  1.5856 -0.1040  0.6707
 4062SOL     OW19725   0.427   2.098   1.280 -0.2816 -0.7056  0.5055
 4062SOL    HW119726   0.450   2.145   1.365 -0.7791  0.9758 -0.2800
 4062SOL    HW219727   0.508   2.053   1.244  0.7618  1.4671  0.0765
 4063SOL     OW19728   1.275   4.051   1.891  0.2394 -0.0300  0.3529
 4063SOL    HW119729   1.206   4.091   1.951  0.6359 -0.3752  1.0524
 4063SOL    HW219730   1.334   3.991   1.945  0.1220 -0.9472 -0.5423
 4064SOL     OW19731   2.082   2.525   0.358  0.2462 -0.0518  0.3897
 4064SOL    HW119732   2.004   2.585   0.379  0.6301  0.7820 -0.5088
 4064SOL    HW219733   2.114   2.544   0.265  0.5605 -1.4629  0.2010
 4065SOL     OW19734   8.307   9.148   0.557 -0.0113  0.2867  0.3303
 4065SOL    HW119735   8.364   9.123   0.479  0.1070 -1.0901  0.8564
 4065SOL    HW219736   8.336   9.238   0.592  0.9500  0.2024 -0.2299
 4066SOL     OW19737   8.707   1.232   1.046 -0.3937 -0.1283  0.1182
 4066SOL    HW119738   8.755   1.308   1.004 -1.1923 -0.1713 -0.8786
 4066SOL    HW219739   8.718   1.236   1.145  0.6245  0.5577 -0.0241
 4067SOL     OW19740   8.316   9.885   1.309  0.6155  0.1978 -0.2471
 4067SOL    HW119741   8.237   9.926   1.263  1.2484  0.7298 -0.8770
 4067SOL    HW219742   8.305   9.893   1.408  0.7039  1.8511 -0.3606
 4068SOL     OW19743   8.532   8.334   1.567  1.2317 -0.2389 -0.4262
 4068SOL    HW119744   8.530   8.247   1.617  1.6466  0.6371  1.1722
 4068SOL    HW219745   8.607   8.333   1.501  0.9396 -1.2736 -0.7458
 4070SOL     OW19746   2.488   4.001   0.922 -0.1991 -0.3089  0.0475
 4070SOL    HW119747   2.451   3.915   0.958 -2.2855  1.4926  2.4114
 4070SOL    HW219748   2.413   4.067   0.909  1.6038  1.8568  0.2813
 4072SOL     OW19749   8.939   7.844   1.417 -0.5957 -0.2720  0.4159
 4072SOL    HW119750   8.935   7.744   1.415 -0.5407 -0.3411  2.9165
 4072SOL    HW219751   8.853   7.880   1.453 -0.5482  0.5875 -0.3184
 4073SOL     OW19752   2.768   0.577   1.897 -0.6241 -0.4644 -0.0290
 4073SOL    HW119753   2.864   0.573   1.870 -0.3036 -1.1979  1.1411
 4073SOL    HW219754   2.758   0.536   1.988 -2.2762 -1.7481 -0.7679
 4074SOL     OW19755   3.737   4.709   1.405 -0.4852 -0.0107  0.2175
 4074SOL    HW119756   3.806   4.769   1.446 -0.3712 -0.4849  0.7222
 4074SOL    HW219757   3.653   4.713   1.458 -0.5204 -0.2056  0.1759
 4075SOL     OW19758  -0.043   4.618   0.706 -0.7835 -0.0345  0.2309
 4075SOL    HW119759  -0.019   4.536   0.756 -2.1420 -0.3192  0.4442
 4075SOL    HW219760   0.009   4.696   0.741  0.8556 -0.8792 -0.2901
 4077SOL     OW19761   0.077   5.421   2.051  0.0177 -0.0075 -0.0417
 4077SOL    HW119762   0.146   5.494   2.042  1.1187 -1.1389 -1.0717
 4077SOL    HW219763  -0.005   5.447   1.999 -0.1328  1.1115  0.7399
 4078SOL     OW19764   1.160   4.354   0.785 -0.2319 -0.3470  0.0510
 4078SOL    HW119765   1.139   4.418   0.711 -0.1262 -1.0228 -0.5683
 4078SOL    HW219766   1.256   4.364   0.812 -0.5453  0.6354  0.8227
 4079SOL     OW19767   9.197   6.498   1.768 -0.1476 -0.2820  0.1991
 4079SOL    HW119768   9.156   6.553   1.696  0.1294  0.9643  0.9804
 4079SOL    HW219769   9.162   6.405   1.763  1.1945 -0.6704 -2.6381
 4080SOL     OW19770   1.113   1.603   1.519  0.0584 -0.1273 -0.3256
 4080SOL    HW119771   1.136   1.609   1.617 -0.4559  0.2039 -0.2280
 4080SOL    HW219772   1.092   1.694   1.484  0.6805 -0.1805 -0.8562
 4081SOL     OW19773   3.966   0.681   2.128  0.2152  0.5202 -0.4902
 4081SOL    HW119774   4.009   0.735   2.200 -1.4270 -1.6395  2.2277
 4081SOL    HW219775   3.868   0.702   2.124 -0.0580 -0.7499 -0.7646
 4083SOL     OW19776   2.245   9.680   0.401  0.0403  0.0907  0.3005
 4083SOL    HW119777   2.225   9.658   0.497  0.1571 -1.6991 -0.0649
 4083SOL    HW219778   2.288   9.770   0.396 -1.8576  1.1268  1.7259
 4084SOL     OW19779   1.286   6.833   1.979 -0.2071  0.3811 -0.9999
 4084SOL    HW119780   1.330   6.922   1.984 -0.2688  0.3833 -0.4313
 4084SOL    HW219781   1.353   6.763   1.954  0.0868  0.4086 -0.2981
 4085SOL     OW19782   4.144   0.289   1.984 -0.2501 -0.7696 -0.2416
 4085SOL    HW119783   4.208   0.255   1.915 -0.7776 -2.1940 -0.0550
 4085SOL    HW219784   4.056   0.242   1.974 -0.8760  0.2637  0.2998
 4086SOL     OW19785   3.638   9.097   1.192  0.0624  0.1508  0.0543
 4086SOL    HW119786   3.577   9.171   1.162  1.0324  1.3052  0.8660
 4086SOL    HW219787   3.733   9.126   1.179  0.4570 -0.6166  1.2048
 4089SOL     OW19788   1.871   0.804   1.367 -0.1178  0.1753 -0.1535
 4089SOL    HW119789   1.796   0.838   1.310  0.5965  2.2091  0.0813
 4089SOL    HW219790   1.856   0.708   1.388 -2.0715  0.2622 -1.0646
 4090SOL     OW19791   2.601   4.666   1.653  0.6573  0.1898 -0.5986
 4090SOL    HW119792   2.546   4.674   1.735  2.2475 -0.6136  0.5833
 4090SOL    HW219793   2.692   4.705   1.669  0.9353  0.1613 -2.0067
 4091SOL     OW19794   2.107   0.523   2.168 -0.5444  0.4511  0.3673
 4091SOL    HW119795   2.121   0.569   2.080  0.3566  1.0137  0.7972
 4091SOL    HW219796   2.030   0.564   2.216 -1.2715 -0.0989 -0.3141
 4092SOL     OW19797   3.803   4.198   2.047 -0.3099  0.1011  0.2259
 4092SOL    HW119798   3.831   4.151   1.964  0.5793 -0.5379  0.8729
 4092SOL    HW219799   3.880   4.254   2.081 -0.2270 -0.6572  1.3147
 4093SOL     OW19800   2.675   3.788   1.466 -0.3777 -0.1878 -0.3442
 4093SOL    HW119801   2.665   3.692   1.493 -0.0449 -0.5124 -1.3542
 4093SOL    HW219802   2.627   3.803   1.380 -1.7894  0.9373  0.6178
 4094SOL     OW19803   1.212   1.320   2.085 -0.3049  0.2030 -0.4402
 4094SOL    HW119804   1.132   1.329   2.145  0.4648 -2.6213  1.0869
 4094SOL    HW219805   1.293   1.354   2.132 -0.2633  1.3533 -1.3030
 4095SOL     OW19806   0.351   0.990   1.423  0.0167 -0.1954  0.9831
 4095SOL    HW119807   0.440   0.976   1.379 -0.4206  1.8944 -0.7079
 4095SOL    HW219808   0.360   1.059   1.495  0.0459 -1.0679  1.8204
 4096SOL     OW19809   8.294   7.674   2.215  0.1892  0.0952 -0.2189
 4096SOL    HW119810   8.311   7.634   2.305  1.6041  0.8247 -0.1447
 4096SOL    HW219811   8.288   7.601   2.146  1.9190 -0.3088  0.0412
 4097SOL     OW19812   2.025   3.364   1.381 -0.2113  0.4210 -0.2174
 4097SOL    HW119813   2.096   3.380   1.450 -0.8133  1.0155  0.2725
 4097SOL    HW219814   1.955   3.436   1.388 -0.9598 -0.2665 -0.5742
 4098SOL     OW19815   1.510   4.283   2.037 -0.0869  1.0863 -0.4704
 4098SOL    HW119816   1.472   4.263   2.127  0.4464 -1.3434 -0.7536
 4098SOL    HW219817   1.438   4.315   1.976 -0.5633  2.1168  0.6125
 4099SOL     OW19818   2.051   8.279   1.391  0.2509 -0.1884 -0.4989
 4099SOL    HW119819   2.006   8.192   1.372  0.0029 -0.1652 -0.0359
 4099SOL    HW219820   2.147   8.275   1.363  0.4631 -0.8963  0.3201
 4100SOL     OW19821   2.535   2.828   0.685 -0.5043  0.3187 -0.8317
 4100SOL    HW119822   2.480   2.813   0.766 -1.1893  0.4999 -1.2579
 4100SOL    HW219823   2.524   2.751   0.622  0.7849 -0.2860 -0.3354
 4102SOL     OW19824   2.411   4.748   0.644  0.5563 -0.4742 -0.1024
 4102SOL    HW119825   2.373   4.815   0.580 -1.6504  0.1869  1.8272
 4102SOL    HW219826   2.511   4.746   0.635  0.4203  0.8833 -2.2809
 4103SOL     OW19827   0.177   2.798   0.379 -0.7647  0.1492  0.0762
 4103SOL    HW119828   0.211   2.892   0.372  0.1760 -0.0967  1.1377
 4103SOL    HW219829   0.097   2.797   0.439  0.8685 -0.0935  2.3383
 4104SOL     OW19830   9.001   3.027   1.872  0.5572  0.3444 -0.2119
 4104SOL    HW119831   9.089   3.025   1.920  0.4447  1.6217  0.0668
 4104SOL    HW219832   8.942   2.955   1.907  1.7289 -0.9622 -0.8731
 4106SOL     OW19833   2.194   3.865   1.256  0.2921 -0.0117 -0.2146
 4106SOL    HW119834   2.225   3.931   1.187 -0.2384  1.0173  0.5246
 4106SOL    HW219835   2.103   3.831   1.231 -0.7283  1.7744  0.9169
 4108SOL     OW19836   0.886   4.280   1.930 -0.4563  0.4544  0.0398
 4108SOL    HW119837   0.852   4.359   1.879 -0.3723  1.0271  0.8472
 4108SOL    HW219838   0.905   4.205   1.867 -2.9885  0.1940 -0.4597
 4110SOL     OW19839   4.740   3.333   2.175  0.1235  0.0587  0.2619
 4110SOL    HW119840   4.779   3.250   2.215  1.8395  0.5696 -0.3131
 4110SOL    HW219841   4.751   3.331   2.076  1.3698  1.5601  0.3530
 4111SOL     OW19842   4.023   3.098   2.892  0.3317 -0.3002  0.0420
 4111SOL    HW119843   3.947   3.034   2.906 -0.1749  0.1031 -0.8373
 4111SOL    HW219844   4.077   3.069   2.813 -0.0957  0.5241 -0.5686
 4112SOL     OW19845   4.073   0.205   1.555  0.0537 -0.0156  0.2024
 4112SOL    HW119846   4.014   0.181   1.477  0.4852  0.2518 -0.2048
 4112SOL    HW219847   4.029   0.277   1.609 -1.4918 -2.0310  1.7216
 4113SOL     OW19848   0.322   1.602   1.545 -0.1599 -0.1862  0.1192
 4113SOL    HW119849   0.235   1.629   1.504 -0.6890 -1.8481  0.0857
 4113SOL    HW219850   0.306   1.565   1.636  0.3682 -1.4162 -0.2631
 4114SOL     OW19851   9.581   4.330   1.988 -0.8682 -0.0228  0.1338
 4114SOL    HW119852   9.543   4.409   1.941  0.4587 -1.5055 -3.6807
 4114SOL    HW219853   9.525   4.249   1.968  0.7407 -1.0248 -0.4926
 4115SOL     OW19854   3.406   1.653   1.578 -0.8070 -0.1933 -0.5338
 4115SOL    HW119855   3.398   1.668   1.676 -2.5799 -2.2747 -0.3387
 4115SOL    HW219856   3.497   1.684   1.547 -0.8484  2.0341  1.4181
 4116SOL     OW19857   1.425   9.461   2.283 -0.1577  0.2451  0.7687
 4116SOL    HW119858   1.484   9.460   2.201  0.1279 -1.0350  0.9802
 4116SOL    HW219859   1.482   9.465   2.365 -0.3456 -1.0328  0.9760
 4119SOL     OW19860   0.010   3.981   1.080  0.2563 -0.6859 -0.0249
 4119SOL    HW119861   0.057   3.930   1.152  0.6525 -2.1846 -1.3184
 4119SOL    HW219862  -0.087   3.988   1.103  0.8674  1.3608  2.0460
 4120SOL     OW19863   3.031   2.434   1.189 -0.4920  0.6434 -0.1755
 4120SOL    HW119864   3.069   2.525   1.173 -2.1370  1.2618 -0.7629
 4120SOL    HW219865   2.931   2.438   1.179 -0.7444 -0.8617  1.4891
 4122SOL     OW19866   1.504   4.044   2.322  0.0868 -0.0295 -0.7357
 4122SOL    HW119867   1.449   4.120   2.356  0.1285 -1.1838  2.0420
 4122SOL    HW219868   1.601   4.068   2.328  0.0561  0.2022 -1.1436
 4123SOL     OW19869   0.484   7.118   2.026 -0.5060 -0.3643 -0.1266
 4123SOL    HW119870   0.567   7.112   1.970 -0.0941  1.5248  0.2549
 4123SOL    HW219871   0.510   7.122   2.123 -0.9940  0.8069 -0.0333
 4124SOL     OW19872   1.890   4.937   1.615  0.5128 -0.1720 -0.2092
 4124SOL    HW119873   1.985   4.963   1.634 -0.2292  1.5691  1.2763
 4124SOL    HW219874   1.884   4.897   1.524  2.4633  0.8840 -0.8321
 4125SOL     OW19875   0.571   2.201   1.975  0.0382  0.3669 -0.1372
 4125SOL    HW119876   0.556   2.286   1.924 -0.9441 -0.1407 -0.7169
 4125SOL    HW219877   0.642   2.147   1.930  1.2436  1.2528  0.6989
 4126SOL     OW19878   4.281   2.550   1.143 -0.3176 -0.6148  0.1610
 4126SOL    HW119879   4.287   2.488   1.221  0.5254 -0.4345  0.2388
 4126SOL    HW219880   4.214   2.622   1.163 -0.6342 -0.9835  0.4292
 4127SOL     OW19881   9.735   6.352   0.520 -0.0739 -0.2012 -0.5276
 4127SOL    HW119882   9.692   6.296   0.590  1.0731 -0.9950 -0.4590
 4127SOL    HW219883   9.759   6.295   0.441  0.8408  0.2468 -0.5743
 4128SOL     OW19884   8.356   0.358   0.951 -0.0204  0.1404 -0.1626
 4128SOL    HW119885   8.337   0.417   1.030 -0.9640 -0.1117 -0.1880
 4128SOL    HW219886   8.287   0.374   0.881  1.0758  0.6853 -1.1307
 4131SOL     OW19887   4.425   3.672   2.259 -0.0394 -0.0588  0.3479
 4131SOL    HW119888   4.388   3.586   2.294 -0.8573  0.9548  2.0544
 4131SOL    HW219889   4.386   3.748   2.311  1.2045  1.2953 -0.6731
 4132SOL     OW19890   2.369   4.642   2.260 -0.0963  0.4076  0.0431
 4132SOL    HW119891   2.387   4.544   2.254 -2.9346 -0.1587  0.0608
 4132SOL    HW219892   2.408   4.688   2.181 -2.0910 -1.2968 -2.0003
 4133SOL     OW19893   2.650   6.721   1.742 -0.1076  0.3648  0.0063
 4133SOL    HW119894   2.722   6.750   1.805  0.3613  0.2845 -0.4922
 4133SOL    HW219895   2.567   6.773   1.762  0.2527  0.8792  0.2012
 4134SOL     OW19896   0.146   2.262   1.302 -0.7515  0.3313  0.0546
 4134SOL    HW119897   0.246   2.262   1.311 -0.8747  0.3295  1.5813
 4134SOL    HW219898   0.115   2.170   1.279 -0.3880  0.3681 -0.5920
 4136SOL     OW19899   3.443   8.836   1.753  1.0511 -0.6265 -0.0409
 4136SOL    HW119900   3.395   8.880   1.829 -0.4682  0.3972 -1.5687
 4136SOL    HW219901   3.540   8.862   1.754  1.0310 -0.5828  1.5031
 4137SOL     OW19902   9.353   5.588   1.178  0.2479 -0.2153 -0.4045
 4137SOL    HW119903   9.271   5.644   1.180 -0.1870 -0.8515 -0.0987
 4137SOL    HW219904   9.433   5.642   1.205  0.0550  0.6144 -1.4945
 4139SOL     OW19905   0.675   1.100   0.564 -0.3077 -0.0775  0.5125
 4139SOL    HW119906   0.746   1.132   0.628  1.3832  0.5942 -1.6150
 4139SOL    HW219907   0.678   1.157   0.481 -0.6195 -2.5878 -1.2746
 4140SOL     OW19908   3.804   0.293   1.393  0.1542 -0.2064  0.4774
 4140SOL    HW119909   3.847   0.242   1.318  1.0806  0.0634  0.8134
 4140SOL    HW219910   3.806   0.391   1.372 -2.5753 -0.3622 -0.6522
 4141SOL     OW19911   2.532   8.301   0.508 -0.5060 -0.0571 -0.5795
 4141SOL    HW119912   2.593   8.356   0.564 -1.5269 -0.1799  0.6787
 4141SOL    HW219913   2.482   8.361   0.445  1.0486  0.0161 -1.7813
 4142SOL     OW19914   1.007   1.338   0.824  0.3183 -0.3319 -0.1201
 4142SOL    HW119915   0.978   1.355   0.729 -2.0521 -1.3502  0.3669
 4142SOL    HW219916   0.997   1.240   0.844  0.4820 -0.0689  1.2715
 4143SOL     OW19917   4.144   9.597   2.212 -0.3267  0.4593  0.1266
 4143SOL    HW119918   4.078   9.604   2.137  1.2655 -0.7805 -1.4409
 4143SOL    HW219919   4.136   9.508   2.256 -0.3264  0.6618  0.5398
 4144SOL     OW19920   8.133   9.739   1.620  0.3455 -0.3640  0.6163
 4144SOL    HW119921   8.190   9.818   1.643 -0.6220  0.1212  1.3903
 4144SOL    HW219922   8.173   9.657   1.660  1.5897 -0.3367 -0.5594
 4145SOL     OW19923   4.520   2.720   1.081 -0.5057  0.5092  0.1694
 4145SOL    HW119924   4.601   2.662   1.091  0.4626  1.4698 -1.7611
 4145SOL    HW219925   4.438   2.664   1.094  0.4160 -1.1929 -0.9693
 4146SOL     OW19926   0.890   9.590   2.108 -0.0473  0.4075  0.7286
 4146SOL    HW119927   0.871   9.515   2.045 -1.8149 -0.3681  2.1438
 4146SOL    HW219928   0.944   9.660   2.061 -0.1510 -0.7811 -1.2225
 4147SOL     OW19929   8.838   7.877   0.441  0.1582 -0.3608  0.2062
 4147SOL    HW119930   8.854   7.961   0.391  0.5164 -0.6354 -0.1410
 4147SOL    HW219931   8.920   7.852   0.493  1.6322 -2.8122 -3.1137
 4148SOL     OW19932   9.048   5.354   0.519 -0.2039 -0.1321  0.0797
 4148SOL    HW119933   9.138   5.398   0.528  0.3287 -1.1356 -0.2159
 4148SOL    HW219934   9.016   5.366   0.425  0.1919 -0.8423 -0.1475
 4149SOL     OW19935  -0.026   8.047   1.818 -0.3269  0.3513  0.6607
 4149SOL    HW119936   0.046   8.001   1.765 -0.8048  0.9226 -0.5205
 4149SOL    HW219937  -0.109   7.993   1.816 -0.7211  0.9800 -0.2548
 4150SOL     OW19938   0.465   3.091   1.144  0.2454 -0.4369  0.0105
 4150SOL    HW119939   0.419   3.106   1.056 -3.3400 -0.9714  1.7309
 4150SOL    HW219940   0.508   3.177   1.173 -4.2562  1.7207  0.8345
 4151SOL     OW19941   2.875   5.138   1.215 -0.0487 -0.4270  0.0367
 4151SOL    HW119942   2.911   5.097   1.131  0.8690 -0.6022  0.5102
 4151SOL    HW219943   2.945   5.198   1.255 -1.2033  1.2329 -0.3937
 4152SOL     OW19944   3.061   7.245   0.489  0.6408  0.0742 -0.9510
 4152SOL    HW119945   3.075   7.201   0.578  0.4033  0.5449 -0.6784
 4152SOL    HW219946   2.978   7.209   0.446  0.3003  0.4536 -0.6080
 4153SOL     OW19947   0.323   8.697   0.517 -0.1060 -0.6932  0.1394
 4153SOL    HW119948   0.290   8.611   0.479 -0.9226 -1.4315  2.4122
 4153SOL    HW219949   0.255   8.733   0.582  1.1189  0.6264  0.7269
 4154SOL     OW19950   4.407   8.980   1.242  0.3215 -0.3708  0.4315
 4154SOL    HW119951   4.416   9.073   1.280  0.9598 -0.8742  1.5579
 4154SOL    HW219952   4.422   8.983   1.143 -2.1439  1.0865  0.0750
 4155SOL     OW19953   1.486   5.747   1.321  0.1083  0.0233 -0.4920
 4155SOL    HW119954   1.489   5.718   1.416  0.8411 -1.7487 -1.0315
 4155SOL    HW219955   1.441   5.836   1.314  1.5071  0.9202  1.6731
 4156SOL     OW19956   4.645   3.944   0.666  0.1205  0.0564  0.5070
 4156SOL    HW119957   4.644   3.902   0.576 -1.2421  0.2431  0.4326
 4156SOL    HW219958   4.699   3.888   0.729 -0.3650 -0.9655  0.0151
 4158SOL     OW19959   3.128   2.990   1.303 -0.6550 -0.2086 -0.1505
 4158SOL    HW119960   3.073   3.060   1.258  0.4455  0.2745 -0.7592
 4158SOL    HW219961   3.185   2.943   1.236  0.7499  0.2836  0.6591
 4159SOL     OW19962   8.152   8.548   0.891 -0.3249 -0.3650 -0.8869
 4159SOL    HW119963   8.120   8.502   0.974 -0.7012  0.6566 -0.4562
 4159SOL    HW219964   8.221   8.616   0.915 -1.2091  0.6771 -1.2832
 4160SOL     OW19965   2.723   5.262   0.563 -0.2555  0.8053 -0.1960
 4160SOL    HW119966   2.624   5.256   0.576 -0.3707  0.3426 -1.2464
 4160SOL    HW219967   2.763   5.314   0.638 -0.9306 -1.5436  1.8384
 4162SOL     OW19968   4.497   3.110   2.285 -0.1237  0.5144  0.0322
 4162SOL    HW119969   4.583   3.122   2.235  0.1294 -0.4772  0.2350
 4162SOL    HW219970   4.440   3.043   2.238 -0.4186  0.5080  0.3941
 4163SOL     OW19971   4.412   8.780   0.720 -0.6260 -0.1976 -0.0080
 4163SOL    HW119972   4.418   8.861   0.662  2.9476 -1.8588 -2.0997
 4163SOL    HW219973   4.371   8.705   0.668  2.3153 -1.6078 -0.3420
 4164SOL     OW19974   8.809   9.334   2.141 -0.4653  0.3545  0.0791
 4164SOL    HW119975   8.810   9.234   2.149  1.3898  0.3017 -0.5501
 4164SOL    HW219976   8.844   9.375   2.225  1.4014  0.3605 -0.6626
 4165SOL     OW19977   9.216   8.722   2.316  0.1616  0.0378  0.0473
 4165SOL    HW119978   9.122   8.687   2.312 -0.1379  0.9636 -1.3496
 4165SOL    HW219979   9.245   8.749   2.224  1.0135  1.8168  0.8283
 4166SOL     OW19980   2.924   8.870   0.432  0.0208  0.1158 -0.0875
 4166SOL    HW119981   3.023   8.868   0.421 -0.1191  0.1786 -1.4337
 4166SOL    HW219982   2.897   8.803   0.501  0.9951  0.0758  0.2587
 4167SOL     OW19983   0.198   2.218   2.206 -0.7021  0.3386 -1.0499
 4167SOL    HW119984   0.290   2.244   2.237 -0.8504 -0.9726  0.6113
 4167SOL    HW219985   0.131   2.245   2.275 -1.2938 -0.7116 -1.2012
 4168SOL     OW19986   1.368   7.885   2.165  0.1210 -0.1899 -0.6381
 4168SOL    HW119987   1.270   7.866   2.165  0.3383 -1.6625  2.2754
 4168SOL    HW219988   1.384   7.979   2.195 -0.4009  0.0434 -1.0905
 4169SOL     OW19989   9.866   5.095   1.002  0.3082 -0.1162 -0.0665
 4169SOL    HW119990   9.915   5.167   0.952 -0.0845 -0.3134 -0.7547
 4169SOL    HW219991   9.866   5.011   0.947  1.3170 -0.8405  1.0039
 4171SOL     OW19992   2.170   5.844   0.719 -0.4698 -0.6757 -0.3323
 4171SOL    HW119993   2.117   5.775   0.670 -1.0036 -0.4543 -0.0748
 4171SOL    HW219994   2.173   5.928   0.666  1.3609 -1.3280 -1.2881
 4173SOL     OW19995   9.160   3.044   2.171 -0.2207  0.0766  0.3813
 4173SOL    HW119996   9.107   3.108   2.227 -1.8075 -0.5669 -0.3501
 4173SOL    HW219997   9.158   2.954   2.213 -1.2368 -0.3566 -0.5631
 4174SOL     OW19998   2.393   6.830   1.841 -0.4194  0.2285  0.2098
 4174SOL    HW119999   2.374   6.911   1.897 -0.8394  0.0864  0.2707
 4174SOL    HW220000   2.371   6.747   1.893  0.6016  0.0566  0.3739
 4176SOL     OW20001   3.485   0.675   2.232 -0.0887  0.6567 -0.7751
 4176SOL    HW120002   3.419   0.613   2.188  0.4340 -0.8015  0.4566
 4176SOL    HW220003   3.440   0.762   2.254 -1.4281 -0.0970 -0.5019
 4177SOL     OW20004   1.349   8.994   0.807  0.0373 -0.5437  0.2266
 4177SOL    HW120005   1.429   9.049   0.784  0.5646 -1.8811 -1.1978
 4177SOL    HW220006   1.374   8.925   0.875  0.2777 -1.4098 -0.7300
 4180SOL     OW20007   8.116   1.021   1.623 -0.1892 -0.7511  0.3253
 4180SOL    HW120008   8.120   0.948   1.691 -0.7771 -1.0239  0.0672
 4180SOL    HW220009   8.184   1.004   1.551 -1.7003 -2.1245 -0.8085
 4181SOL     OW20010   2.568   3.870   1.813 -0.2688 -0.0671 -0.0745
 4181SOL    HW120011   2.518   3.839   1.894  0.3907  0.7260  0.6429
 4181SOL    HW220012   2.503   3.899   1.743 -0.8306 -0.0561  0.4457
 4184SOL     OW20013   1.538   2.179   0.532 -0.0136 -0.2192  0.3566
 4184SOL    HW120014   1.611   2.222   0.479 -0.2788  0.3845  0.4761
 4184SOL    HW220015   1.536   2.081   0.512  0.0622 -0.0444 -0.5516
 4185SOL     OW20016   8.613   8.658   1.112  0.2279  0.0638  0.3496
 4185SOL    HW120017   8.646   8.671   1.018  1.1022 -0.6412  0.5450
 4185SOL    HW220018   8.684   8.613   1.166 -0.0921  0.9046  1.4853
 4186SOL     OW20019   9.625   3.628   1.276 -0.3097 -0.2439 -0.0249
 4186SOL    HW120020   9.625   3.724   1.305 -2.0297 -0.6412  1.3133
 4186SOL    HW220021   9.597   3.622   1.180  1.4644  0.7173 -0.6282
 4188SOL     OW20022   0.891   0.399   1.805 -0.1711 -0.1743 -0.2269
 4188SOL    HW120023   0.979   0.361   1.833  0.1918  1.4491  0.8918
 4188SOL    HW220024   0.896   0.499   1.808 -1.9915 -0.0732 -0.3662
 4189SOL     OW20025   8.127   8.501   2.343  0.1902  0.2702 -0.5292
 4189SOL    HW120026   8.091   8.413   2.313 -0.8070  0.4688  0.0286
 4189SOL    HW220027   8.226   8.502   2.334  0.2246 -0.9751 -0.3738
 4190SOL     OW20028   3.080   1.102   1.871 -0.0318  0.2416  0.6052
 4190SOL    HW120029   3.127   1.017   1.897  1.1978  0.7985  0.2395
 4190SOL    HW220030   3.002   1.080   1.813  1.2771 -0.5437 -0.8960
 4191SOL     OW20031   3.579   3.903   1.981 -0.9051 -0.3530  0.1808
 4191SOL    HW120032   3.560   4.001   1.986 -0.2960 -0.1821 -0.6866
 4191SOL    HW220033   3.522   3.862   1.910 -2.1408 -0.8838  1.4557
 4192SOL     OW20034   3.078   4.500   1.552 -0.4054  0.1356 -0.2896
 4192SOL    HW120035   3.073   4.525   1.455  2.4007  0.9677 -0.2658
 4192SOL    HW220036   3.047   4.405   1.563  1.5522 -0.8059 -2.3854
 4193SOL     OW20037   0.446   2.460   0.626 -0.4029 -0.0424  0.1635
 4193SOL    HW120038   0.416   2.432   0.535  0.3094 -0.3809  0.0338
 4193SOL    HW220039   0.388   2.536   0.658 -0.8144 -0.0892 -0.4582
 4194SOL     OW20040   9.540   2.679   2.275 -0.6735 -0.1552  0.5319
 4194SOL    HW120041   9.460   2.621   2.263  0.9046 -2.5668  1.3512
 4194SOL    HW220042   9.515   2.775   2.258 -3.0812 -1.1587 -1.8268
 4195SOL     OW20043   2.410   4.974   0.451 -0.1346 -0.3408 -0.0909
 4195SOL    HW120044   2.490   4.917   0.431  0.5983  0.9580 -0.9479
 4195SOL    HW220045   2.344   4.966   0.377 -0.4822 -0.8416  0.2676
 4196SOL     OW20046   2.044   9.446   1.745 -0.4627  0.7950  0.3415
 4196SOL    HW120047   2.105   9.516   1.782 -1.6054  2.2848 -0.5741
 4196SOL    HW220048   2.086   9.405   1.663  1.1276 -1.0624  2.0282
 4199SOL     OW20049   9.136   2.098   1.648  0.0333  0.4370 -0.6947
 4199SOL    HW120050   9.156   2.085   1.551 -2.2241  0.6420 -1.2272
 4199SOL    HW220051   9.139   2.009   1.695 -0.0960  0.1614 -1.2037
 4201SOL     OW20052   1.148   3.513   1.775 -0.1648 -0.0357  0.4924
 4201SOL    HW120053   1.140   3.610   1.753 -1.8282 -0.3507 -0.3705
 4201SOL    HW220054   1.176   3.462   1.693  1.0665 -0.2516  1.0324
 4204SOL     OW20055   3.301   3.393   1.170  0.2834 -0.3951  0.3145
 4204SOL    HW120056   3.304   3.305   1.218  0.9071 -0.7965 -0.4475
 4204SOL    HW220057   3.215   3.439   1.190 -0.0389 -1.1719  0.7275
 4205SOL     OW20058   9.420   5.856   0.513  0.5258  0.1000  0.2299
 4205SOL    HW120059   9.436   5.876   0.416  0.0538 -0.0114  0.1253
 4205SOL    HW220060   9.507   5.851   0.561  0.7600  0.2217 -0.1781
 4206SOL     OW20061   9.200   6.755   0.774 -0.2023 -0.6062  0.0080
 4206SOL    HW120062   9.162   6.842   0.808  1.2649 -0.0879  0.3751
 4206SOL    HW220063   9.142   6.680   0.805 -1.6298  0.2538 -0.5123
 4207SOL     OW20064   1.650   4.534   0.445  0.4655  0.3970 -0.1512
 4207SOL    HW120065   1.723   4.573   0.502  0.8636  3.4849 -2.6395
 4207SOL    HW220066   1.689   4.506   0.358 -0.6815 -1.4806 -0.0755
 4209SOL     OW20067   9.513   3.914   2.184  0.0316 -0.2294  0.2521
 4209SOL    HW120068   9.478   3.903   2.277 -0.4891  0.0280  0.0886
 4209SOL    HW220069   9.507   3.827   2.136 -1.6670  0.1296 -0.2108
 4212SOL     OW20070   0.408   4.545   0.828 -0.2351  0.8268  0.3536
 4212SOL    HW120071   0.328   4.485   0.830  0.4762 -0.1258  1.3625
 4212SOL    HW220072   0.400   4.614   0.900 -0.5320  1.2412 -0.0776
 4214SOL     OW20073   1.937   7.086   1.511 -0.0839 -0.6223  0.5300
 4214SOL    HW120074   1.842   7.098   1.537  0.2860  0.6010  1.3541
 4214SOL    HW220075   1.945   7.086   1.411 -0.8039  0.3960  0.4707
 4215SOL     OW20076   9.189   1.852   2.123  0.0836  0.1428 -0.2599
 4215SOL    HW120077   9.155   1.944   2.108  0.9074  1.0224  2.8440
 4215SOL    HW220078   9.276   1.856   2.172 -0.6919 -2.2755  1.4508
 4216SOL     OW20079   0.076   1.329   0.898 -0.0494 -0.1731 -0.1533
 4216SOL    HW120080   0.023   1.276   0.963  0.7187 -1.8285 -0.8404
 4216SOL    HW220081   0.170   1.340   0.931 -0.4961  1.7633  0.5242
 4217SOL     OW20082   9.204   2.308   1.814  0.2552  0.3044 -0.6635
 4217SOL    HW120083   9.303   2.312   1.797  0.3385 -0.7778 -0.4850
 4217SOL    HW220084   9.167   2.225   1.773 -0.2336 -0.3347  1.0332
 4218SOL     OW20085   2.612   3.066   0.567 -0.0242 -0.0820  0.2925
 4218SOL    HW120086   2.585   2.974   0.597  0.6955 -0.7131 -0.9305
 4218SOL    HW220087   2.568   3.086   0.480  0.4666  0.4065  0.1579
 4219SOL     OW20088   9.779   2.762   0.517 -0.1250  0.3024  0.6083
 4219SOL    HW120089   9.805   2.666   0.520  1.3102  0.6673  0.2719
 4219SOL    HW220090   9.849   2.817   0.563 -0.8690  1.1951  0.6804
 4220SOL     OW20091   0.525   8.025   1.519  0.0046  0.1576 -0.3393
 4220SOL    HW120092   0.488   8.114   1.492 -0.4195  0.0080 -0.2592
 4220SOL    HW220093   0.606   8.005   1.464  1.2364  1.4509  0.9747
 4221SOL     OW20094   9.086   8.346   1.453  0.3199  0.0911 -0.1378
 4221SOL    HW120095   9.018   8.285   1.494  0.4339  0.3767  0.4807
 4221SOL    HW220096   9.129   8.401   1.524  2.2631 -1.1369 -0.3358
 4222SOL     OW20097   8.924   8.271   2.347 -0.7362  0.4404 -0.3135
 4222SOL    HW120098   8.952   8.257   2.252  1.5161  1.7514  0.1436
 4222SOL    HW220099   8.892   8.184   2.385 -0.2122 -0.4168 -1.7854
 4223SOL     OW20100   3.611   1.312   0.401 -0.1480  0.2760 -0.3842
 4223SOL    HW120101   3.705   1.330   0.373  0.8003  0.8460  3.0051
 4223SOL    HW220102   3.553   1.391   0.380  0.1477  0.0425 -2.1824
 4225SOL     OW20103   3.251   7.626   0.413  0.5618 -0.5457  0.3472
 4225SOL    HW120104   3.193   7.576   0.477 -2.5695  3.7548  1.0893
 4225SOL    HW220105   3.339   7.646   0.456  0.2978 -1.8527  1.5091
 4226SOL     OW20106   4.194   1.461   0.961 -0.3753  0.0491  0.1640
 4226SOL    HW120107   4.137   1.478   0.881 -0.9516 -0.9426  0.3592
 4226SOL    HW220108   4.147   1.493   1.043 -0.9116 -1.2714  0.3888
 4228SOL     OW20109   0.871   7.873   2.168 -0.1459 -0.2623 -0.2395
 4228SOL    HW120110   0.814   7.939   2.119 -1.9743 -0.6149  1.3710
 4228SOL    HW220111   0.817   7.793   2.192  1.1377 -0.8103  0.9319
 4229SOL     OW20112   0.764   8.425   0.788 -0.9648  0.3962 -0.1050
 4229SOL    HW120113   0.781   8.445   0.692  0.5500  2.1160  0.4956
 4229SOL    HW220114   0.682   8.474   0.819 -2.0073 -0.9028 -0.7233
 4230SOL     OW20115   1.837   3.960   1.968 -0.1753  0.3400  0.1827
 4230SOL    HW120116   1.838   3.879   2.025 -0.5530  0.8871  0.9708
 4230SOL    HW220117   1.744   3.979   1.938  0.0659 -0.1295 -0.8849
 4232SOL     OW20118   7.856   9.427   2.140 -0.0028  0.1330 -0.4349
 4232SOL    HW120119   7.947   9.386   2.138  0.2178  0.5967  0.0327
 4232SOL    HW220120   7.789   9.361   2.107  0.3515 -0.6177  0.3219
 4233SOL     OW20121   3.367   1.666   1.885  0.4580 -0.1998  0.1971
 4233SOL    HW120122   3.465   1.683   1.892  0.4677  0.0653 -0.6335
 4233SOL    HW220123   3.317   1.735   1.937  0.6192  0.7994 -0.9760
 4235SOL     OW20124   2.906   4.659   2.178  0.2273  0.3794 -0.0953
 4235SOL    HW120125   2.939   4.578   2.226  2.0002  0.9047 -0.3816
 4235SOL    HW220126   2.895   4.734   2.243  1.8669  0.8635 -0.3524
 4236SOL     OW20127   5.182   3.008   2.239  0.3615  0.0650  0.2485
 4236SOL    HW120128   5.145   3.076   2.176 -1.3339 -0.8776  0.2064
 4236SOL    HW220129   5.266   3.043   2.280  0.7329  1.2562 -1.4759
 4237SOL     OW20130   1.232   8.767   1.546 -0.0864  0.5738  0.1430
 4237SOL    HW120131   1.151   8.826   1.550 -0.1239  0.5780 -0.7346
 4237SOL    HW220132   1.207   8.675   1.578 -0.2105  0.8237  0.7731
 4238SOL     OW20133   8.377   8.138   1.417 -0.2337  0.2170 -0.1667
 4238SOL    HW120134   8.345   8.117   1.324 -1.4749 -1.1708  0.5504
 4238SOL    HW220135   8.400   8.235   1.423 -1.7751  0.6842 -1.4603
 4239SOL     OW20136   3.112   3.306   1.608  0.8974  0.2546 -0.0952
 4239SOL    HW120137   3.045   3.366   1.652  0.7782  0.2234 -0.2340
 4239SOL    HW220138   3.068   3.219   1.585  0.9271  0.3186 -0.3934
 4241SOL     OW20139   0.325   1.542   0.515  0.3474 -0.2944  0.2202
 4241SOL    HW120140   0.247   1.523   0.575  1.3639 -0.4766  1.5007
 4241SOL    HW220141   0.315   1.634   0.477 -0.2907 -0.1552  0.6976
 4242SOL     OW20142  -0.026   0.076   1.686  0.0352 -0.2383 -0.1308
 4242SOL    HW120143  -0.123   0.099   1.682  0.0415  0.2718  2.0682
 4242SOL    HW220144   0.028   0.159   1.672  0.1782 -0.4870 -1.1399
 4243SOL     OW20145   1.392   4.644   1.069  0.2854  0.0155  0.3644
 4243SOL    HW120146   1.448   4.712   1.116  0.6319  1.1091 -1.5969
 4243SOL    HW220147   1.321   4.689   1.016  0.3158 -1.1752 -0.7125
 4244SOL     OW20148   1.228   3.866   1.182  0.4485  0.4103 -0.2497
 4244SOL    HW120149   1.223   3.777   1.136  0.8059  0.6873 -0.8314
 4244SOL    HW220150   1.216   3.854   1.280 -0.4074 -0.1791 -0.4301
 4245SOL     OW20151   1.971   1.455   1.102  0.0269 -0.1161 -0.0884
 4245SOL    HW120152   2.041   1.513   1.062  0.5124 -1.0895 -0.6609
 4245SOL    HW220153   1.893   1.511   1.130 -0.6588  0.5259 -3.1109
 4247SOL     OW20154   1.070   1.856   1.438  0.8437  0.3650  0.2925
 4247SOL    HW120155   1.056   1.910   1.521 -1.6677 -0.8897  0.7181
 4247SOL    HW220156   1.089   1.918   1.362 -0.7856  1.8046  1.0109
 4248SOL     OW20157   2.167   7.351   2.039  0.7508 -0.0422 -1.3224
 4248SOL    HW120158   2.140   7.415   1.967 -0.8807  0.3630 -0.3716
 4248SOL    HW220159   2.087   7.296   2.066  1.7847 -1.4634 -1.1017
 4249SOL     OW20160   9.170   4.321   1.683  0.1942  0.3960 -0.2840
 4249SOL    HW120161   9.181   4.245   1.747  0.8404 -0.2923 -1.2024
 4249SOL    HW220162   9.073   4.332   1.661  0.1787 -0.7980 -0.8880
 4250SOL     OW20163   8.212   0.966   2.001 -0.0086  0.1803 -0.5310
 4250SOL    HW120164   8.148   0.916   1.942  0.5842 -1.2200 -0.0159
 4250SOL    HW220165   8.161   1.030   2.058 -1.3090 -2.7277  1.6860
 4251SOL     OW20166   0.959   3.164   2.096  0.2164  0.2060 -0.2416
 4251SOL    HW120167   0.918   3.253   2.114 -0.1476  0.3136 -1.4919
 4251SOL    HW220168   0.901   3.092   2.134 -0.6011  0.4117 -1.0655
 4252SOL     OW20169   2.900   4.185   1.033  0.5006 -0.6548  0.3975
 4252SOL    HW120170   2.996   4.208   1.019  0.5243 -1.2430 -0.4619
 4252SOL    HW220171   2.859   4.248   1.100  1.9260 -1.4637  2.0685
 4253SOL     OW20172   9.352   2.456   2.308 -0.5032  0.4630 -0.2953
 4253SOL    HW120173   9.334   2.521   2.235  1.2549  1.0933 -0.1914
 4253SOL    HW220174   9.280   2.463   2.378 -0.9148  1.5171 -0.8156
 4254SOL     OW20175   3.868   9.591   1.411  0.4723  0.4948  0.2325
 4254SOL    HW120176   3.844   9.522   1.343  1.3227  0.6572 -0.2428
 4254SOL    HW220177   3.807   9.670   1.402 -0.2324 -0.0188  0.5014
 4255SOL     OW20178   1.772   6.413   0.897  0.5203 -0.2065 -0.0815
 4255SOL    HW120179   1.838   6.359   0.845  1.0756  0.1274  0.2710
 4255SOL    HW220180   1.820   6.478   0.956 -0.1025 -0.3743  0.6367
 4256SOL     OW20181   9.518   0.562   2.027 -0.1802  0.5542  0.6016
 4256SOL    HW120182   9.512   0.638   2.091  0.0614  1.3343 -0.2876
 4256SOL    HW220183   9.525   0.598   1.934 -0.0069 -0.5603  0.1811
 4259SOL     OW20184   2.119   8.018   0.589 -0.2657  0.3004  0.2219
 4259SOL    HW120185   2.074   7.974   0.666 -1.2688 -0.0230 -0.5366
 4259SOL    HW220186   2.175   7.951   0.540  0.2968  0.4824  0.6110
 4262SOL     OW20187   2.452   6.632   1.454  0.6241 -0.0892 -0.2979
 4262SOL    HW120188   2.380   6.670   1.512  1.0526  0.8027 -0.3412
 4262SOL    HW220189   2.541   6.645   1.499  0.9017  0.1081 -0.9065
 4263SOL     OW20190   3.831   4.369   0.704 -0.2479 -0.3213  0.3075
 4263SOL    HW120191   3.789   4.428   0.772  0.1294  2.7656 -2.0384
 4263SOL    HW220192   3.762   4.342   0.636  0.3331  0.1950 -0.4881
 4264SOL     OW20193   2.735   9.829   0.864 -0.1272  0.2468  0.8905
 4264SOL    HW120194   2.777   9.870   0.783 -0.9708  0.1628  0.4047
 4264SOL    HW220195   2.753   9.886   0.944  0.4060  0.5175  0.5747
 4266SOL     OW20196   3.261   8.609   0.778 -0.0375 -1.0107 -0.5770
 4266SOL    HW120197   3.237   8.532   0.719  2.8179 -0.6129 -2.3581
 4266SOL    HW220198   3.325   8.579   0.848 -0.1000 -0.5551 -0.3211
 4267SOL     OW20199   2.580   2.577   1.532 -0.0293  0.4546  0.2595
 4267SOL    HW120200   2.628   2.645   1.476 -0.7095  0.7920  0.0786
 4267SOL    HW220201   2.530   2.623   1.605 -1.1591  0.2136 -0.3595
 4268SOL     OW20202   0.641   5.973   0.982  0.6114 -0.6579 -0.0086
 4268SOL    HW120203   0.712   6.015   0.925  0.8191  0.1616  0.8398
 4268SOL    HW220204   0.673   5.884   1.014  0.3352 -1.3090 -1.4858
 4269SOL     OW20205   8.714   2.385   2.072  0.0286  0.3028  0.1328
 4269SOL    HW120206   8.767   2.367   1.989 -0.7379  1.2088 -0.5687
 4269SOL    HW220207   8.628   2.334   2.069  0.1258  0.1123  0.5083
 4271SOL     OW20208   0.746   2.016   1.853  0.1068  0.3079  0.0231
 4271SOL    HW120209   0.694   1.931   1.858  0.4069 -0.1258 -3.0192
 4271SOL    HW220210   0.844   1.995   1.860  0.2053  0.3205 -1.1599
 4272SOL     OW20211   8.683   8.385   0.437 -0.0477  0.0872  0.1092
 4272SOL    HW120212   8.624   8.414   0.362  0.3127 -1.9371 -1.0061
 4272SOL    HW220213   8.710   8.464   0.492 -2.4513  1.2455 -0.3411
 4273SOL     OW20214   8.036   1.237   1.438 -0.2389  0.5489 -0.2011
 4273SOL    HW120215   8.049   1.167   1.509 -0.7229  0.2639 -0.3882
 4273SOL    HW220216   8.025   1.326   1.481  0.1961  0.4850  0.0495
 4274SOL     OW20217   1.044   6.051   1.043  0.4094  0.1721 -0.5550
 4274SOL    HW120218   1.025   5.955   1.020  0.4128  0.5208 -2.0756
 4274SOL    HW220219   0.963   6.093   1.083  0.5662 -0.6007  0.5949
 4276SOL     OW20220   0.412   5.451   1.283  0.2571 -0.1099 -0.3130
 4276SOL    HW120221   0.379   5.366   1.242 -0.1548 -0.8521  1.4932
 4276SOL    HW220222   0.376   5.529   1.232 -2.5212 -0.9574  0.2752
 4277SOL     OW20223   0.775   8.032   0.357 -0.0454  0.0669 -0.3426
 4277SOL    HW120224   0.767   8.131   0.370  1.1811 -0.1018  1.9980
 4277SOL    HW220225   0.757   7.985   0.444 -1.8267 -1.8728 -1.6787
 4279SOL     OW20226   9.459   0.358   0.714 -0.1861 -0.1580  0.1583
 4279SOL    HW120227   9.370   0.354   0.668 -0.2074 -0.2451  0.2090
 4279SOL    HW220228   9.450   0.413   0.797 -0.3777 -0.8025  0.5708
 4280SOL     OW20229   2.358   6.043   0.556 -0.1921  0.5622  0.1989
 4280SOL    HW120230   2.376   5.985   0.635 -2.2551  0.4190  0.5993
 4280SOL    HW220231   2.317   6.129   0.586 -0.2361  0.8455 -0.6522
 4281SOL     OW20232   3.376   9.168   0.750 -0.0317  0.0587 -0.1887
 4281SOL    HW120233   3.469   9.198   0.725  0.0140  0.7763  0.7931
 4281SOL    HW220234   3.309   9.227   0.705  0.0169  0.3740  0.1521
 4282SOL     OW20235   1.802   3.107   2.175 -0.4288 -0.2734 -0.4288
 4282SOL    HW120236   1.900   3.125   2.182 -0.3663 -0.7921  0.0011
 4282SOL    HW220237   1.752   3.173   2.232 -0.2618 -0.7679  0.2883
 4283SOL     OW20238   8.605   2.625   1.422  0.3313  0.2990 -0.0694
 4283SOL    HW120239   8.668   2.677   1.365 -0.5273  0.2076 -1.1111
 4283SOL    HW220240   8.651   2.598   1.506  0.6228  3.2615  0.7799
 4284SOL     OW20241   0.039   9.367   0.402 -0.0837  0.5180 -0.3748
 4284SOL    HW120242  -0.016   9.431   0.457 -0.5497  0.1651 -0.4254
 4284SOL    HW220243   0.099   9.419   0.341 -0.9359  0.9039 -0.8906
 4285SOL     OW20244   2.291   0.606   1.375 -0.2339 -0.0949  0.3397
 4285SOL    HW120245   2.246   0.530   1.328 -0.5794  1.3337 -1.6968
 4285SOL    HW220246   2.228   0.684   1.381  1.0755  1.0302 -0.2053
 4286SOL     OW20247   2.620   1.658   1.242 -0.8078 -0.0202  0.5312
 4286SOL    HW120248   2.640   1.750   1.275 -1.6973  0.1703  0.5657
 4286SOL    HW220249   2.583   1.664   1.149 -0.4801 -0.3749  0.3770
 4287SOL     OW20250   1.244   7.559   1.662 -0.3219 -0.0189  0.2000
 4287SOL    HW120251   1.292   7.532   1.578  0.2537 -1.6237  1.0226
 4287SOL    HW220252   1.306   7.549   1.740 -1.5498 -0.7328  1.1000
 4289SOL     OW20253   0.640   7.320   0.626  0.0855 -0.4165  0.3266
 4289SOL    HW120254   0.721   7.328   0.568 -1.3674  1.9006 -1.4445
 4289SOL    HW220255   0.576   7.254   0.586 -0.9855  1.2978 -0.8277
 4290SOL     OW20256   2.435   0.376   1.279 -0.1326  0.2237 -0.3018
 4290SOL    HW120257   2.509   0.430   1.320  0.8821 -1.3937  0.0657
 4290SOL    HW220258   2.369   0.351   1.350 -0.9332  1.4851 -0.5892
 4291SOL     OW20259   1.979   3.700   1.685 -0.6675  0.3180 -0.2587
 4291SOL    HW120260   2.006   3.610   1.720  0.6235  0.9939  0.5265
 4291SOL    HW220261   2.049   3.768   1.710 -2.2985  1.8029  0.3549
 4294SOL     OW20262   1.495   5.589   1.551  0.0918  0.0958  0.3037
 4294SOL    HW120263   1.439   5.509   1.573 -0.8081  0.3823 -0.8881
 4294SOL    HW220264   1.590   5.571   1.577 -0.1604 -1.2158  0.3667
 4296SOL     OW20265   1.207   1.467   1.860  0.2915 -0.3562 -0.3627
 4296SOL    HW120266   1.215   1.419   1.947  0.1844  0.7966  0.3030
 4296SOL    HW220267   1.119   1.516   1.857  0.5608  0.1041 -0.8467
 4297SOL     OW20268   8.836   1.248   2.306  0.1089 -0.2687 -0.0907
 4297SOL    HW120269   8.866   1.154   2.319 -1.5710 -0.9077 -0.6754
 4297SOL    HW220270   8.736   1.251   2.299  0.0398  1.7333  1.3458
 4299SOL     OW20271   0.191   2.643   1.907  0.0514  0.1214  0.2539
 4299SOL    HW120272   0.174   2.558   1.956 -0.4105 -0.6373 -1.1918
 4299SOL    HW220273   0.244   2.705   1.965 -1.6284 -0.2084  2.2208
 4300SOL     OW20274   0.759   6.971   0.459  0.2200 -0.0342  0.2530
 4300SOL    HW120275   0.800   6.957   0.369  0.1360 -0.2561  0.2506
 4300SOL    HW220276   0.711   7.059   0.460 -2.3968 -1.3778 -0.9113
 4304SOL     OW20277   0.143   4.257   1.138  0.6124 -0.5796 -1.1417
 4304SOL    HW120278   0.094   4.182   1.094 -0.8610 -0.7991  0.8555
 4304SOL    HW220279   0.201   4.221   1.211 -0.6086  0.2767  0.2690
 4305SOL     OW20280   2.060   7.324   1.058 -0.0160 -0.2049 -0.0103
 4305SOL    HW120281   2.129   7.395   1.070 -0.4739  0.4309 -1.0305
 4305SOL    HW220282   2.083   7.267   0.980 -0.3010 -0.3989  0.0440
 4306SOL     OW20283   7.772   8.773   1.545 -0.0442  0.2639 -0.4548
 4306SOL    HW120284   7.852   8.754   1.487 -0.2266 -1.2783 -0.2083
 4306SOL    HW220285   7.725   8.688   1.567  0.2877  0.7604  2.3525
 4307SOL     OW20286   8.488   0.836   1.171  0.1069 -0.4972 -0.2268
 4307SOL    HW120287   8.481   0.781   1.254 -2.5802 -0.0988 -0.1362
 4307SOL    HW220288   8.518   0.777   1.095  0.9772 -1.2252  0.6731
 4308SOL     OW20289   2.226   1.070   0.743 -0.0225  0.2328  0.3946
 4308SOL    HW120290   2.290   1.147   0.745 -0.6246  0.7844 -1.2700
 4308SOL    HW220291   2.184   1.063   0.653 -1.5043 -0.8031  1.1397
 4309SOL     OW20292   3.470   1.113   1.508  0.4082  0.4824  0.0889
 4309SOL    HW120293   3.556   1.116   1.559  0.3384  0.0735  0.2297
 4309SOL    HW220294   3.437   1.206   1.494 -0.3483  0.5280  2.0913
 4310SOL     OW20295   4.308   2.182   2.266 -0.0551 -0.7665  0.0519
 4310SOL    HW120296   4.252   2.247   2.215 -0.2265 -0.7020  0.3190
 4310SOL    HW220297   4.336   2.224   2.353  0.5274 -0.7453 -0.1495
 4312SOL     OW20298   8.786   2.534   1.618 -0.4738  0.2229 -0.1066
 4312SOL    HW120299   8.794   2.454   1.677 -2.2013  0.6093  0.6744
 4312SOL    HW220300   8.847   2.524   1.540  2.7436  0.2147  2.2988
 4313SOL     OW20301   8.514   1.770   2.056  0.3297  0.4360  0.6157
 4313SOL    HW120302   8.455   1.765   2.136  2.1141  0.7022  1.9900
 4313SOL    HW220303   8.555   1.680   2.040 -0.0659  0.3714 -0.0213
 4314SOL     OW20304   8.787   2.176   0.678 -0.1004 -0.3157  0.1496
 4314SOL    HW120305   8.827   2.093   0.717  0.2347 -0.7217 -1.0266
 4314SOL    HW220306   8.688   2.164   0.668 -0.1952 -0.1874  0.9168
 4316SOL     OW20307   2.369   1.497   0.369  0.7074 -0.0358  0.1141
 4316SOL    HW120308   2.410   1.448   0.292 -1.1950 -0.4440 -0.6629
 4316SOL    HW220309   2.290   1.446   0.403  0.6335  0.8928  1.3650
 4317SOL     OW20310   9.315   1.108   0.552 -0.0918 -0.1299 -0.0037
 4317SOL    HW120311   9.379   1.178   0.585  0.8799  0.0330 -2.1542
 4317SOL    HW220312   9.267   1.068   0.630  2.9917 -0.6052  1.7385
 4319SOL     OW20313   1.366   8.586   1.336  0.3658 -0.0490 -0.0714
 4319SOL    HW120314   1.290   8.623   1.281  0.4394 -1.2987 -1.0210
 4319SOL    HW220315   1.384   8.492   1.309  0.5381 -0.6148  1.9755
 4322SOL     OW20316   9.330   4.059   1.356 -0.7333 -0.2394 -0.0217
 4322SOL    HW120317   9.425   4.088   1.347 -0.6602 -0.6230 -0.5044
 4322SOL    HW220318   9.326   3.964   1.386 -0.9552 -0.4970 -0.8457
 4323SOL     OW20319   1.727   7.815   0.369  0.0995  0.6336 -0.0151
 4323SOL    HW120320   1.659   7.832   0.298 -0.8357  0.6345  0.8738
 4323SOL    HW220321   1.794   7.889   0.370 -0.6466  1.3144 -0.0083
 4324SOL     OW20322   3.326   1.106   1.126 -0.2309  0.3122  0.0899
 4324SOL    HW120323   3.415   1.060   1.123 -0.0558  0.6063  0.6754
 4324SOL    HW220324   3.259   1.053   1.074  0.5551  0.6633 -1.2835
 4326SOL     OW20325   1.489   2.965   0.395 -0.6961  0.0296  0.9141
 4326SOL    HW120326   1.469   3.056   0.358  0.9074 -0.7539 -2.0581
 4326SOL    HW220327   1.584   2.962   0.425 -0.7224 -0.7176  0.9180
 4327SOL     OW20328   2.465   2.274   1.524  0.1931  0.2000  0.1657
 4327SOL    HW120329   2.517   2.266   1.609 -0.1166  1.3141  0.4656
 4327SOL    HW220330   2.384   2.216   1.529  0.1210  0.3466  0.6673
 4328SOL     OW20331   8.337   9.382   0.893 -0.3380  0.1060 -0.1493
 4328SOL    HW120332   8.335   9.285   0.867 -0.1967  0.1797 -0.4448
 4328SOL    HW220333   8.426   9.402   0.936 -0.4897  0.0336  0.1991
 4329SOL     OW20334   3.063   0.344   1.532  0.6132 -0.1013  0.0345
 4329SOL    HW120335   2.970   0.309   1.532 -0.3797  2.3554 -2.7360
 4329SOL    HW220336   3.119   0.292   1.467  0.5844 -0.1425  0.0433
 4330SOL     OW20337   3.857   5.113   0.970 -0.0850 -0.5412 -0.3558
 4330SOL    HW120338   3.870   5.201   1.016 -0.8154 -0.1765 -0.8377
 4330SOL    HW220339   3.944   5.083   0.931 -0.0113  0.3832 -0.9195
 4332SOL     OW20340   3.535   2.754   1.545  0.1800 -0.5801 -0.7289
 4332SOL    HW120341   3.561   2.660   1.523  1.3557 -0.5690  0.5547
 4332SOL    HW220342   3.614   2.802   1.584 -1.4027 -0.1772  2.1340
 4333SOL     OW20343   8.931   3.154   1.159  0.0960  0.2734 -0.0385
 4333SOL    HW120344   8.998   3.107   1.216 -0.0154  0.0188 -0.1211
 4333SOL    HW220345   8.958   3.250   1.149  0.8812 -0.0171 -0.7358
 4334SOL     OW20346   0.727   4.793   0.778  0.1376  0.5839  0.2138
 4334SOL    HW120347   0.676   4.721   0.731  0.2392 -0.0625  1.0749
 4334SOL    HW220348   0.761   4.758   0.865  0.8859  1.4339  0.2690
 4335SOL     OW20349   2.209   2.488   0.594  0.4117  0.1896 -0.6955
 4335SOL    HW120350   2.270   2.409   0.587  0.7413  0.5324 -1.8962
 4335SOL    HW220351   2.163   2.502   0.506 -0.1674  0.9087 -0.2809
 4336SOL     OW20352   8.389   9.638   1.228 -0.7280 -0.8030 -1.2636
 4336SOL    HW120353   8.320   9.573   1.263 -1.8265 -0.5705 -2.9339
 4336SOL    HW220354   8.365   9.730   1.258  0.2133 -0.9940  0.1599
 4337SOL     OW20355   0.674   0.063   0.495  0.2394 -0.2308 -0.6052
 4337SOL    HW120356   0.761   0.045   0.449  1.8553 -0.1670  2.2826
 4337SOL    HW220357   0.637  -0.022   0.532 -0.5777 -0.1449 -1.2116
 4339SOL     OW20358   8.452   7.813   1.551 -0.2169 -0.8454 -0.1185
 4339SOL    HW120359   8.395   7.867   1.613  1.3882  0.2605  0.4331
 4339SOL    HW220360   8.500   7.874   1.488  1.2172 -1.6765  0.1619
 4343SOL     OW20361   0.427   3.757   1.356 -0.8484 -0.5825  0.1807
 4343SOL    HW120362   0.450   3.661   1.370 -0.6528 -0.6958 -0.9175
 4343SOL    HW220363   0.496   3.799   1.297 -0.2207  0.5497  1.6780
 4344SOL     OW20364   9.671   7.669   1.457  0.1012 -0.1818 -0.0759
 4344SOL    HW120365   9.679   7.638   1.551  0.3511  0.1941  0.0240
 4344SOL    HW220366   9.627   7.758   1.454  0.8149  0.1668 -0.2611
 4345SOL     OW20367   1.171   8.838   1.170 -0.5078 -0.1996 -0.0937
 4345SOL    HW120368   1.101   8.904   1.197 -0.2902 -0.1403  0.3228
 4345SOL    HW220369   1.130   8.747   1.162 -0.9880  0.1167 -1.4627
 4346SOL     OW20370   3.971   2.941   0.836  0.1169 -0.0428 -0.3812
 4346SOL    HW120371   4.057   2.973   0.875 -0.7513  2.7974 -0.6985
 4346SOL    HW220372   3.981   2.846   0.808  2.1673 -0.7204  2.4547
 4347SOL     OW20373   8.110   0.054   0.778  0.3068 -0.0034 -0.0297
 4347SOL    HW120374   8.089   0.065   0.681  1.1478 -1.1988 -0.3619
 4347SOL    HW220375   8.026   0.034   0.828 -0.1879  1.0090 -0.4425
 4349SOL     OW20376   3.234   1.035   0.473 -0.3521 -0.0253  0.2289
 4349SOL    HW120377   3.289   1.048   0.555  0.3722  1.8905 -0.5271
 4349SOL    HW220378   3.137   1.044   0.495 -0.1515  0.6278  0.8402
 4350SOL     OW20379   9.132   2.044   0.849  0.6159  0.1852  0.1000
 4350SOL    HW120380   9.216   1.989   0.856  0.2303 -0.3886  0.2564
 4350SOL    HW220381   9.057   1.995   0.893  0.3886  1.0926  0.7218
 4352SOL     OW20382   3.801   8.952   2.077  0.2404 -0.9622  0.2373
 4352SOL    HW120383   3.772   8.995   2.163 -0.5579 -0.5626 -0.2261
 4352SOL    HW220384   3.780   9.013   2.001 -1.0713 -2.2442 -0.4571
 4353SOL     OW20385   9.803   0.439   1.988 -0.0980  0.0694  0.0655
 4353SOL    HW120386   9.874   0.432   2.058 -0.3414  1.6978  0.4898
 4353SOL    HW220387   9.719   0.396   2.021  0.7025 -2.0113 -0.5038
 4354SOL     OW20388   7.617   1.086   0.473  0.2655 -0.3731 -0.8128
 4354SOL    HW120389   7.661   1.173   0.495 -1.0125  0.5757 -1.9921
 4354SOL    HW220390   7.631   1.022   0.549 -0.3451  1.4437  0.8469
 4355SOL     OW20391   3.017   2.289   0.537  0.1864 -0.0042  0.3435
 4355SOL    HW120392   2.940   2.226   0.544  1.0466 -1.1869 -0.6246
 4355SOL    HW220393   3.034   2.310   0.441 -0.0366  1.6521  0.6592
 4356SOL     OW20394   8.626   0.535   1.749  0.2885  0.6085 -0.0162
 4356SOL    HW120395   8.694   0.560   1.818  0.1532  0.9791 -0.0120
 4356SOL    HW220396   8.660   0.555   1.658  0.3051  0.5070 -0.0319
 4357SOL     OW20397   9.785   3.996   0.349 -0.2740  0.0978 -0.2014
 4357SOL    HW120398   9.754   4.064   0.283  1.5695  2.1929  1.0295
 4357SOL    HW220399   9.755   4.023   0.441  2.6787  0.6524  0.6255
 4358SOL     OW20400   0.233   6.934   1.236 -0.4822  0.3008 -0.2201
 4358SOL    HW120401   0.237   6.959   1.140 -0.3531  1.9876  0.2160
 4358SOL    HW220402   0.326   6.927   1.272 -0.5477  0.6512  0.0220
 4360SOL     OW20403   1.617   2.055   2.117  0.2710  0.2828 -0.0179
 4360SOL    HW120404   1.620   2.154   2.101  0.6769  0.2869  0.0764
 4360SOL    HW220405   1.568   2.011   2.042 -0.0241  0.5683  0.0051
 4362SOL     OW20406   1.631   4.084   1.010 -0.5253  0.1895 -0.0072
 4362SOL    HW120407   1.608   3.997   1.055 -0.3935  0.2733  0.2225
 4362SOL    HW220408   1.569   4.155   1.042 -0.0354  0.3860  0.5114
 4363SOL     OW20409   9.483   4.565   1.897  0.6759  0.2871  0.0847
 4363SOL    HW120410   9.396   4.601   1.930 -0.0414 -0.6252 -0.8078
 4363SOL    HW220411   9.476   4.542   1.800  2.7050  2.7533 -0.7290
 4364SOL     OW20412   8.627   9.473   0.562  0.7723 -0.1149  0.2121
 4364SOL    HW120413   8.615   9.527   0.646 -1.2567  0.7937 -0.6372
 4364SOL    HW220414   8.690   9.398   0.580  0.0731 -0.1676  2.6662
 4365SOL     OW20415   9.549   0.306   2.048 -0.0465 -0.2461 -0.1316
 4365SOL    HW120416   9.513   0.253   1.970 -1.5278 -0.0655  0.4104
 4365SOL    HW220417   9.533   0.403   2.031  0.9326 -0.1065 -0.2514
 4366SOL     OW20418   3.737   3.916   0.357  0.5264  0.3885  0.0596
 4366SOL    HW120419   3.677   3.841   0.330  0.0619  0.2615  1.3745
 4366SOL    HW220420   3.788   3.890   0.439  1.6167  0.8824 -0.4564
 4367SOL     OW20421   2.921   8.175   1.152 -0.3900  0.2795 -0.0937
 4367SOL    HW120422   3.015   8.150   1.127 -0.6142 -0.9839  0.3032
 4367SOL    HW220423   2.923   8.245   1.223  0.2562 -0.2078  0.3762
 4368SOL     OW20424   0.957   6.338   2.200  0.5929  0.4608  0.0880
 4368SOL    HW120425   1.034   6.331   2.137  0.8291 -0.6380  0.4780
 4368SOL    HW220426   0.985   6.390   2.281  1.6339 -1.8268  1.2409
 4369SOL     OW20427   9.331   1.454   0.508 -0.2918  0.2348  0.1418
 4369SOL    HW120428   9.249   1.463   0.565  0.3524  0.8157  0.9815
 4369SOL    HW220429   9.364   1.544   0.483  0.1849  0.0040 -0.0629
 4370SOL     OW20430   0.929   8.720   0.365  0.6319  0.3582  0.2590
 4370SOL    HW120431   0.862   8.792   0.380  0.3968 -0.1517  1.7565
 4370SOL    HW220432   0.997   8.751   0.300  1.0293  2.2750  1.5340
 4372SOL     OW20433   0.575   8.798   1.950 -0.3195  0.1702 -0.7946
 4372SOL    HW120434   0.524   8.830   1.869 -0.4606  0.0857 -0.7403
 4372SOL    HW220435   0.666   8.769   1.922 -0.5230 -0.2881 -0.9991
 4373SOL     OW20436   9.765   5.537   1.106 -0.2576 -0.1029 -0.5864
 4373SOL    HW120437   9.843   5.530   1.168 -0.5503  1.1818 -0.0598
 4373SOL    HW220438   9.709   5.616   1.131 -1.3327 -0.5911 -1.4113
 4374SOL     OW20439   2.728   2.820   1.469  0.1592  0.5341 -0.0733
 4374SOL    HW120440   2.690   2.824   1.376 -0.1377 -0.9927 -0.0360
 4374SOL    HW220441   2.688   2.893   1.524  1.5990  2.5477 -1.5745
 4375SOL     OW20442   5.033   3.442   2.344 -0.6235 -0.5881  0.7498
 4375SOL    HW120443   4.989   3.504   2.279 -0.3165 -0.0494  1.0516
 4375SOL    HW220444   5.096   3.382   2.295 -1.0058 -0.7351  0.4385
 4376SOL     OW20445   3.606   4.400   1.359  0.0689  0.0197 -0.2436
 4376SOL    HW120446   3.575   4.467   1.426 -1.2796 -0.9894  0.1831
 4376SOL    HW220447   3.543   4.398   1.282 -1.2483 -2.3606  0.8271
 4377SOL     OW20448   8.909   7.526   0.375 -0.4882 -0.0115 -0.1274
 4377SOL    HW120449   8.914   7.616   0.421 -0.5234 -1.1877  2.2673
 4377SOL    HW220450   8.998   7.481   0.383 -1.2423 -1.3142  1.0739
 4379SOL     OW20451   9.798   0.032   0.323  0.3108  0.7875 -0.1233
 4379SOL    HW120452   9.765  -0.021   0.401  0.6403  0.0746 -0.4600
 4379SOL    HW220453   9.740   0.014   0.244 -0.2996  1.8643  0.0701
 4380SOL     OW20454   2.257   6.021   1.889  0.3170 -0.4460 -0.6634
 4380SOL    HW120455   2.261   6.081   1.809  1.2738  1.3969  0.7206
 4380SOL    HW220456   2.253   5.926   1.859  0.6613  0.2098 -2.8960
 4381SOL     OW20457  -0.031   0.149   1.380 -0.0639  0.0848 -0.2263
 4381SOL    HW120458  -0.083   0.102   1.451 -0.0971  1.8169  0.9302
 4381SOL    HW220459   0.067   0.132   1.394 -0.0324  0.8610  0.5908
 4382SOL     OW20460   7.745   0.112   0.521 -0.1301  0.0357 -0.4203
 4382SOL    HW120461   7.691   0.169   0.583 -0.4281  0.6099 -1.2078
 4382SOL    HW220462   7.692   0.030   0.497 -0.2514  0.1111 -0.4052
 4385SOL     OW20463   8.667  -0.036   0.713  0.1250  0.1326  0.1581
 4385SOL    HW120464   8.629  -0.120   0.674 -0.4033  0.1042  0.7264
 4385SOL    HW220465   8.636  -0.027   0.807  0.8802  0.5304  0.3684
 4386SOL     OW20466   1.173   7.076   1.801 -0.1992 -0.4889 -0.0930
 4386SOL    HW120467   1.262   7.031   1.811 -0.8081 -1.1853  2.6017
 4386SOL    HW220468   1.185   7.175   1.806  0.2944 -0.6218  1.5390
 4387SOL     OW20469   2.023   8.620   1.684  0.0681  0.4912 -0.2913
 4387SOL    HW120470   2.103   8.572   1.720 -0.4253  0.1276  0.3294
 4387SOL    HW220471   1.986   8.568   1.606  0.5354  0.7528 -0.6922
 4388SOL     OW20472   8.717   1.945   2.243  0.1453 -0.0400  0.2946
 4388SOL    HW120473   8.641   1.922   2.182 -0.0694  0.5907  0.3206
 4388SOL    HW220474   8.737   2.043   2.236  0.7831 -0.1551  0.4861
 4389SOL     OW20475   2.774   3.967   0.909  0.1229  0.4898 -0.4986
 4389SOL    HW120476   2.679   3.957   0.939  0.5266 -0.1041  0.5819
 4389SOL    HW220477   2.811   4.052   0.945  0.3033  0.2538 -0.1308
 4390SOL     OW20478   2.276   9.630   1.940 -0.2077  0.0662  0.0784
 4390SOL    HW120479   2.345   9.585   1.883 -0.1069 -0.8879  0.9285
 4390SOL    HW220480   2.310   9.639   2.033 -2.6736 -4.1168  1.5331
 4392SOL     OW20481   0.966   7.430   1.215 -0.6517 -0.0963  0.3710
 4392SOL    HW120482   1.044   7.488   1.238 -0.1483 -0.6439  0.0698
 4392SOL    HW220483   0.954   7.428   1.116 -1.8295  0.9882  0.4890
 4393SOL     OW20484   4.393   8.956   0.524 -0.1713 -0.1751 -0.4029
 4393SOL    HW120485   4.457   9.032   0.515 -2.6905  1.7842 -2.8263
 4393SOL    HW220486   4.432   8.875   0.481  2.2505 -0.1326  1.5772
 4394SOL     OW20487   0.706   3.070   1.738 -0.2771 -0.2539  0.2522
 4394SOL    HW120488   0.649   3.136   1.689 -0.5899  1.3102  2.6764
 4394SOL    HW220489   0.792   3.114   1.766 -0.3613 -0.9561  1.6303
 4396SOL     OW20490   8.139   8.603   0.610  0.7250  0.1934  1.0098
 4396SOL    HW120491   8.136   8.525   0.548  1.2364  0.3564  0.7815
 4396SOL    HW220492   8.120   8.573   0.703  0.2648 -0.0996  0.8238
 4397SOL     OW20493   0.861   1.352   1.545 -0.7165  0.6187 -0.3017
 4397SOL    HW120494   0.953   1.314   1.534 -0.6246  0.7459  0.0315
 4397SOL    HW220495   0.815   1.306   1.622 -0.6845  1.0359 -0.0348
 4398SOL     OW20496   3.917   1.875   1.358  0.4741  0.3175  0.3747
 4398SOL    HW120497   3.833   1.915   1.321 -1.1697 -1.9891  1.4645
 4398SOL    HW220498   3.911   1.871   1.458  1.2042 -1.2439  0.3743
 4401SOL     OW20499   1.377   0.059   2.295 -0.2929  0.2369 -0.0357
 4401SOL    HW120500   1.364   0.001   2.215 -2.8154  0.7428 -0.0525
 4401SOL    HW220501   1.358   0.007   2.378  1.0864  0.0567  0.1824
 4402SOL     OW20502   1.372   3.127   0.840 -0.2607 -0.1255  0.1067
 4402SOL    HW120503   1.283   3.085   0.860 -0.9008  0.1574 -1.9906
 4402SOL    HW220504   1.379   3.143   0.741  2.0974 -0.0795  0.2641
 4403SOL     OW20505   3.909   5.167   2.008 -0.0410  0.2411 -1.2953
 4403SOL    HW120506   3.883   5.154   2.103  1.7616  2.2637 -0.5088
 4403SOL    HW220507   3.965   5.090   1.978 -1.3962 -0.8692 -1.0409
 4404SOL     OW20508   1.763   0.489   1.384  0.5693 -0.8756  0.3389
 4404SOL    HW120509   1.851   0.480   1.431  1.0070 -3.3635 -0.8884
 4404SOL    HW220510   1.695   0.432   1.430 -0.5028  1.1601  1.3823
 4405SOL     OW20511   9.564   9.369   1.080  0.7131  0.2684 -0.3946
 4405SOL    HW120512   9.648   9.343   1.128  1.2625  0.8731 -1.0244
 4405SOL    HW220513   9.506   9.422   1.142  0.4244 -0.8334  0.2956
 4406SOL     OW20514   2.444   1.480   1.722  0.1476 -0.0054  0.3462
 4406SOL    HW120515   2.469   1.500   1.817  1.9252 -0.1371 -0.0883
 4406SOL    HW220516   2.419   1.384   1.713  1.7953 -0.4403  0.3143
 4408SOL     OW20517   2.971   1.517   1.593 -0.2218 -0.0362 -0.0229
 4408SOL    HW120518   3.029   1.538   1.672  0.9219  0.8218 -1.0891
 4408SOL    HW220519   2.876   1.510   1.624  0.0660  1.3469  1.2688
 4409SOL     OW20520   8.454   1.331   0.804  0.3009 -0.2316  0.6053
 4409SOL    HW120521   8.531   1.389   0.778  0.4318 -0.4672  0.4565
 4409SOL    HW220522   8.411   1.367   0.886  1.0483 -0.5258  1.1373
 4410SOL     OW20523   2.179   1.001   1.770  0.1569 -0.0498 -0.0072
 4410SOL    HW120524   2.265   0.989   1.721  0.0285 -0.5764 -0.1124
 4410SOL    HW220525   2.104   1.008   1.705  0.1013  0.2378  0.0887
 4411SOL     OW20526   2.227   3.864   1.737  0.4249  0.0239  0.0659
 4411SOL    HW120527   2.242   3.941   1.675  1.5046  0.7435  1.1985
 4411SOL    HW220528   2.287   3.788   1.711 -1.0093 -0.6422 -1.3682
 4412SOL     OW20529   0.745   8.319   0.374 -1.0024  0.1232 -0.4077
 4412SOL    HW120530   0.654   8.343   0.407 -1.3638 -0.1168 -1.2176
 4412SOL    HW220531   0.814   8.368   0.428 -1.6579  1.5454 -0.8193
 4413SOL     OW20532   8.908   3.996   1.665  0.1767  0.4161 -0.0959
 4413SOL    HW120533   8.881   4.082   1.708  0.2890  2.0124 -3.1010
 4413SOL    HW220534   8.827   3.942   1.644  0.0315  0.3663  0.5586
 4416SOL     OW20535   8.788   9.275   0.620  0.8460 -0.0975 -0.1388
 4416SOL    HW120536   8.749   9.203   0.562 -0.1758 -0.3028  0.7770
 4416SOL    HW220537   8.845   9.234   0.691  0.5147  0.0070  0.1935
 4417SOL     OW20538   0.199   5.419   0.773 -0.2903 -0.1950  0.3213
 4417SOL    HW120539   0.230   5.514   0.777 -2.2168  0.4297  0.8710
 4417SOL    HW220540   0.212   5.375   0.862 -0.3452 -0.1307  0.3609
 4418SOL     OW20541   1.192   6.067   0.814 -0.4853 -0.2260  0.0677
 4418SOL    HW120542   1.175   6.127   0.737  1.0328  0.6831  0.4190
 4418SOL    HW220543   1.120   6.079   0.883 -0.2774  1.0778  0.0631
 4419SOL     OW20544   0.175   4.367   0.880 -0.2823  0.4720 -0.0518
 4419SOL    HW120545   0.129   4.295   0.827 -0.5827  1.0248 -0.5406
 4419SOL    HW220546   0.173   4.342   0.977 -0.1088 -0.3320 -0.2451
 4420SOL     OW20547   4.238   2.393   0.607 -0.1419 -0.0122 -0.0713
 4420SOL    HW120548   4.314   2.450   0.575 -0.7413  0.8250 -0.0064
 4420SOL    HW220549   4.210   2.423   0.698  1.2876 -2.1273  1.1078
 4421SOL     OW20550   1.567   1.882   1.895 -0.3114  0.2300 -0.2370
 4421SOL    HW120551   1.528   1.790   1.899 -1.7663  0.8786  1.1801
 4421SOL    HW220552   1.532   1.930   1.815  0.6813 -0.5342 -1.1428
 4422SOL     OW20553   0.678   9.619   2.252 -0.1462 -0.7147 -0.6446
 4422SOL    HW120554   0.772   9.605   2.221 -0.1625 -0.5553 -0.7681
 4422SOL    HW220555   0.618   9.554   2.206 -0.1528 -0.5565 -0.8601
 4423SOL     OW20556   1.241   9.274   0.807  0.2006  0.3659 -0.2915
 4423SOL    HW120557   1.256   9.327   0.891  1.5534 -1.5347  0.7103
 4423SOL    HW220558   1.322   9.218   0.788 -0.1986  0.5520 -2.7290
 4424SOL     OW20559   0.785   1.778   1.410  0.3757 -0.1310 -0.1519
 4424SOL    HW120560   0.876   1.816   1.396 -0.1249  1.3166  0.4847
 4424SOL    HW220561   0.744   1.818   1.492 -0.0561 -2.2431  0.6884
 4425SOL     OW20562   8.844   0.830   2.336 -0.4234  0.0041 -0.0835
 4425SOL    HW120563   8.851   0.734   2.308  0.0920 -0.1671  0.6573
 4425SOL    HW220564   8.747   0.854   2.344 -0.6170  0.1659 -2.4031
 4427SOL     OW20565   8.722   6.391   0.785  0.7594 -0.0457 -0.3156
 4427SOL    HW120566   8.785   6.328   0.741 -0.0381 -1.7460  0.9139
 4427SOL    HW220567   8.770   6.441   0.857  0.7458 -1.3166  0.5976
 4428SOL     OW20568   0.333   1.915   0.635  0.3485  0.2091  0.5797
 4428SOL    HW120569   0.371   2.004   0.659  1.9252 -0.1493 -0.5859
 4428SOL    HW220570   0.399   1.843   0.657  0.6418 -0.3650 -2.0245
 4429SOL     OW20571   9.456   2.133   1.243  0.0690 -0.1439 -0.3656
 4429SOL    HW120572   9.530   2.195   1.270  0.1315 -0.4881  0.2747
 4429SOL    HW220573   9.485   2.039   1.260 -0.1525 -0.3326 -1.0257
 4430SOL     OW20574   2.445   0.675   2.286 -0.6288  0.3863 -0.1814
 4430SOL    HW120575   2.443   0.750   2.353  0.9359  0.5332 -0.2686
 4430SOL    HW220576   2.517   0.693   2.219  0.2592 -1.5553  0.2347
 4431SOL     OW20577   4.305   3.505   0.809  0.1156  0.6019 -0.3852
 4431SOL    HW120578   4.256   3.562   0.875  1.8765 -0.0294  1.5414
 4431SOL    HW220579   4.241   3.443   0.763 -0.7009 -1.6187  3.5052
 4432SOL     OW20580   0.395   2.761   0.594 -0.3691 -0.6403 -0.2889
 4432SOL    HW120581   0.375   2.756   0.496 -1.4995 -0.3146 -0.0803
 4432SOL    HW220582   0.326   2.817   0.639  0.7488  0.0871  0.5356
 4434SOL     OW20583   0.548   0.102   1.285  0.6221 -0.1215  0.0553
 4434SOL    HW120584   0.632   0.102   1.232  0.3188 -1.6436 -0.4551
 4434SOL    HW220585   0.563   0.148   1.372  1.9548 -0.3138 -0.0701
 4435SOL     OW20586   9.700  -0.027   1.283 -0.0602  0.0340  0.0154
 4435SOL    HW120587   9.671  -0.109   1.234  2.0938  0.1466 -1.5491
 4435SOL    HW220588   9.770   0.020   1.230 -1.0591  2.7520  1.0332
 4436SOL     OW20589   1.726   9.151   0.954 -0.5463  0.2483 -0.2236
 4436SOL    HW120590   1.822   9.147   0.925 -0.5177  0.8692 -0.2205
 4436SOL    HW220591   1.706   9.073   1.013  0.0065  0.2118 -0.0814
 4437SOL     OW20592   7.935   8.808   1.064  0.1520 -0.4650 -0.3314
 4437SOL    HW120593   7.975   8.720   1.038  0.8846 -1.0744  2.6153
 4437SOL    HW220594   7.912   8.860   0.982 -1.6239 -3.9802 -2.1999
 4438SOL     OW20595   8.226   1.576   2.033  0.4682 -0.1001  0.1001
 4438SOL    HW120596   8.207   1.625   1.948  0.5767 -2.6339 -1.4449
 4438SOL    HW220597   8.201   1.480   2.022  2.5255 -0.9209  2.2304
 4439SOL     OW20598  -0.068   4.268   1.335 -0.5108  0.3967 -0.4649
 4439SOL    HW120599   0.024   4.282   1.300 -0.0903  0.4567  0.6336
 4439SOL    HW220600  -0.072   4.183   1.387 -0.6538  1.1827  0.8510
 4440SOL     OW20601   0.930   2.727   2.134  0.0503 -0.1182  0.2364
 4440SOL    HW120602   0.876   2.732   2.051 -0.7298  3.0681  0.8578
 4440SOL    HW220603   0.876   2.685   2.207 -0.0756 -0.7859 -0.2354
 4441SOL     OW20604   3.970   0.149   1.244  0.2116 -0.1788 -0.5834
 4441SOL    HW120605   4.054   0.196   1.271 -0.0508  0.1612 -0.3535
 4441SOL    HW220606   3.988   0.092   1.163  0.7386 -0.3688 -0.3328
 4442SOL     OW20607   3.407   9.303   1.174  0.2053 -0.1810 -0.4364
 4442SOL    HW120608   3.444   9.371   1.111  1.1963 -0.6952 -0.4222
 4442SOL    HW220609   3.318   9.273   1.142  1.1283 -1.1646 -2.1473
 4444SOL     OW20610   8.490   8.424   0.821  0.5106 -0.6267  0.1638
 4444SOL    HW120611   8.567   8.482   0.797 -0.0084  0.4201  0.9810
 4444SOL    HW220612   8.409   8.481   0.837 -0.5525 -1.7443 -1.1349
 4445SOL     OW20613   4.182   0.484   0.568 -0.5066 -0.6069  0.5999
 4445SOL    HW120614   4.090   0.470   0.604 -0.7751  0.2755  0.2803
 4445SOL    HW220615   4.248   0.482   0.643 -0.8800 -0.3958  0.9379
 4446SOL     OW20616   1.427   7.215   0.799 -0.2027  0.3066  0.3298
 4446SOL    HW120617   1.500   7.212   0.867 -0.2674 -1.0682  0.3556
 4446SOL    HW220618   1.434   7.299   0.746  2.1053 -0.3425 -0.4491
 4447SOL     OW20619   2.774   2.822   1.784  0.5968  0.0574 -0.3195
 4447SOL    HW120620   2.867   2.790   1.769  0.2182 -0.7908 -0.9224
 4447SOL    HW220621   2.750   2.808   1.880  1.2382  0.6839 -0.0668
 4448SOL     OW20622   3.792   3.843   0.766  0.0884 -0.0428 -0.0081
 4448SOL    HW120623   3.833   3.857   0.676 -0.2780 -1.1952 -0.3570
 4448SOL    HW220624   3.803   3.926   0.821  2.4942 -0.1761 -0.2515
 4449SOL     OW20625  -0.009   9.012   0.987 -0.1548 -0.1856  0.2983
 4449SOL    HW120626  -0.029   8.938   1.051  0.3213  1.0954  1.9749
 4449SOL    HW220627  -0.088   9.073   0.982 -0.1185 -0.1779 -0.1773
 4450SOL     OW20628   4.232   3.234   1.489  0.2020  0.1194 -0.3286
 4450SOL    HW120629   4.170   3.249   1.567  2.3733 -0.0895  1.4842
 4450SOL    HW220630   4.264   3.140   1.490  2.3203  0.8246  0.0851
 4451SOL     OW20631   9.089   4.983   0.599  0.2965  0.3185 -0.0368
 4451SOL    HW120632   9.099   5.073   0.557  1.4751 -0.2554 -1.0290
 4451SOL    HW220633   8.992   4.962   0.611 -0.1133  0.2083 -3.1631
 4452SOL     OW20634   9.243   8.227   0.355 -0.2829 -0.4763 -0.2069
 4452SOL    HW120635   9.167   8.276   0.312  0.0238 -0.1385 -0.3759
 4452SOL    HW220636   9.328   8.275   0.334 -0.0540 -0.7091  0.1929
 4453SOL     OW20637   1.237   5.031   0.995 -0.0153 -0.1080 -0.0030
 4453SOL    HW120638   1.142   5.005   1.012 -0.0312  0.1696  0.3472
 4453SOL    HW220639   1.241   5.127   0.969  0.3197  0.3212  1.5546
 4455SOL     OW20640   9.256   0.965   0.828  0.4481  0.2922  0.1332
 4455SOL    HW120641   9.290   1.052   0.864  0.8325  0.6323 -1.0257
 4455SOL    HW220642   9.319   0.891   0.854  0.4638  0.4579  0.5675
 4456SOL     OW20643   0.533   6.314   0.615  0.1367  0.0531 -0.9905
 4456SOL    HW120644   0.552   6.329   0.712 -2.3371 -3.9447  0.2023
 4456SOL    HW220645   0.580   6.385   0.561 -0.6675  4.0382  3.2005
 4457SOL     OW20646   1.019   2.016   1.906 -0.2113 -0.3810  0.5653
 4457SOL    HW120647   1.086   1.947   1.878 -0.1084  0.2699 -0.8370
 4457SOL    HW220648   0.969   1.984   1.986  0.2600 -1.8127  0.2904
 4458SOL     OW20649   1.581   4.172   1.434  0.0433 -0.4556 -0.0692
 4458SOL    HW120650   1.507   4.216   1.383  1.3095  1.0973 -0.6020
 4458SOL    HW220651   1.543   4.123   1.512 -1.4453  1.3773  0.4008
 4459SOL     OW20652   3.277   3.595   0.785 -0.6032 -0.2235 -0.4111
 4459SOL    HW120653   3.312   3.673   0.735  0.2886 -0.5118 -0.2496
 4459SOL    HW220654   3.292   3.511   0.732 -0.7211 -0.3884 -0.1855
 4461SOL     OW20655   8.814   1.868   1.233  0.2019 -0.1573 -0.4240
 4461SOL    HW120656   8.776   1.926   1.161  0.4363  0.0740 -0.3624
 4461SOL    HW220657   8.780   1.774   1.223 -1.4025  0.3213  0.3972
 4462SOL     OW20658   1.947   9.451   1.020 -0.2491  0.2649  0.1186
 4462SOL    HW120659   1.919   9.357   1.039  1.3262  0.0520  1.5008
 4462SOL    HW220660   2.029   9.473   1.073  0.4303  1.8494 -1.5266
 4463SOL     OW20661   0.131   9.495   1.752 -0.5863  0.1324  0.1362
 4463SOL    HW120662   0.150   9.424   1.685 -1.7320  1.2265 -1.3545
 4463SOL    HW220663   0.040   9.533   1.737 -0.4961  1.0384  1.7179
 4464SOL     OW20664   4.751   3.284   1.870  0.1147 -0.5605  0.1842
 4464SOL    HW120665   4.692   3.206   1.846  0.1686 -0.4794 -0.2039
 4464SOL    HW220666   4.736   3.358   1.805  0.5070 -0.4696  0.1995
 4465SOL     OW20667   3.117   8.714   2.238 -0.3166  0.0343 -0.5131
 4465SOL    HW120668   3.056   8.654   2.289  0.0830  0.0854  0.0357
 4465SOL    HW220669   3.212   8.683   2.251 -0.0684  1.0320  0.1428
 4466SOL     OW20670   2.876   3.025   2.090  0.1989  0.1106 -0.5609
 4466SOL    HW120671   2.971   2.996   2.077  0.3749  0.5675 -0.3007
 4466SOL    HW220672   2.874   3.124   2.107 -0.1502 -0.2476  1.4863
 4467SOL     OW20673   0.359   8.797   2.208  0.2721 -1.0674 -0.2112
 4467SOL    HW120674   0.385   8.891   2.231 -0.0030 -0.9638 -0.3257
 4467SOL    HW220675   0.360   8.785   2.109  1.0921 -1.4111 -0.1692
 4469SOL     OW20676   9.006   6.298   1.781 -0.1958  0.3069  0.2994
 4469SOL    HW120677   9.018   6.251   1.868 -0.1472 -1.2459 -0.5227
 4469SOL    HW220678   8.910   6.324   1.770 -1.1375 -3.3856 -1.0557
 4470SOL     OW20679   1.304   1.999   1.165 -0.0843 -0.1745 -0.3189
 4470SOL    HW120680   1.334   2.065   1.096 -0.9333  0.1724 -0.3606
 4470SOL    HW220681   1.205   1.991   1.163  0.0244 -1.6167 -0.4554
 4471SOL     OW20682   9.745   6.656   1.424 -0.2261 -0.0459 -0.0821
 4471SOL    HW120683   9.779   6.732   1.368 -0.4632 -1.7552 -2.5824
 4471SOL    HW220684   9.669   6.689   1.482 -2.6087  0.9142 -3.5884
 4473SOL     OW20685   2.877   4.918   0.323  0.5340 -0.3837 -0.2603
 4473SOL    HW120686   2.805   4.857   0.289  1.7671 -1.9612 -0.1256
 4473SOL    HW220687   2.854   4.947   0.416 -1.7726  2.1985 -1.5809
 4474SOL     OW20688   9.003   7.575   1.380 -0.4984 -0.5116 -0.5226
 4474SOL    HW120689   8.964   7.488   1.351 -0.6264 -0.4422 -0.5613
 4474SOL    HW220690   9.100   7.563   1.401 -0.9766 -1.1018  1.4162
 4476SOL     OW20691   3.273  -0.097   1.021 -0.4824  0.0971  0.2053
 4476SOL    HW120692   3.325  -0.123   0.939 -0.8538 -1.2429  0.3848
 4476SOL    HW220693   3.259   0.002   1.021  0.4546  0.2423 -0.8007
 4478SOL     OW20694   3.209   3.617   1.785 -0.1263  0.5349 -0.1300
 4478SOL    HW120695   3.119   3.590   1.751  0.1821 -0.8127  0.0747
 4478SOL    HW220696   3.275   3.612   1.711  0.4054 -1.7045  0.4470
 4479SOL     OW20697   9.670   1.323   1.497  0.4396 -0.1224 -0.0411
 4479SOL    HW120698   9.588   1.275   1.528  0.0719  0.9281  0.6190
 4479SOL    HW220699   9.736   1.329   1.572  0.1766  1.0666  0.1006
 4480SOL     OW20700   0.222   0.668   1.856 -0.1313  0.3310  0.4756
 4480SOL    HW120701   0.127   0.639   1.843 -0.5279  0.4171  2.8918
 4480SOL    HW220702   0.282   0.616   1.794 -1.9189  1.6038 -2.4233
 4481SOL     OW20703   2.314   0.838   0.394  0.3959  0.0043 -0.1958
 4481SOL    HW120704   2.294   0.740   0.395  0.6913 -0.0483  1.1754
 4481SOL    HW220705   2.400   0.854   0.345  0.5381 -0.4565 -0.0960
 4482SOL     OW20706   2.694   2.177   2.207  0.2480  0.2424 -0.5707
 4482SOL    HW120707   2.636   2.250   2.243  0.4088 -0.2596  0.7012
 4482SOL    HW220708   2.742   2.210   2.125  0.0071  1.4193 -0.2442
 4483SOL     OW20709   4.296   9.879   0.334 -0.0372 -0.6803 -0.0052
 4483SOL    HW120710   4.265   9.893   0.240  0.8475 -0.4999 -0.2774
 4483SOL    HW220711   4.318   9.968   0.375  0.7696 -0.8605 -0.0461
 4484SOL     OW20712   8.752   4.376   1.087  0.3246 -0.5138  0.2330
 4484SOL    HW120713   8.771   4.461   1.136 -0.6030 -0.9621  1.3921
 4484SOL    HW220714   8.654   4.367   1.073  0.5983 -0.2778 -1.9534
 4485SOL     OW20715   1.750   3.188   0.564 -0.1727  0.2167 -0.0187
 4485SOL    HW120716   1.668   3.197   0.622  0.3399 -2.3249  1.1777
 4485SOL    HW220717   1.828   3.161   0.621  1.0383  0.6182 -1.4558
 4486SOL     OW20718   2.044   7.003   0.435  0.0883 -0.7437  0.4252
 4486SOL    HW120719   2.075   6.910   0.416  0.6795 -0.5430  0.3961
 4486SOL    HW220720   1.963   7.001   0.494 -0.0286 -1.2809  0.2419
 4487SOL     OW20721   0.328   1.720   2.224  0.3086  0.7113  0.0483
 4487SOL    HW120722   0.307   1.628   2.257 -2.5730  1.3747  0.1918
 4487SOL    HW220723   0.283   1.788   2.283 -0.3473  2.0893 -2.0018
 4488SOL     OW20724   4.002   4.427   2.070  0.5682 -0.6256  0.2366
 4488SOL    HW120725   3.963   4.486   2.141 -3.0090 -2.3204 -0.2277
 4488SOL    HW220726   3.978   4.462   1.980  0.2581 -1.6017 -0.0663
 4490SOL     OW20727   9.279   7.613   0.667 -0.2963  0.1070 -0.1200
 4490SOL    HW120728   9.284   7.549   0.590  1.2321 -1.1524  1.0054
 4490SOL    HW220729   9.357   7.599   0.728 -0.6172  2.1989  0.8169
 4492SOL     OW20730   3.738   1.410   1.194 -0.1995  0.1468  0.3605
 4492SOL    HW120731   3.651   1.362   1.197  0.2206 -0.6174  0.4946
 4492SOL    HW220732   3.803   1.358   1.138  0.4364  0.2545  0.9928
 4493SOL     OW20733   1.125   4.770   1.252  0.2952 -0.2353  0.1358
 4493SOL    HW120734   1.059   4.695   1.241  0.1825  0.2632 -2.9512
 4493SOL    HW220735   1.218   4.733   1.246  0.2448 -0.2632 -0.5253
 4494SOL     OW20736   9.302   9.494   0.868  0.0818 -0.0696  0.7603
 4494SOL    HW120737   9.308   9.549   0.784  0.9413  0.8392  1.3979
 4494SOL    HW220738   9.311   9.397   0.845  2.1408  0.2732 -0.0331
 4495SOL     OW20739   2.130   1.685   0.958  0.4434  0.1023 -0.1901
 4495SOL    HW120740   2.228   1.686   0.979  0.2830 -0.4641  0.6376
 4495SOL    HW220741   2.088   1.767   0.997  0.7230  0.7464 -1.2411
 4496SOL     OW20742   0.906   8.240   2.338 -0.0872  0.1770  0.2375
 4496SOL    HW120743   0.923   8.283   2.427 -0.9034  0.1504  0.4142
 4496SOL    HW220744   0.956   8.154   2.332 -0.4328 -0.0745  0.8775
 4497SOL     OW20745   8.757   7.658   0.863 -0.5606  0.2574  0.0363
 4497SOL    HW120746   8.665   7.634   0.892  0.3102 -1.9302  1.0936
 4497SOL    HW220747   8.817   7.664   0.943  0.2960  1.3779 -0.6724
 4498SOL     OW20748   8.439   0.816   2.128  0.1589  0.3200 -0.2230
 4498SOL    HW120749   8.365   0.855   2.074  0.0618  0.3703 -0.0547
 4498SOL    HW220750   8.435   0.716   2.125 -0.6935  0.3165  0.8376
 4499SOL     OW20751   3.422   1.379   1.933  0.1803  0.1438  0.2972
 4499SOL    HW120752   3.375   1.319   1.868  1.6605  0.2163 -0.8759
 4499SOL    HW220753   3.412   1.474   1.904 -0.9485  0.3707  1.3682
 4500SOL     OW20754   9.804   0.995   2.190  0.3995 -0.3972 -0.4051
 4500SOL    HW120755   9.879   0.930   2.197 -0.7933 -1.6821  0.8627
 4500SOL    HW220756   9.802   1.053   2.271  0.7282  0.4203 -0.9762
 4502SOL     OW20757   9.687   2.569   0.847 -0.3794  0.2744 -0.0803
 4502SOL    HW120758   9.687   2.511   0.765 -0.2582 -0.5973  0.5305
 4502SOL    HW220759   9.781   2.591   0.872 -0.3159 -1.0743  0.9401
 4503SOL     OW20760   0.100   0.480   2.234  0.3552  0.2503  0.7342
 4503SOL    HW120761   0.089   0.390   2.191 -0.0278  0.4512  0.4071
 4503SOL    HW220762   0.038   0.487   2.313 -1.1645  1.0105 -0.5099
 4505SOL     OW20763   9.886   2.051   1.833  0.1092  0.5012 -0.1208
 4505SOL    HW120764   9.948   2.123   1.863 -1.1983  1.2697  0.7958
 4505SOL    HW220765   9.874   2.056   1.734 -1.2778  2.6104  0.1374
 4507SOL     OW20766   1.771   8.362   0.648 -0.2007  0.0120  0.2151
 4507SOL    HW120767   1.779   8.416   0.733 -2.8758 -0.3952  0.7720
 4507SOL    HW220768   1.863   8.344   0.612  0.8927  2.3480  1.6482
 4511SOL     OW20769   3.255   9.551   2.136  0.7182  0.2904  0.1637
 4511SOL    HW120770   3.234   9.583   2.229  0.2930 -3.2377  1.3667
 4511SOL    HW220771   3.194   9.596   2.071 -0.6410  0.9881  1.8741
 4512SOL     OW20772   2.905   9.367   1.358 -0.6845 -0.2150 -0.4094
 4512SOL    HW120773   2.819   9.374   1.307 -0.7082 -0.1982 -0.3674
 4512SOL    HW220774   2.885   9.361   1.456 -0.7367 -2.5549 -0.5512
 4513SOL     OW20775   3.527   4.945   1.448 -0.2133 -0.0358 -0.3574
 4513SOL    HW120776   3.480   4.997   1.376  1.6729  0.4990 -1.2365
 4513SOL    HW220777   3.609   4.903   1.410  1.8493  1.8088  1.9256
 4514SOL     OW20778   7.480   9.301   0.676 -0.2456  0.2331  0.2856
 4514SOL    HW120779   7.418   9.338   0.746 -0.0004 -0.1156  0.6838
 4514SOL    HW220780   7.512   9.376   0.619 -0.0058  0.6017  0.8962
 4516SOL     OW20781   0.259   2.693   1.263  0.3912  0.2652 -0.4954
 4516SOL    HW120782   0.264   2.705   1.164 -1.0300 -0.5419 -0.6894
 4516SOL    HW220783   0.304   2.770   1.308  0.3314  1.0663 -1.7547
 4517SOL     OW20784   0.783   0.278   0.611  0.2781  0.0282 -0.4736
 4517SOL    HW120785   0.746   0.194   0.572 -0.3289 -0.1088  0.3967
 4517SOL    HW220786   0.789   0.348   0.539 -0.5021 -0.3365 -0.8974
 4518SOL     OW20787   7.840   0.306   0.349  0.3056 -0.1538 -0.4924
 4518SOL    HW120788   7.803   0.233   0.407 -0.0473 -0.3585 -0.9705
 4518SOL    HW220789   7.939   0.311   0.361 -0.1091  1.7690  2.3706
 4519SOL     OW20790   0.076   9.841   1.829 -0.1400  0.5686  0.3531
 4519SOL    HW120791   0.083   9.941   1.832 -0.6031  0.5885  0.7754
 4519SOL    HW220792  -0.020   9.814   1.837 -0.0008  0.0808  0.3869
 4520SOL     OW20793   9.614   5.176   0.797 -0.2289 -0.4963 -0.3688
 4520SOL    HW120794   9.700   5.129   0.818 -0.3393 -0.4055  0.2952
 4520SOL    HW220795   9.576   5.139   0.712 -0.4214 -1.7763  0.2563
 4521SOL     OW20796   0.820   2.994   2.283  0.7962  0.2878 -0.4056
 4521SOL    HW120797   0.785   3.009   2.375 -1.1257 -1.4665 -0.7950
 4521SOL    HW220798   0.879   2.913   2.282  1.2885  0.6470 -0.6037
 4522SOL     OW20799   2.484   8.459   1.542 -0.0477  0.0167 -0.0662
 4522SOL    HW120800   2.540   8.377   1.537 -0.0506  0.1457 -2.7395
 4522SOL    HW220801   2.543   8.539   1.558  0.4705  0.0539 -2.0691
 4523SOL     OW20802   1.616   3.249   0.825 -0.5577  0.2192  0.5611
 4523SOL    HW120803   1.536   3.192   0.840 -0.5148  0.4499  1.6717
 4523SOL    HW220804   1.686   3.228   0.894  0.0848  0.4789  0.0009
 4526SOL     OW20805   8.230   8.825   1.184  0.3907 -0.3088  0.2036
 4526SOL    HW120806   8.190   8.900   1.131  1.8702  0.5548  0.2953
 4526SOL    HW220807   8.217   8.842   1.281  0.6847 -0.1933  0.2230
 4527SOL     OW20808   2.099   2.960   1.161 -0.1063  0.3354 -0.1409
 4527SOL    HW120809   2.183   2.996   1.122  0.3398 -0.0123  0.4743
 4527SOL    HW220810   2.120   2.914   1.248 -1.1538  1.6682  0.8377
 4528SOL     OW20811   1.894   8.018   0.392 -0.2697  0.1446  0.0299
 4528SOL    HW120812   1.954   8.006   0.472 -1.0602  0.9523  0.7561
 4528SOL    HW220813   1.894   8.114   0.364  0.2934 -0.1984 -1.1863
 4529SOL     OW20814   1.480   9.063   1.995  0.1306 -0.6491 -0.0401
 4529SOL    HW120815   1.569   9.034   1.957  0.4364 -0.1777  0.3113
 4529SOL    HW220816   1.416   8.986   1.991  1.2642 -1.7365  1.8885
 4530SOL     OW20817   3.557   0.084   1.076 -0.1566  0.0913 -0.0524
 4530SOL    HW120818   3.523   0.010   1.134 -1.6176  0.4265 -0.4720
 4530SOL    HW220819   3.621   0.046   1.008  2.0364 -0.2197  2.1033
 4531SOL     OW20820   0.146   3.250   2.059 -0.1837  0.2382  0.1102
 4531SOL    HW120821   0.155   3.151   2.071 -0.3362 -0.0218 -1.8012
 4531SOL    HW220822   0.236   3.292   2.051 -0.1560  0.0093 -0.8517
 4532SOL     OW20823   4.819   3.859   0.859  0.0270  0.3933 -0.6757
 4532SOL    HW120824   4.897   3.797   0.849 -0.3356 -0.1132 -0.3757
 4532SOL    HW220825   4.852   3.953   0.870  0.6267  0.0383  0.6069
 4533SOL     OW20826   8.914   0.887   0.399 -0.6823  0.0965 -0.2858
 4533SOL    HW120827   8.876   0.912   0.310 -0.3726  1.5614 -0.0120
 4533SOL    HW220828   8.892   0.958   0.466  0.6726 -0.0960  0.3778
 4534SOL     OW20829   4.098   0.936   2.031  0.0279  0.0392 -0.3875
 4534SOL    HW120830   4.006   0.972   2.013 -0.2319 -0.3531  0.1459
 4534SOL    HW220831   4.097   0.836   2.024  0.1887 -0.0370  0.6211
 4536SOL     OW20832   2.137   3.914   2.011 -0.4229  0.3681  0.6194
 4536SOL    HW120833   2.159   3.888   1.917 -1.6026 -0.9386  0.6786
 4536SOL    HW220834   2.055   3.971   2.012  0.3419  1.4756  0.7572
 4537SOL     OW20835   0.305   7.017   1.626 -0.0871  0.1369  0.3300
 4537SOL    HW120836   0.220   6.982   1.585 -0.2335 -1.4413  1.8858
 4537SOL    HW220837   0.352   6.942   1.672  0.4217  1.7050  2.4345
 4538SOL     OW20838   1.955   3.049   0.691  0.3026  0.2421  0.2130
 4538SOL    HW120839   1.964   3.007   0.781  1.7218  0.5926  0.2443
 4538SOL    HW220840   1.994   2.989   0.621  1.1248  0.9073  0.0943
 4539SOL     OW20841   1.483   6.921   1.560  0.3984  0.2421 -0.3010
 4539SOL    HW120842   1.538   7.002   1.538  1.3987 -0.1968  0.5645
 4539SOL    HW220843   1.522   6.841   1.516  0.3691 -0.0437  0.1877
 4540SOL     OW20844   2.654   0.216   1.272  0.6327 -0.0339  0.1301
 4540SOL    HW120845   2.739   0.216   1.219  1.1440 -0.8045  0.9375
 4540SOL    HW220846   2.585   0.271   1.224  2.0112  1.7519  0.1399
 4541SOL     OW20847   9.244   1.430   2.157  0.6120  0.2994 -0.3630
 4541SOL    HW120848   9.175   1.459   2.223 -0.2596  0.0112 -1.1311
 4541SOL    HW220849   9.212   1.348   2.109 -0.0709  2.0851 -3.1398
 4542SOL     OW20850   8.285   1.477   0.597  0.6364 -0.1074  0.5762
 4542SOL    HW120851   8.310   1.455   0.692  1.9048 -0.5553  0.1544
 4542SOL    HW220852   8.325   1.409   0.536 -1.1934 -0.5118 -0.1965
 4543SOL     OW20853   8.721   2.049   1.070  0.4665  0.4488 -0.3580
 4543SOL    HW120854   8.755   2.123   1.128 -0.7986  0.8002 -0.0437
 4543SOL    HW220855   8.634   2.077   1.028 -0.8050 -1.4196  0.9651
 4544SOL     OW20856   0.300   0.672   2.261 -0.7232 -0.1040  0.4061
 4544SOL    HW120857   0.225   0.614   2.230  0.3800 -1.1282 -0.4070
 4544SOL    HW220858   0.387   0.632   2.232  0.0655  1.9899 -0.1958
 4546SOL     OW20859   3.099   4.858   0.618 -0.0667  0.1248  0.3990
 4546SOL    HW120860   3.114   4.799   0.538  1.5251 -0.5733  1.1997
 4546SOL    HW220861   3.004   4.890   0.617 -0.3497 -0.6687 -1.2388
 4547SOL     OW20862   8.123   0.012   1.139  0.0719 -0.3812  0.5672
 4547SOL    HW120863   8.102   0.108   1.119 -1.3605 -0.8881 -0.4548
 4547SOL    HW220864   8.037  -0.038   1.155  0.7087 -1.8335 -0.4795
 4548SOL     OW20865   0.889   8.628   1.675 -0.2706 -0.0023 -0.2917
 4548SOL    HW120866   0.946   8.589   1.603  1.3935  2.1513 -0.1917
 4548SOL    HW220867   0.919   8.721   1.695 -2.4579  0.4133  1.2985
 4549SOL     OW20868   8.896   3.254   1.491 -0.5335 -0.0629 -0.5293
 4549SOL    HW120869   8.892   3.154   1.491  0.3509 -0.0996 -0.5681
 4549SOL    HW220870   8.805   3.291   1.475 -1.3975 -0.8430  2.3385
 4551SOL     OW20871   4.756   3.259   0.890 -0.2467  0.0681  0.0391
 4551SOL    HW120872   4.806   3.343   0.866  2.1899 -0.9598  1.3782
 4551SOL    HW220873   4.779   3.187   0.824 -0.2652 -0.2934  0.4240
 4552SOL     OW20874   2.937   6.186   2.225  0.1817  0.4544 -0.3620
 4552SOL    HW120875   2.929   6.179   2.126 -2.1182 -0.7789 -0.1376
 4552SOL    HW220876   2.981   6.104   2.261 -1.4309 -0.3582 -0.1669
 4553SOL     OW20877   1.969   5.930   0.437 -0.4849 -1.1851  0.6337
 4553SOL    HW120878   1.987   5.839   0.402 -1.2808 -1.4270  0.8323
 4553SOL    HW220879   1.918   5.983   0.369  0.2964 -0.7591  0.3698
 4554SOL     OW20880   9.102   1.891   1.265 -0.0061  0.0140  0.4414
 4554SOL    HW120881   9.125   1.852   1.355 -1.1449  0.0576  0.7568
 4554SOL    HW220882   9.004   1.883   1.250  0.3766 -1.4619 -1.5003
 4558SOL     OW20883   8.757   8.803   0.940  0.4190 -0.9790  0.0315
 4558SOL    HW120884   8.739   8.771   0.847  0.9085 -1.4673  0.1004
 4558SOL    HW220885   8.855   8.821   0.951  0.0573  1.4202 -0.2715
 4559SOL     OW20886   9.141   5.867   1.726 -0.6023  0.0526 -0.5567
 4559SOL    HW120887   9.156   5.935   1.798 -1.4918  1.6478 -1.8413
 4559SOL    HW220888   9.082   5.906   1.655  0.9761 -1.1739 -2.5927
 4560SOL     OW20889   2.600   7.916   1.326 -1.1484  0.1649  0.3878
 4560SOL    HW120890   2.559   7.880   1.410 -2.2936  0.0152 -0.2365
 4560SOL    HW220891   2.533   7.915   1.252  0.0871 -0.4574 -0.7503
 4561SOL     OW20892   4.532   2.908   0.426 -0.4975 -0.0242 -0.0861
 4561SOL    HW120893   4.491   2.976   0.487  1.0991 -0.3816  1.4028
 4561SOL    HW220894   4.610   2.865   0.471 -0.5876 -1.8075 -1.5802
 4562SOL     OW20895   9.928   0.326   0.724 -0.3361 -0.9804  0.7501
 4562SOL    HW120896   9.836   0.365   0.735 -0.7184 -1.4926 -0.4691
 4562SOL    HW220897   9.978   0.333   0.810 -1.3066 -0.1452  1.2623
 4563SOL     OW20898   4.924   3.564   1.547  0.2437  0.1108 -0.8561
 4563SOL    HW120899   4.874   3.638   1.503 -0.4558  0.3161  0.2615
 4563SOL    HW220900   4.938   3.586   1.644  0.3653 -1.0435 -0.6022
 4564SOL     OW20901   1.730   1.418   2.309 -0.1219 -0.1196 -0.3404
 4564SOL    HW120902   1.732   1.463   2.399  0.7828 -0.5510 -0.1347
 4564SOL    HW220903   1.806   1.354   2.303  0.2882  0.4762 -1.7135
 4565SOL     OW20904   2.152   9.579   1.139 -0.1618 -1.4339  0.3687
 4565SOL    HW120905   2.188   9.663   1.098  1.5344 -2.3846 -0.1667
 4565SOL    HW220906   2.110   9.601   1.227  1.4799 -0.1850  0.8911
 4566SOL     OW20907   8.334   1.049   1.433  0.3040  0.1728 -0.1836
 4566SOL    HW120908   8.420   1.061   1.481  0.8881  2.6918 -1.7475
 4566SOL    HW220909   8.352   1.025   1.337 -0.6837  0.7877 -0.5431
 4567SOL     OW20910   8.740   7.272   0.717 -0.4920 -0.4264 -0.5018
 4567SOL    HW120911   8.785   7.259   0.628  0.0291  0.3735 -0.3652
 4567SOL    HW220912   8.803   7.317   0.780 -0.3703 -2.2828  0.7373
 4568SOL     OW20913   8.588   7.776   0.337 -0.3304  0.0946 -0.1119
 4568SOL    HW120914   8.671   7.814   0.379 -1.0091 -0.1589  1.5327
 4568SOL    HW220915   8.592   7.676   0.340 -0.6341  0.0814 -0.1292
 4569SOL     OW20916   9.800   3.241   0.997 -0.1500  0.2125 -0.3600
 4569SOL    HW120917   9.766   3.230   1.090  0.0470  2.0739 -0.0371
 4569SOL    HW220918   9.724   3.261   0.935 -0.0861  0.6251 -0.3048
 4570SOL     OW20919   9.481   8.465   1.919 -0.6752 -0.0544  0.0528
 4570SOL    HW120920   9.486   8.512   1.831 -0.9600 -0.3539 -0.1308
 4570SOL    HW220921   9.466   8.531   1.992 -1.1609  0.1333 -0.2126
 4571SOL     OW20922   3.255   0.864   1.845  0.2602 -0.1839  0.4016
 4571SOL    HW120923   3.310   0.912   1.913  0.9303  0.2681 -0.4580
 4571SOL    HW220924   3.303   0.862   1.758 -1.5512  1.1827 -0.6727
 4572SOL     OW20925   1.189   9.738   0.924  0.3991 -0.1517 -0.9285
 4572SOL    HW120926   1.184   9.836   0.944  0.0865 -0.8422  2.8632
 4572SOL    HW220927   1.199   9.687   1.010 -2.9473 -3.7060 -2.5015
 4573SOL     OW20928   1.129   0.389   0.525 -0.6089  0.3909 -0.0046
 4573SOL    HW120929   1.173   0.361   0.611  1.3103 -1.2330 -1.4715
 4573SOL    HW220930   1.200   0.416   0.459 -1.9527 -0.2272 -1.7251
 4574SOL     OW20931   0.841   7.634   1.845  0.0233  0.7638  0.3538
 4574SOL    HW120932   0.841   7.540   1.881 -0.6193 -0.0305 -1.6235
 4574SOL    HW220933   0.935   7.664   1.831  0.2180 -0.1608 -0.4082
 4577SOL     OW20934   0.423   5.868   1.444 -0.4915 -0.0534  0.1695
 4577SOL    HW120935   0.478   5.855   1.526 -0.5342 -1.1027  0.0381
 4577SOL    HW220936   0.472   5.927   1.380  1.2354 -2.2396 -0.6205
 4578SOL     OW20937   1.831   0.486   1.869  0.0289 -1.0252 -0.4159
 4578SOL    HW120938   1.817   0.499   1.967 -1.7107 -2.3798 -0.4520
 4578SOL    HW220939   1.929   0.491   1.848  0.5512 -2.2289  1.6133
 4579SOL     OW20940   8.974   0.134   1.966 -0.1208 -0.7867  0.1313
 4579SOL    HW120941   9.043   0.071   1.930  2.5352  1.5734  0.9061
 4579SOL    HW220942   9.008   0.228   1.960 -1.6421  0.1180  4.0405
 4580SOL     OW20943   0.438   0.970   0.584  0.4547  0.8741 -0.1529
 4580SOL    HW120944   0.386   1.054   0.602 -1.5044 -0.3428 -0.0504
 4580SOL    HW220945   0.536   0.991   0.586 -0.0192  3.3419 -1.0745
 4583SOL     OW20946   1.082   2.350   0.857 -0.1392 -0.5869 -0.4868
 4583SOL    HW120947   1.056   2.253   0.863  0.3749 -0.7132 -0.2896
 4583SOL    HW220948   1.063   2.394   0.945  1.3500 -0.9405  0.0266
 4584SOL     OW20949   0.859   3.445   1.365 -0.5744  0.1090  0.1545
 4584SOL    HW120950   0.884   3.375   1.298 -0.1772  0.0367  0.3768
 4584SOL    HW220951   0.911   3.431   1.449 -0.9819  0.2702  0.4395
 4585SOL     OW20952   1.242   0.324   1.371 -0.2325 -0.3212 -0.4346
 4585SOL    HW120953   1.160   0.373   1.340  0.6311 -0.4743 -3.1594
 4585SOL    HW220954   1.313   0.391   1.395 -0.5659 -0.2040  0.2281
 4586SOL     OW20955   3.983   9.227   0.963 -0.3883 -0.4001  0.0917
 4586SOL    HW120956   4.039   9.152   0.999 -0.1479 -0.3566 -0.1953
 4586SOL    HW220957   3.907   9.245   1.026 -1.3267 -1.8957 -0.5908
 4588SOL     OW20958   8.698   0.998   1.289  0.7658  0.1757 -0.6556
 4588SOL    HW120959   8.620   0.965   1.236  0.7520 -0.8928  0.0225
 4588SOL    HW220960   8.666   1.036   1.376  0.8500  1.2861 -1.1042
 4589SOL     OW20961   0.893   9.808   1.877 -0.0892  0.4651 -0.2908
 4589SOL    HW120962   0.958   9.881   1.855  1.6629 -1.0035 -0.0872
 4589SOL    HW220963   0.930   9.720   1.848 -2.3776 -0.3254 -0.9370
 4590SOL     OW20964   1.523   7.880   1.162 -0.0652 -0.1856 -0.0679
 4590SOL    HW120965   1.482   7.945   1.225  1.8014  1.8753 -0.9011
 4590SOL    HW220966   1.573   7.811   1.213 -2.8609 -1.6056  0.8655
 4592SOL     OW20967   3.889   1.239   1.028  0.3910 -0.1701 -0.7997
 4592SOL    HW120968   3.927   1.253   0.937 -0.3035  0.8868 -0.9327
 4592SOL    HW220969   3.866   1.143   1.040  1.3390 -0.4785 -1.4026
 4593SOL     OW20970   2.019   4.647   1.846 -0.0213 -0.2115  0.2680
 4593SOL    HW120971   1.998   4.555   1.815  0.4993  0.0195 -0.8109
 4593SOL    HW220972   1.946   4.710   1.817  0.4011 -0.0176 -0.3917
 4594SOL     OW20973   1.660   7.517   0.439 -0.6462  0.3388  0.5927
 4594SOL    HW120974   1.708   7.586   0.384  2.3544 -1.1283  1.3018
 4594SOL    HW220975   1.609   7.456   0.378 -1.8781  2.0739 -0.1559
 4595SOL     OW20976   8.582   1.097   0.806 -0.7363 -0.0522 -0.3085
 4595SOL    HW120977   8.527   1.176   0.779  1.0542  1.2409 -0.2682
 4595SOL    HW220978   8.628   1.116   0.892 -0.0317 -1.0089 -0.4639
 4596SOL     OW20979   2.664   8.670   1.629  0.4063  0.4020 -0.1309
 4596SOL    HW120980   2.724   8.642   1.704  0.0510 -1.0165 -0.3536
 4596SOL    HW220981   2.713   8.662   1.543  0.3292  0.5642 -0.1893
 4599SOL     OW20982   2.397   1.272   1.352 -0.1395  0.3903  0.3519
 4599SOL    HW120983   2.327   1.290   1.283 -2.4073 -0.3311  2.3919
 4599SOL    HW220984   2.394   1.344   1.422  0.6688 -0.0432  0.8369
 4600SOL     OW20985   0.171   3.000   2.119 -0.1265  0.3519 -0.3060
 4600SOL    HW120986   0.147   2.947   2.201 -1.8241  1.3974 -0.0958
 4600SOL    HW220987   0.236   2.948   2.064 -0.8905 -1.4790  0.4539
 4601SOL     OW20988   3.363   1.342   2.244 -0.2029  0.0902  0.3983
 4601SOL    HW120989   3.265   1.342   2.229 -0.2739 -0.1868  0.8425
 4601SOL    HW220990   3.411   1.332   2.157 -0.6247 -3.3075  0.4889
 4602SOL     OW20991   0.695   1.557   0.960 -0.3005 -0.0060 -0.2650
 4602SOL    HW120992   0.732   1.476   1.005 -1.3508  0.5766  1.6695
 4602SOL    HW220993   0.667   1.533   0.867 -4.1335 -2.8513  1.4997
 4604SOL     OW20994   1.682   1.624   1.400 -0.0058 -0.2708 -0.5490
 4604SOL    HW120995   1.613   1.697   1.399  1.1817  0.9299  1.6233
 4604SOL    HW220996   1.671   1.569   1.482  1.0347 -0.6728 -0.6758
 4607SOL     OW20997   8.130   0.364   0.761  0.5573  0.2003  0.2708
 4607SOL    HW120998   8.039   0.390   0.793  0.2602  0.2326 -0.5882
 4607SOL    HW220999   8.133   0.265   0.747  0.2860  0.3399 -0.8298
 4608SOL     OW21000   2.752   0.411   0.482 -0.7828  0.1931 -0.1273
 4608SOL    HW121001   2.740   0.329   0.538 -0.1959 -1.3949 -2.2498
 4608SOL    HW221002   2.706   0.397   0.394 -0.9505  2.2808 -0.3797
 4609SOL     OW21003   0.496   5.423   0.707 -0.5067 -0.4846 -0.3373
 4609SOL    HW121004   0.521   5.332   0.740  0.5957 -0.7540 -1.8804
 4609SOL    HW221005   0.409   5.418   0.659 -0.8957 -0.5579  0.3767
 4610SOL     OW21006   8.725   9.256   0.952 -0.2061 -0.2562 -0.7668
 4610SOL    HW121007   8.777   9.198   0.890 -0.3812  0.0823 -1.2277
 4610SOL    HW221008   8.787   9.306   1.012  0.0038  0.1581 -1.3254
 4611SOL     OW21009   7.948   1.183   0.915 -0.3864 -0.0127  0.2183
 4611SOL    HW121010   8.012   1.235   0.859 -0.0039 -0.1719  0.4992
 4611SOL    HW221011   7.999   1.115   0.969 -0.4518  1.6642  2.4696
 4613SOL     OW21012   2.827   3.371   1.266 -0.5874  0.3772 -0.2537
 4613SOL    HW121013   2.786   3.294   1.315 -1.8371  1.1335 -0.1072
 4613SOL    HW221014   2.831   3.451   1.326  1.4197  0.2345 -0.1524
 4614SOL     OW21015   2.646   9.498   1.491  0.4822 -0.3481 -0.0818
 4614SOL    HW121016   2.699   9.429   1.539  0.9427  0.4090  0.5122
 4614SOL    HW221017   2.662   9.587   1.533 -1.1670 -0.0935  0.0223
 4615SOL     OW21018   1.471   4.985   1.117  0.2900  0.0361  0.5274
 4615SOL    HW121019   1.390   4.979   1.059  0.8181 -3.4342  0.0309
 4615SOL    HW221020   1.481   5.078   1.151 -1.0214  1.7504 -3.4921
 4616SOL     OW21021   0.935   8.385   2.107  0.4517  0.0478  0.5837
 4616SOL    HW121022   0.908   8.353   2.198 -1.3309  0.1941  0.1164
 4616SOL    HW221023   0.927   8.310   2.041  1.1904  0.0989  0.4261
 4617SOL     OW21024   8.485   2.155   0.982  0.3906 -0.2610 -0.2418
 4617SOL    HW121025   8.407   2.116   1.031  0.3348 -1.0698 -0.9492
 4617SOL    HW221026   8.480   2.254   0.983 -0.1222 -0.2921  0.5556
 4618SOL     OW21027   9.505   8.783   1.871  0.2957 -0.2014 -0.1133
 4618SOL    HW121028   9.535   8.821   1.783  0.9431 -1.5199 -0.4758
 4618SOL    HW221029   9.582   8.781   1.934  0.4778 -1.6525 -0.3659
 4620SOL     OW21030   7.627   0.259   1.314 -0.4294 -0.5070  0.1084
 4620SOL    HW121031   7.694   0.241   1.242  0.7818  0.6965  0.9072
 4620SOL    HW221032   7.661   0.223   1.401  0.5844  2.6807  1.1028
 4621SOL     OW21033   4.485   2.395   1.855  0.2776 -0.4377  0.2609
 4621SOL    HW121034   4.535   2.467   1.807 -1.4593  0.5779 -0.0538
 4621SOL    HW221035   4.540   2.362   1.933  2.0646 -0.4100 -0.9623
 4623SOL     OW21036   9.412   5.195   0.970  0.2565  0.3473 -0.0594
 4623SOL    HW121037   9.482   5.184   0.900 -0.8246  0.0146 -1.1136
 4623SOL    HW221038   9.392   5.107   1.013  1.9579  0.7981  1.7150
 4624SOL     OW21039   8.117   9.296   2.191 -0.1124 -0.2990  0.4712
 4624SOL    HW121040   8.078   9.210   2.156 -0.2287 -0.2821  0.5599
 4624SOL    HW221041   8.162   9.279   2.279  2.8895 -0.9901 -1.1279
 4625SOL     OW21042   1.340   9.841   2.109  0.0355 -0.4624 -0.2305
 4625SOL    HW121043   1.241   9.831   2.118 -0.0259  0.1184 -0.2522
 4625SOL    HW221044   1.386   9.774   2.167 -0.3627  0.3229  0.9976
 4626SOL     OW21045   2.295   5.803   1.743 -0.8280 -0.1650 -0.0672
 4626SOL    HW121046   2.271   5.727   1.804 -3.0902 -0.4614 -1.2730
 4626SOL    HW221047   2.286   5.774   1.648  0.6628  0.9154 -0.5617
 4627SOL     OW21048   9.536   3.388   1.372 -0.3727 -0.2896  0.6590
 4627SOL    HW121049   9.558   3.476   1.330 -1.0086 -1.0217 -1.2646
 4627SOL    HW221050   9.451   3.397   1.425 -0.3742  0.2767  0.5666
 4628SOL     OW21051   2.851  -0.064   0.630 -0.0167 -0.7547 -0.3542
 4628SOL    HW121052   2.814  -0.114   0.552  0.7945 -0.6474 -0.8180
 4628SOL    HW221053   2.839   0.034   0.615 -0.5540 -0.7672  0.0100
 4629SOL     OW21054   0.763   0.807   1.997 -0.2603  0.0934  0.1600
 4629SOL    HW121055   0.774   0.865   2.077  0.6358 -1.2392  1.0123
 4629SOL    HW221056   0.676   0.758   2.003  0.2349 -0.7157  0.7847
 4630SOL     OW21057   2.960   8.481   1.010  0.1157  0.4584  0.2858
 4630SOL    HW121058   2.941   8.578   0.995 -0.9910  0.5143  1.8928
 4630SOL    HW221059   2.882   8.427   0.980 -0.5408  0.3070  2.2082
 4631SOL     OW21060   0.118   9.320   0.813 -0.1728  0.2278 -0.5606
 4631SOL    HW121061   0.213   9.289   0.819 -0.3787 -0.5671 -1.3618
 4631SOL    HW221062   0.115   9.419   0.825  1.0429  0.6053 -3.0229
 4632SOL     OW21063   8.656   1.496   0.748 -0.2666  0.7696  0.7879
 4632SOL    HW121064   8.718   1.482   0.671 -1.3149  1.5502 -0.2260
 4632SOL    HW221065   8.590   1.568   0.725 -1.6853 -0.1904  1.7419
 4633SOL     OW21066   4.315   8.829   1.478  0.3852  0.0576 -0.0339
 4633SOL    HW121067   4.254   8.760   1.438 -1.7351  1.2719  1.0061
 4633SOL    HW221068   4.367   8.872   1.405  0.3602 -1.3339 -0.9078
 4634SOL     OW21069   8.612   0.315   0.879 -0.1483  0.8654  0.0865
 4634SOL    HW121070   8.608   0.291   0.782  0.4116 -2.2362  0.8029
 4634SOL    HW221071   8.519   0.325   0.914 -0.4491 -1.6476  0.0718
 4635SOL     OW21072   8.009   7.886   1.385  0.4656  0.2004 -0.1341
 4635SOL    HW121073   7.984   7.790   1.369  0.3183  0.3073 -0.5272
 4635SOL    HW221074   8.019   7.933   1.298  0.9719  0.4353  0.0486
 4636SOL     OW21075   1.994   8.087   0.951  0.2586 -0.0221 -0.1213
 4636SOL    HW121076   1.915   8.131   0.908  0.6165 -0.5302 -1.3273
 4636SOL    HW221077   2.065   8.156   0.967 -0.4090  0.4312  0.9433
 4637SOL     OW21078   1.686   9.777   1.394 -0.1021  0.4097 -0.0081
 4637SOL    HW121079   1.756   9.780   1.323  1.3791  0.1675  1.4040
 4637SOL    HW221080   1.599   9.748   1.354  0.7604  0.0261 -1.6601
 4638SOL     OW21081   3.871   1.371   0.324  0.6294 -0.0672  0.0503
 4638SOL    HW121082   3.933   1.307   0.279 -0.6734 -0.7828 -0.7238
 4638SOL    HW221083   3.916   1.460   0.331  1.5668 -0.4441 -0.9286
 4639SOL     OW21084   8.706   0.977   2.083 -0.2099 -0.0746 -0.0165
 4639SOL    HW121085   8.688   1.057   2.140  1.0016 -0.4375  0.9106
 4639SOL    HW221086   8.620   0.931   2.061 -0.5909 -0.9745  3.0827
 4640SOL     OW21087   8.991   9.780   1.995  0.3185  0.2522 -0.2572
 4640SOL    HW121088   8.955   9.802   2.085  1.1415 -2.5165  0.7919
 4640SOL    HW221089   8.917   9.780   1.928 -1.0636 -1.8143  1.2114
 4641SOL     OW21090   2.854   8.652   0.613 -0.6270 -0.3507  0.1120
 4641SOL    HW121091   2.776   8.702   0.651  0.6268 -0.1728  2.5146
 4641SOL    HW221092   2.931   8.656   0.677  0.7224 -2.1943 -1.3458
 4642SOL     OW21093   3.557   3.270   0.348 -0.5527 -0.0359  0.0394
 4642SOL    HW121094   3.618   3.308   0.417 -1.7857  0.5823  0.8085
 4642SOL    HW221095   3.569   3.171   0.344  1.1297  0.1708 -0.4564
 4643SOL     OW21096   2.754   2.035   1.291  0.5496 -0.2848 -0.3070
 4643SOL    HW121097   2.697   1.974   1.346  1.2699 -1.2085 -0.5894
 4643SOL    HW221098   2.848   2.003   1.291  1.0259  1.0448 -0.1399
 4644SOL     OW21099   3.738   2.394   1.944 -0.6937  0.0393  0.2233
 4644SOL    HW121100   3.667   2.413   1.875 -0.4966  0.7182  0.2060
 4644SOL    HW221101   3.782   2.307   1.922 -2.4981 -1.1157  1.0511
 4645SOL     OW21102   0.279   4.015   0.839 -0.3491  0.2370  0.0897
 4645SOL    HW121103   0.187   4.050   0.822  0.2217  1.7558  0.0911
 4645SOL    HW221104   0.273   3.928   0.888 -1.7528  1.2515  1.7805
 4647SOL     OW21105   2.554   7.033   2.160  0.6212 -0.0498  0.2128
 4647SOL    HW121106   2.650   7.039   2.134  0.7084  0.1759  0.5885
 4647SOL    HW221107   2.541   6.957   2.223  0.5924  0.0611  0.3411
 4649SOL     OW21108   9.124   6.091   1.952  0.0996 -0.3559 -0.2264
 4649SOL    HW121109   9.061   6.116   2.026  1.3932  0.2775  0.6841
 4649SOL    HW221110   9.166   6.002   1.974  2.2878  0.9318  1.0360
 4651SOL     OW21111   1.049   8.146   0.730  0.0881 -0.0879 -0.0599
 4651SOL    HW121112   1.078   8.179   0.640 -0.2863 -2.1463 -0.9765
 4651SOL    HW221113   1.130   8.121   0.783  0.2629 -0.3594 -0.4437
 4652SOL     OW21114   2.093   3.803   0.941  0.0722 -0.6489  0.2510
 4652SOL    HW121115   2.002   3.765   0.959  0.1388 -1.2394 -0.6579
 4652SOL    HW221116   2.142   3.744   0.878 -0.3513  1.6400 -2.3298
 4653SOL     OW21117   0.631   4.166   2.258  0.0104  0.1799  0.3663
 4653SOL    HW121118   0.643   4.180   2.356 -0.2464  2.3749  0.1087
 4653SOL    HW221119   0.670   4.243   2.209  0.8062 -1.2530 -1.3181
 4654SOL     OW21120   0.411   1.208   1.586  0.0995  0.1051 -0.2461
 4654SOL    HW121121   0.317   1.223   1.615  0.2088  0.8153 -0.2467
 4654SOL    HW221122   0.455   1.296   1.567  0.9407 -0.1844  0.3235
 4656SOL     OW21123   0.234   0.133   1.409 -0.2159  0.7071  0.4236
 4656SOL    HW121124   0.238   0.063   1.337 -0.9472  0.1918  0.8764
 4656SOL    HW221125   0.261   0.221   1.371  0.5804  0.2094 -0.1929
 4657SOL     OW21126   1.006   8.870   1.738 -0.9389 -0.6288 -0.0989
 4657SOL    HW121127   1.045   8.847   1.827  0.5636  0.3063 -0.4809
 4657SOL    HW221128   1.015   8.969   1.722 -4.9187 -0.1153  0.4328
 4659SOL     OW21129   9.677   2.807   1.622  0.4164  0.1104  0.6820
 4659SOL    HW121130   9.702   2.744   1.695  1.3664 -0.3853 -0.0541
 4659SOL    HW221131   9.735   2.888   1.626  1.0662 -0.3120 -0.0478
 4660SOL     OW21132   8.646   7.505   0.361  0.2816  0.4795 -0.7847
 4660SOL    HW121133   8.743   7.509   0.388  0.8134  0.3536 -2.6090
 4660SOL    HW221134   8.637   7.445   0.281 -1.1463  1.4466 -1.3461
 4661SOL     OW21135   8.966   9.108   1.170  0.2997 -0.1019 -0.0959
 4661SOL    HW121136   8.920   9.145   1.251  0.8122 -3.0353  1.6150
 4661SOL    HW221137   8.908   9.120   1.090 -1.9040 -0.6194  1.3919
 4662SOL     OW21138   1.852   7.662   0.885 -0.2768  0.2829 -0.2701
 4662SOL    HW121139   1.856   7.619   0.796  1.0765 -1.7395  0.7228
 4662SOL    HW221140   1.757   7.684   0.908 -1.0054 -2.1029 -0.8456
 4663SOL     OW21141   1.470   6.976   0.668 -0.2331  0.1122 -0.4565
 4663SOL    HW121142   1.504   6.994   0.575  0.0793  0.1834 -0.3314
 4663SOL    HW221143   1.455   7.063   0.715  1.3095  0.0580  0.1609
 4664SOL     OW21144   0.335   0.199   2.114  0.5244  0.0546  0.0354
 4664SOL    HW121145   0.385   0.116   2.088  0.9941 -0.3022  1.9991
 4664SOL    HW221146   0.364   0.275   2.056  1.4679 -0.7365 -0.5478
 4665SOL     OW21147   0.151   8.070   0.402 -0.0921 -0.4455 -0.4041
 4665SOL    HW121148   0.223   8.110   0.346  0.0101 -0.2342 -0.1228
 4665SOL    HW221149   0.188   8.043   0.491 -0.0141 -1.7482 -0.8123
 4666SOL     OW21150   0.462   3.413   0.568 -0.1609  0.7063  0.3318
 4666SOL    HW121151   0.413   3.497   0.547  1.4223  2.1116  2.1852
 4666SOL    HW221152   0.531   3.396   0.498 -0.9665  0.5378 -0.4341
 4667SOL     OW21153   0.059   9.591   0.894 -0.5431 -0.1806  0.2151
 4667SOL    HW121154   0.097   9.638   0.815  1.4335  1.7681  2.2165
 4667SOL    HW221155  -0.031   9.630   0.915 -0.3754  0.4022 -0.1286
 4668SOL     OW21156   7.687   9.244   2.092  0.0271  0.1456 -0.1733
 4668SOL    HW121157   7.721   9.166   2.144  1.4200  0.1471 -1.0639
 4668SOL    HW221158   7.595   9.269   2.125  0.0600 -1.1142  0.8969
 4669SOL     OW21159   8.945   9.686   0.522  0.0474 -0.5952  0.2494
 4669SOL    HW121160   8.956   9.659   0.618  2.9891 -0.0633  0.0920
 4669SOL    HW221161   8.944   9.604   0.464  0.2799 -0.8137  0.5514
 4671SOL     OW21162   0.964   4.250   1.314 -0.4335 -0.3515  0.0857
 4671SOL    HW121163   1.002   4.301   1.237 -1.4653 -1.5742 -1.2479
 4671SOL    HW221164   1.038   4.216   1.372  0.4084 -0.9172 -1.3124
 4672SOL     OW21165   1.774   4.351   1.190 -0.2486 -0.3194 -0.4265
 4672SOL    HW121166   1.797   4.329   1.095  1.7223 -0.8493  0.1430
 4672SOL    HW221167   1.835   4.301   1.251 -0.3843  1.3300  1.0863
 4673SOL     OW21168   3.308   9.843   1.994 -0.6128 -0.2455  0.4212
 4673SOL    HW121169   3.330   9.907   1.920  0.1113 -0.8057  0.1521
 4673SOL    HW221170   3.265   9.761   1.956 -0.4454 -0.4377  0.6458
 4674SOL     OW21171   3.492   4.845   2.283  0.4785  0.2957 -0.2660
 4674SOL    HW121172   3.452   4.825   2.373  1.4774 -0.0261  0.1121
 4674SOL    HW221173   3.588   4.817   2.282  1.1419  2.4450 -0.6536
 4675SOL     OW21174   3.666   8.544   1.220  0.3184 -0.1448 -0.6992
 4675SOL    HW121175   3.719   8.605   1.162  1.3131  0.2374  0.5968
 4675SOL    HW221176   3.717   8.524   1.303 -0.7048 -1.4198 -0.3617
 4676SOL     OW21177   1.592   5.734   0.327 -0.2448  0.1573 -0.0468
 4676SOL    HW121178   1.651   5.663   0.290 -0.6886 -1.6000  2.4620
 4676SOL    HW221179   1.620   5.823   0.292  0.7647 -1.1373 -2.7105
 4677SOL     OW21180   4.280   1.068   1.530 -1.0484 -0.0943  1.0265
 4677SOL    HW121181   4.245   1.119   1.452  0.3308  0.0860  0.5099
 4677SOL    HW221182   4.278   0.970   1.510 -0.2776 -0.0220  0.5818
 4678SOL     OW21183   1.527   1.008   0.899 -0.6588  0.2264  0.0573
 4678SOL    HW121184   1.586   1.004   0.819 -1.9344  0.7509 -0.9299
 4678SOL    HW221185   1.582   1.020   0.981  0.7750 -1.8501 -0.5659
 4679SOL     OW21186   8.856   1.124   0.559  0.1246  0.1119 -0.3001
 4679SOL    HW121187   8.809   1.164   0.480 -2.2703  0.9020  1.4623
 4679SOL    HW221188   8.897   1.198   0.613 -0.1159 -0.2312  0.3511
 4682SOL     OW21189   3.268   8.849   1.973 -0.3777  0.0511  0.0225
 4682SOL    HW121190   3.198   8.919   1.958  0.5875  1.2466  0.9740
 4682SOL    HW221191   3.286   8.841   2.071  0.2567 -0.7944 -0.1609
 4683SOL     OW21192   0.103   6.201   0.536  0.7353 -0.6586  0.2223
 4683SOL    HW121193   0.021   6.144   0.539  0.5487 -0.4189 -0.3243
 4683SOL    HW221194   0.147   6.191   0.446  0.2192  0.7498 -0.1850
 4684SOL     OW21195   7.969   9.815   0.435  0.6321 -0.6293 -0.5313
 4684SOL    HW121196   8.033   9.763   0.492 -0.0561 -0.0818  0.7647
 4684SOL    HW221197   7.965   9.910   0.468 -1.7188 -0.9292  0.1500
 4686SOL     OW21198   9.671   0.073   0.975 -0.2785  0.5183  0.2826
 4686SOL    HW121199   9.661   0.164   1.016  1.7017  1.6928 -1.7773
 4686SOL    HW221200   9.766   0.057   0.952 -0.9460 -1.2260 -1.3952
 4687SOL     OW21201   3.467   1.340   1.126  0.0330  0.2084  0.4382
 4687SOL    HW121202   3.406   1.413   1.156 -0.7908 -0.9762  1.7236
 4687SOL    HW221203   3.415   1.255   1.120  1.3970 -0.6593  0.8037
 4688SOL     OW21204   1.509   6.450   0.805  0.4242 -0.0549 -0.0829
 4688SOL    HW121205   1.608   6.435   0.813  0.4133  0.7721  1.9254
 4688SOL    HW221206   1.461   6.390   0.868 -0.0898  2.4971  2.0197
 4689SOL     OW21207   1.174   6.869   0.966 -0.2754 -0.3131  0.1236
 4689SOL    HW121208   1.198   6.961   0.935  0.5189 -0.9141 -1.0729
 4689SOL    HW221209   1.245   6.804   0.938 -0.9688 -1.3417  0.7046
 4690SOL     OW21210   8.943   4.229   2.078 -0.5473  0.1970  0.5421
 4690SOL    HW121211   8.916   4.267   2.166  0.5474  0.4424  0.7808
 4690SOL    HW221212   9.001   4.148   2.093 -1.3756 -0.5009  0.0405
 4691SOL     OW21213   8.783   2.288   1.230 -0.7603  0.6131 -0.2585
 4691SOL    HW121214   8.869   2.335   1.210 -0.7704  1.3513  1.3272
 4691SOL    HW221215   8.708   2.354   1.233 -1.3013  0.0467 -1.0869
 4692SOL     OW21216   9.515   5.068   0.565 -0.3188 -0.4893 -0.4026
 4692SOL    HW121217   9.428   5.090   0.520  0.0300  1.1066 -0.3283
 4692SOL    HW221218   9.573   5.016   0.503 -1.6952 -2.4042 -0.1288
  10.00000  10.00000   2.82000
