chitosan Film  in water:acetic acid 2% t= 2000.00000 step= 2000000
15641
    1CHTO  H203    1   5.515   6.885   1.807 -0.4449 -3.6932 -0.4008
    1CHTO   O82    2   5.586   6.900   1.748 -0.9223  0.4358 -0.1247
    1CHTO  C123    3   5.706   6.848   1.805  0.5144 -0.0066 -0.2994
    1CHTO  H227    4   5.727   6.915   1.889  1.0038  0.9020 -1.1364
    1CHTO   O77    5   5.666   6.716   1.843  0.0854 -0.2251 -0.4143
    1CHTO  C118    6   5.766   6.628   1.912 -0.5478 -0.7692  1.1046
    1CHTO  H222    7   5.799   6.675   2.006  1.9233  2.0184 -1.0715
    1CHTO  C125    8   5.697   6.488   1.950 -0.8949  0.3344 -0.4075
    1CHTO   O84    9   5.639   6.488   2.077 -0.1513  0.2458 -0.7597
    1CHTO  H205   10   5.577   6.559   2.079  0.6359  0.9325  0.4119
    1CHTO  C114   11   5.884   6.616   1.811 -0.4386  0.6834  0.2766
    1CHTO  H218   12   5.852   6.559   1.723  1.9700 -0.9124  0.3684
    1CHTO  C116   13   5.936   6.746   1.754  0.4004 -0.5184 -0.1039
    1CHTO  H220   14   5.993   6.798   1.833  0.6266 -0.1094 -0.5317
    1CHTO   O79   15   6.034   6.700   1.662  0.3212  0.1325  0.6735
    1CHTO  H201   16   6.086   6.636   1.708 -0.6588 -0.1152  1.4452
    1CHTO  C120   17   5.820   6.835   1.700  0.0337  0.3769 -0.1178
    1CHTO  H224   18   5.779   6.791   1.607  2.2169 -0.1979 -0.8418
    1CHTO   N21   19   5.885   6.965   1.659  0.2688 -0.8387 -0.0516
    1CHTO  H211   20   5.820   7.002   1.582  0.8391 -0.4922 -0.3703
    1CHTO  H212   21   5.880   7.038   1.739  1.4838  0.2544 -0.9537
    1CHTO   O75   22   5.981   6.548   1.895  0.1233 -0.5374  0.2874
    1CHTO  C112   23   6.022   6.396   1.852  0.5452  0.1338  0.2403
    1CHTO  H216   24   5.987   6.377   1.749 -2.4506 -1.1890  1.4566
    1CHTO   O73   25   5.961   6.308   1.941  0.2638 -0.3596  0.0344
    1CHTO  C113   26   5.975   6.166   1.906  0.6711  0.1470 -0.0657
    1CHTO  H217   27   5.950   6.149   1.799  1.0543  0.5333 -0.2200
    1CHTO  C124   28   5.890   6.075   1.987  0.0903 -0.2688  0.3106
    1CHTO   O83   29   5.756   6.124   2.004 -0.9889  0.0417  0.9067
    1CHTO  H204   30   5.736   6.119   2.095 -0.2949  0.9789  1.1062
    1CHTO  C109   31   6.127   6.129   1.921 -0.6241  0.1583 -0.4314
    1CHTO  H213   32   6.156   6.143   2.026 -2.3392 -1.3042  0.2455
    1CHTO  C110   33   6.208   6.226   1.828  0.3519  0.0234  0.5686
    1CHTO  H214   34   6.183   6.203   1.724  0.4004  2.8939 -0.1097
    1CHTO   O78   35   6.349   6.200   1.836  0.0098  0.1785 -0.0377
    1CHTO  H200   36   6.360   6.160   1.920  0.3789  0.7461  0.1880
    1CHTO  C111   37   6.179   6.374   1.856 -0.0909  0.0931  0.5867
    1CHTO  H215   38   6.216   6.402   1.956  0.1251  0.9514  0.2744
    1CHTO   N19   39   6.253   6.462   1.757  0.1555 -0.1587 -0.1352
    1CHTO  H207   40   6.212   6.562   1.760 -0.7120 -0.4776 -0.9197
    1CHTO  H208   41   6.355   6.469   1.791 -0.0385  1.3998  0.1720
    1CHTO   O74   42   6.145   5.984   1.887  0.3073 -0.2672 -0.3908
    1CHTO  C115   43   6.232   5.896   1.968 -0.6003  0.6510  0.8200
    1CHTO  H219   44   6.238   5.930   2.071 -3.4510 -0.6392  1.4614
    1CHTO   O76   45   6.177   5.757   1.979 -0.1369  0.0892 -0.7790
    1CHTO  C122   46   6.165   5.672   1.867 -0.2647 -0.4839 -0.8122
    1CHTO  H226   47   6.066   5.696   1.827 -0.2337 -0.5266 -0.9124
    1CHTO  C126   48   6.155   5.531   1.917  0.5761 -0.0583  0.0408
    1CHTO   O85   49   6.280   5.490   1.972 -0.3003 -0.7477 -0.0351
    1CHTO  H206   50   6.288   5.413   2.025 -3.3226 -0.2567  1.2277
    1CHTO  C121   51   6.280   5.694   1.758  0.5294  0.2092  0.1119
    1CHTO  H225   52   6.311   5.599   1.710  0.3248  0.4844 -0.5626
    1CHTO   O81   53   6.233   5.783   1.657  0.2038  0.4242  0.0784
    1CHTO  H202   54   6.172   5.844   1.693 -0.0461  0.9030 -1.1335
    1CHTO  C119   55   6.410   5.757   1.835  0.3253 -0.0086  1.0933
    1CHTO  H223   56   6.444   5.692   1.915 -1.4697 -3.1631 -0.6045
    1CHTO  C117   57   6.377   5.898   1.896  0.4345 -0.2872 -0.1455
    1CHTO  H221   58   6.378   5.972   1.816 -0.9191  0.0056  0.0945
    1CHTO   N20   59   6.486   5.949   1.990  0.3749  0.0123 -0.4467
    1CHTO  H209   60   6.495   5.866   2.059 -1.0661  1.5797  1.7041
    1CHTO  H210   61   6.576   5.971   1.936  1.0510 -0.3935  0.4984
    1CHTO   O80   62   6.549   5.769   1.741 -0.3417  0.5742  0.0210
    1CHTO  C103   63   6.666   5.652   1.747  0.1507 -0.7045 -0.1352
    1CHTO  H190   64   6.674   5.611   1.848  0.0820  0.0888  0.1904
    1CHTO  C101   65   6.658   5.533   1.655  0.0306 -0.1934  0.0512
    1CHTO  H188   66   6.651   5.577   1.555  2.1103 -0.6230 -0.2993
    1CHTO   O68   67   6.540   5.463   1.684  0.2603 -0.7492  0.0788
    1CHTO  H168   68   6.548   5.378   1.646  1.1002 -0.2833 -0.8036
    1CHTO   C99   69   6.784   5.436   1.660 -0.5458 -0.1169  0.0522
    1CHTO  H186   70   6.790   5.375   1.752  0.5559 -1.5291 -0.9360
    1CHTO   N17   71   6.783   5.326   1.553 -0.2874 -0.3234 -0.3952
    1CHTO  H174   72   6.683   5.323   1.513 -0.2950 -0.3930 -0.3710
    1CHTO  H175   73   6.819   5.235   1.599  0.1042  0.8255  1.6219
    1CHTO   C97   74   6.915   5.519   1.658 -0.3766  0.0527  0.9232
    1CHTO  H184   75   6.925   5.551   1.553 -2.1562 -0.2094  0.6524
    1CHTO   O64   76   6.909   5.630   1.749  0.1728 -0.4623 -0.3795
    1CHTO  C104   77   6.799   5.726   1.725  0.5046  0.2876 -0.5948
    1CHTO  H191   78   6.808   5.759   1.622 -2.1288  2.0107 -0.3251
    1CHTO  C108   79   6.824   5.852   1.808  0.7381  0.0365 -0.7316
    1CHTO   O71   80   6.932   5.928   1.757 -0.1240  0.1390  0.3026
    1CHTO  H171   81   7.009   5.876   1.744 -0.0914  0.6908 -1.9213
    1CHTO   O62   82   7.024   5.433   1.693  0.2936  0.2431 -0.0942
    1CHTO   C91   83   7.136   5.425   1.600  0.0957  0.1547 -0.4729
    1CHTO  H178   84   7.078   5.405   1.510 -3.2838  1.0962  1.4313
    1CHTO   C92   85   7.201   5.284   1.635  0.0643 -0.2937 -0.5432
    1CHTO  H179   86   7.210   5.279   1.744  1.3853 -0.4670 -0.6588
    1CHTO   O66   87   7.115   5.172   1.595 -0.2666 -0.0469 -0.2452
    1CHTO  H166   88   7.145   5.094   1.636 -2.4995 -0.4909  0.6146
    1CHTO   C93   89   7.351   5.265   1.578 -0.1010 -0.0297  0.2179
    1CHTO  H180   90   7.345   5.250   1.469 -0.8433  2.6943 -0.1317
    1CHTO   N16   91   7.428   5.144   1.631 -0.4536  0.7697 -0.1742
    1CHTO  H172   92   7.384   5.100   1.719  2.7714  0.1283  1.1967
    1CHTO  H173   93   7.448   5.065   1.560 -2.1352 -0.5750  0.7993
    1CHTO   C94   94   7.435   5.399   1.596 -0.3248 -0.3346  0.2675
    1CHTO  H181   95   7.444   5.427   1.701  2.0943  1.6151 -0.3966
    1CHTO   O61   96   7.362   5.505   1.532  0.0275 -0.5154 -0.2852
    1CHTO   C95   97   7.241   5.539   1.613  0.7953 -0.5781 -0.1127
    1CHTO  H182   98   7.273   5.563   1.715  2.9892  0.0905 -0.9160
    1CHTO  C106   99   7.189   5.672   1.558 -0.1036 -0.2619 -0.4399
    1CHTO   O69  100   7.286   5.774   1.556 -0.4062 -0.2804 -0.6161
    1CHTO  H169  101   7.367   5.753   1.599 -0.6276  1.4101  0.7011
    1CHTO   O63  102   7.568   5.385   1.522 -0.0480 -0.0219  0.1243
    1CHTO   C96  103   7.688   5.454   1.584  0.2683  0.0964  0.2087
    1CHTO  H183  104   7.655   5.531   1.654  0.7372  0.2880  0.2210
    1CHTO   C98  105   7.782   5.520   1.477  0.6391 -0.2432  0.9820
    1CHTO  H185  106   7.719   5.574   1.405  0.3108  1.0410  2.2120
    1CHTO   O67  107   7.873   5.612   1.540  0.0994  0.7090  0.3646
    1CHTO  H167  108   7.929   5.570   1.602  1.0571 -0.7850 -1.4552
    1CHTO  C102  109   7.873   5.414   1.398  0.4241  0.0164 -0.1576
    1CHTO  H189  110   7.962   5.470   1.368  0.5842  0.0402  0.3484
    1CHTO   N18  111   7.817   5.365   1.270 -0.1371  0.0324 -0.2508
    1CHTO  H176  112   7.802   5.455   1.211  0.1817 -0.0070 -0.3910
    1CHTO  H177  113   7.882   5.298   1.214 -0.2422 -0.0069 -0.3263
    1CHTO  C105  114   7.923   5.297   1.489  0.9406 -0.0230 -0.4294
    1CHTO  H192  115   7.864   5.208   1.468 -0.6094  0.4887  1.6073
    1CHTO   O65  116   7.908   5.329   1.627 -0.7483  0.0578 -0.1104
    1CHTO  C100  117   7.772   5.352   1.665 -0.4530 -0.3935 -0.0504
    1CHTO  H187  118   7.727   5.251   1.664  2.3984 -1.7083  0.3607
    1CHTO  C107  119   7.780   5.384   1.817  0.5869 -0.1652 -0.5429
    1CHTO   O70  120   7.892   5.477   1.850 -0.1293 -0.0214  0.1112
    1CHTO  H170  121   7.877   5.525   1.929 -1.5730 -1.7173  0.9078
    1CHTO   O57  122   8.065   5.275   1.456  0.2402  0.7358 -0.0345
    1CHTO   C85  123   8.116   5.143   1.437 -0.1702  0.2022 -0.1807
    1CHTO  H157  124   8.045   5.095   1.367 -0.6135  0.6291 -0.0286
    1CHTO   C83  125   8.107   5.050   1.572  0.1230 -0.8590 -0.1645
    1CHTO  H155  126   8.005   5.044   1.608 -0.1819  1.8674 -0.4121
    1CHTO   O56  127   8.176   5.123   1.674 -0.2119 -0.6930 -0.5860
    1CHTO  H135  128   8.168   5.081   1.757 -0.9839  0.5904  0.0141
    1CHTO   C81  129   8.159   4.909   1.539 -0.1042  0.2380  0.7943
    1CHTO  H153  130   8.099   4.874   1.455  0.9913  1.7065 -0.6354
    1CHTO   N14  131   8.131   4.805   1.640 -0.0555 -0.2328  0.3666
    1CHTO  H141  132   8.046   4.836   1.697  0.0585 -0.1135  0.4685
    1CHTO  H142  133   8.106   4.711   1.596  0.2761 -0.6177  0.9964
    1CHTO   C79  134   8.314   4.920   1.486  0.2037 -0.5703 -1.3259
    1CHTO  H151  135   8.345   4.820   1.456  1.3266 -1.3979  2.3462
    1CHTO   O52  136   8.317   5.005   1.364  0.1969  0.0920 -0.1386
    1CHTO   C86  137   8.266   5.139   1.379 -0.2911  0.0954 -0.2585
    1CHTO  H158  138   8.330   5.195   1.450  1.1114 -1.4188 -0.2754
    1CHTO   C90  139   8.268   5.224   1.243  0.7714 -1.4114  0.2810
    1CHTO   O60  140   8.397   5.245   1.191  0.0427 -0.9232  0.3546
    1CHTO  H138  141   8.435   5.159   1.182 -0.0470 -0.6867 -2.6730
    1CHTO   O50  142   8.398   4.968   1.591  0.0777  0.0582 -0.5489
    1CHTO   C73  143   8.534   5.002   1.551  0.0660  0.8033  0.1089
    1CHTO  H145  144   8.539   5.071   1.466  2.5198 -0.3084 -0.7085
    1CHTO   C74  145   8.633   4.880   1.523  0.4572 -0.0137  0.6065
    1CHTO  H146  146   8.591   4.819   1.442  2.8284 -1.7563  0.6317
    1CHTO   O54  147   8.752   4.936   1.462 -0.0413  0.0735 -0.5173
    1CHTO  H133  148   8.777   4.898   1.379 -2.0746  1.7971 -1.9504
    1CHTO   C75  149   8.648   4.795   1.651 -0.9045 -0.0701 -0.9113
    1CHTO  H147  150   8.551   4.747   1.669 -1.3966  1.2763  0.1794
    1CHTO   N13  151   8.743   4.680   1.638  0.2730 -0.4059 -0.5462
    1CHTO  H139  152   8.847   4.711   1.638  0.3638 -0.4252  3.4547
    1CHTO  H140  153   8.718   4.596   1.701  0.0717  0.4184  0.4868
    1CHTO   C76  154   8.684   4.880   1.778  0.6203  0.4675  0.0600
    1CHTO  H148  155   8.788   4.907   1.766  0.7651 -1.2553 -3.1881
    1CHTO   O49  156   8.606   5.002   1.785  0.2716  0.0526  0.0809
    1CHTO   C77  157   8.592   5.089   1.672  0.2181  0.7295 -0.2548
    1CHTO  H149  158   8.688   5.131   1.639  0.4340  0.6762  0.2974
    1CHTO   C88  159   8.499   5.204   1.710 -0.0915 -0.0249 -0.5794
    1CHTO   O58  160   8.571   5.262   1.829  0.0113  0.7813 -0.3769
    1CHTO  H136  161   8.517   5.292   1.900 -3.3111 -1.2768 -1.9053
    1CHTO   O51  162   8.673   4.802   1.914  0.2702 -0.4879  0.0124
    1CHTO   C78  163   8.596   4.864   2.025  0.0444  0.3062  0.1307
    1CHTO  H150  164   8.582   4.971   1.998  0.4892 -0.2929 -2.5906
    1CHTO   C80  165   8.674   4.859   2.159 -0.4636  0.5202  0.5889
    1CHTO  H152  166   8.693   4.753   2.184 -0.0674  0.5995  0.6193
    1CHTO   O55  167   8.801   4.913   2.137 -0.7386  0.5794 -0.3338
    1CHTO  H134  168   8.861   4.862   2.187 -1.3854 -0.5640 -0.7207
    1CHTO   C84  169   8.595   4.940   2.265 -0.4492 -0.1148  0.2750
    1CHTO  H156  170   8.599   5.040   2.223 -0.2539 -1.3421 -2.7339
    1CHTO   N15  171   8.676   4.940   2.398 -0.3030  0.5934 -0.2979
    1CHTO  H143  172   8.742   5.024   2.409 -0.0728  0.4108 -0.2929
    1CHTO  H144  173   8.624   4.920   2.490 -0.0670  1.6581  0.0773
    1CHTO   C87  174   8.446   4.899   2.271  0.0556  0.2177  0.1028
    1CHTO  H159  175   8.444   4.806   2.327 -0.8092 -0.5831 -1.2134
    1CHTO   O53  176   8.383   4.885   2.140 -0.3319 -0.0822 -0.3747
    1CHTO   C82  177   8.458   4.803   2.051 -0.1130 -0.0197 -0.4032
    1CHTO  H154  178   8.482   4.712   2.106  0.8562  1.0179  0.9409
    1CHTO   C89  179   8.376   4.767   1.926  0.2446  0.4021 -0.6333
    1CHTO   O59  180   8.334   4.887   1.858  0.3006 -0.2347 -0.1137
    1CHTO  H137  181   8.281   4.857   1.787 -0.3859 -1.6367  0.9595
    1CHTO   O45  182   8.378   5.031   2.351 -0.4620 -0.3611  0.6941
    1CHTO   C67  183   8.253   5.087   2.295 -0.4995 -0.2441  0.3482
    1CHTO  H124  184   8.209   5.003   2.241  0.6072  0.1163 -1.1563
    1CHTO   C65  185   8.161   5.146   2.404  0.1387 -0.7534 -0.2644
    1CHTO  H122  186   8.172   5.087   2.495 -1.6196 -2.5236 -1.1607
    1CHTO   O44  187   8.026   5.123   2.363  0.6427 -1.1557  0.7989
    1CHTO  H102  188   7.973   5.171   2.423  0.0710 -1.4894  0.5619
    1CHTO   C63  189   8.206   5.290   2.446 -0.9386 -0.4428 -0.4517
    1CHTO  H120  190   8.309   5.283   2.480 -0.9001 -0.8566 -0.6520
    1CHTO   N11  191   8.133   5.342   2.563 -0.0940 -0.0120 -0.3640
    1CHTO  H108  192   8.197   5.373   2.643 -0.1822  1.7622 -0.9523
    1CHTO  H109  193   8.067   5.273   2.611  2.2048 -1.2222  1.1148
    1CHTO   C61  194   8.206   5.389   2.323  0.1395  0.5078 -0.5176
    1CHTO  H118  195   8.257   5.477   2.365  2.1695 -1.3444  0.9979
    1CHTO   O40  196   8.310   5.333   2.228 -0.4580 -0.1359 -0.2665
    1CHTO   C68  197   8.288   5.198   2.183  0.3080 -0.1029  0.0688
    1CHTO  H125  198   8.383   5.163   2.138  1.2316  2.2787  0.1458
    1CHTO   C72  199   8.183   5.205   2.074  0.7876 -0.1772 -0.1439
    1CHTO   O48  200   8.162   5.081   2.019 -0.5313 -0.0535  0.1111
    1CHTO  H105  201   8.098   5.043   2.076 -1.0134 -0.8398 -0.9331
    1CHTO   O38  202   8.084   5.409   2.252  0.0731  0.4205 -0.5369
    1CHTO   C55  203   8.033   5.547   2.256 -0.6602 -0.2721  0.6693
    1CHTO  H112  204   8.071   5.603   2.343  0.3684 -0.6151  0.4431
    1CHTO   C56  205   7.876   5.539   2.257  0.1198  0.0371  0.3251
    1CHTO  H113  206   7.852   5.484   2.165 -0.7305  0.4021  0.3275
    1CHTO   O42  207   7.829   5.457   2.370 -0.6906  0.5234  0.7999
    1CHTO  H100  208   7.784   5.380   2.342 -1.6014  0.9844  1.0105
    1CHTO   C57  209   7.801   5.673   2.263  0.1162 -0.1393  0.0686
    1CHTO  H114  210   7.829   5.713   2.361  2.4590  2.1234 -1.4302
    1CHTO   N10  211   7.656   5.663   2.244  0.3285  0.2503 -0.0254
    1CHTO  H106  212   7.600   5.656   2.336 -0.5421 -1.9769 -0.6751
    1CHTO  H107  213   7.634   5.576   2.183  1.6473 -0.5150  0.5683
    1CHTO   C58  214   7.871   5.768   2.160  0.1736 -0.0576  0.2137
    1CHTO  H115  215   7.815   5.760   2.064  1.7606  2.3441 -0.9635
    1CHTO   O37  216   8.013   5.755   2.139 -0.0760  0.0402  0.3145
    1CHTO   C59  217   8.073   5.626   2.136  0.2154 -0.1880  0.4655
    1CHTO  H116  218   8.044   5.571   2.046  0.6187  0.9005 -0.3429
    1CHTO   C70  219   8.219   5.636   2.123 -0.5168  0.1580 -0.4118
    1CHTO   O46  220   8.256   5.697   1.999 -0.2516 -0.2226  0.0425
    1CHTO  H103  221   8.290   5.631   1.941  0.7193 -1.1782  1.6370
    1CHTO   O39  222   7.869   5.917   2.242  0.2554  0.1052  0.0057
    1CHTO   C60  223   7.840   6.023   2.155  0.3599 -0.4620 -0.1069
    1CHTO  H117  224   7.872   5.997   2.054 -0.0924 -0.6319 -0.2107
    1CHTO   C62  225   7.679   6.046   2.144 -0.0715 -0.2122 -0.6786
    1CHTO  H119  226   7.631   5.949   2.118  1.0652 -1.3789  1.4392
    1CHTO   O43  227   7.633   6.059   2.281  0.2629 -0.4804 -0.2214
    1CHTO  H101  228   7.539   6.066   2.285 -0.0149 -3.0235 -1.4419
    1CHTO   C66  229   7.654   6.167   2.038  0.4361  0.9160 -0.0913
    1CHTO  H123  230   7.699   6.138   1.943 -0.8256 -2.0401  0.1405
    1CHTO   N12  231   7.510   6.186   2.014  0.2128 -0.6237 -0.2386
    1CHTO  H110  232   7.455   6.094   2.002 -1.4811  0.4529 -0.8977
    1CHTO  H111  233   7.497   6.240   1.921 -0.1114  0.9146  0.6835
    1CHTO   C69  234   7.724   6.295   2.095 -0.3468  0.4442  0.5994
    1CHTO  H126  235   7.703   6.299   2.204 -0.8357 -1.1823  0.5753
    1CHTO   O41  236   7.852   6.291   2.092 -0.0801  0.2236 -0.2864
    1CHTO   C64  237   7.908   6.151   2.194 -0.4688 -0.3997  0.3484
    1CHTO  H121  238   7.890   6.178   2.300  1.1250  3.2691 -0.2220
    1CHTO   C71  239   8.063   6.129   2.192  0.1823 -0.2325  0.7089
    1CHTO   O47  240   8.120   6.229   2.110  0.2634  0.6953  0.0028
    1CHTO  H104  241   8.066   6.243   2.034 -4.1271 -1.3069  2.5316
    1CHTO   O34  242   7.681   6.431   2.002  0.2923 -0.8327 -0.8576
    1CHTO   C49  243   7.589   6.548   2.062 -0.4004  0.2586  0.4860
    1CHTO   H91  244   7.527   6.493   2.133  0.1090  1.3227  1.7851
    1CHTO   C47  245   7.516   6.628   1.945  0.3675 -0.3120  0.9263
    1CHTO   H89  246   7.448   6.697   2.000  0.2774 -0.8656  1.5153
    1CHTO   O33  247   7.439   6.539   1.863  0.8746  0.0398 -0.0136
    1CHTO   H70  248   7.386   6.589   1.804 -1.0382  0.7447  2.2342
    1CHTO   C45  249   7.630   6.716   1.863  0.0266  0.2705  0.0576
    1CHTO   H87  250   7.713   6.647   1.841 -1.3444 -1.9006  1.4072
    1CHTO    N8  251   7.589   6.782   1.737  0.0796  0.1854 -0.7016
    1CHTO   H75  252   7.513   6.859   1.739 -0.2703 -0.1529 -0.9687
    1CHTO   H76  253   7.560   6.714   1.659 -2.0904 -0.0714  0.3018
    1CHTO   C43  254   7.691   6.818   1.977 -0.3866 -0.1183  0.9135
    1CHTO   H85  255   7.759   6.883   1.922 -2.2686  1.4886  0.4309
    1CHTO   O29  256   7.754   6.742   2.081 -0.2298  0.6948 -0.2279
    1CHTO   C50  257   7.680   6.642   2.144  0.5668 -0.0558 -0.8475
    1CHTO   H92  258   7.760   6.578   2.183 -0.9025 -1.2293  0.3057
    1CHTO   C54  259   7.622   6.712   2.270 -0.9392  0.1586 -0.6451
    1CHTO   O36  260   7.570   6.623   2.371  0.1997 -0.0811  0.1539
    1CHTO   H72  261   7.537   6.665   2.448  0.6225 -1.2756  1.0049
    1CHTO   O27  262   7.589   6.899   2.030 -0.1322  0.0240  0.0979
    1CHTO   C37  263   7.515   7.023   2.059  0.0437  0.1412 -0.4444
    1CHTO   H79  264   7.490   7.063   1.960 -0.4751  1.0744  0.0540
    1CHTO   C38  265   7.388   6.988   2.141 -0.6799 -0.9111 -0.2985
    1CHTO   H80  266   7.418   6.918   2.220 -0.5973 -1.3617 -0.7252
    1CHTO   O31  267   7.301   6.920   2.043  0.0288  0.0035  0.0208
    1CHTO   H68  268   7.221   6.900   2.088 -0.6648  2.3637 -0.1210
    1CHTO   C39  269   7.328   7.124   2.193 -0.5381  0.4942 -0.5449
    1CHTO   H81  270   7.270   7.167   2.111 -2.3324  1.2800  1.0948
    1CHTO    N7  271   7.214   7.089   2.295  0.0089  0.5159  0.1799
    1CHTO   H73  272   7.249   7.080   2.397 -0.5675  0.5007  0.3781
    1CHTO   H74  273   7.147   7.174   2.289 -2.5036 -1.3611  0.7094
    1CHTO   C40  274   7.429   7.233   2.251 -0.5156 -0.9516 -0.0246
    1CHTO   H82  275   7.472   7.204   2.347 -0.5048  1.0940  0.6067
    1CHTO   O26  276   7.528   7.258   2.151  0.0233  0.7628 -0.3414
    1CHTO   C41  277   7.603   7.138   2.130  0.1499 -0.6321 -0.0932
    1CHTO   H83  278   7.658   7.095   2.215 -0.3055 -1.4018 -0.1830
    1CHTO   C52  279   7.710   7.182   2.028 -0.2900 -0.3589  0.0190
    1CHTO   O35  280   7.802   7.309   2.078  0.1089  0.6401 -0.2497
    1CHTO   H71  281   7.825   7.360   2.003  0.9618  0.8655  0.1616
    1CHTO   O28  282   7.383   7.370   2.266 -0.4075  0.2975 -0.4095
    1CHTO   C42  283   7.368   7.481   2.166 -0.7038  0.3190 -0.0125
    1CHTO   H84  284   7.382   7.430   2.071 -1.1829 -0.4294  0.3166
    1CHTO   C44  285   7.468   7.603   2.167 -0.2223 -0.0132  0.0278
    1CHTO   H86  286   7.465   7.642   2.269 -1.2746 -1.1974  0.4640
    1CHTO   O32  287   7.599   7.548   2.132 -0.4633  0.5423  0.1698
    1CHTO   H69  288   7.590   7.474   2.076  0.0056  1.5223 -1.2450
    1CHTO   C48  289   7.439   7.733   2.078  0.2293  0.3904  0.5720
    1CHTO   H90  290   7.479   7.714   1.978 -1.7551 -1.0689  0.0061
    1CHTO    N9  291   7.511   7.855   2.109 -0.1733  0.4817 -0.0264
    1CHTO   H77  292   7.451   7.939   2.076 -1.8605 -1.3623 -1.7425
    1CHTO   H78  293   7.520   7.861   2.216  0.2232  2.8231 -0.1534
    1CHTO   C51  294   7.288   7.754   2.052  0.9655 -0.3661 -0.0921
    1CHTO   H93  295   7.246   7.820   2.128 -1.8147  0.2469 -2.0894
    1CHTO   O30  296   7.214   7.633   2.042  0.0719  0.0547 -0.0018
    1CHTO   C46  297   7.227   7.545   2.162  0.6971 -0.4466  0.4591
    1CHTO   H88  298   7.201   7.608   2.247  3.5888  1.0290  0.2975
    1CHTO   C53  299   7.118   7.428   2.146  0.6320  0.2806  0.4923
    1CHTO   O72  300   6.998   7.501   2.156  0.2139  0.1631  0.7353
    1CHTO  H199  301   6.930   7.438   2.146  1.0408 -1.0468  2.4832
    1CHTO   O22  302   7.262   7.813   1.924  0.3834  0.3942 -0.4502
    1CHTO   C31  303   7.145   7.870   1.869 -0.7699  0.5147  0.6557
    1CHTO   H59  304   7.065   7.864   1.945 -2.0241  1.8669 -0.5240
    1CHTO   C29  305   7.162   8.021   1.837  0.1724  0.1535  0.1310
    1CHTO   H57  306   7.267   8.028   1.804 -0.0843  0.4507 -0.6340
    1CHTO   O21  307   7.148   8.094   1.959  0.7390 -0.6279 -0.1516
    1CHTO   H37  308   7.132   8.184   1.941  2.6425 -0.4172 -0.9031
    1CHTO   C27  309   7.064   8.083   1.729  0.3093  0.1831  0.0008
    1CHTO   H55  310   6.967   8.097   1.778 -0.7316  0.1330 -1.9903
    1CHTO    N5  311   7.114   8.221   1.683  0.5281  0.0010  0.8507
    1CHTO   H43  312   7.139   8.267   1.777  0.1884  0.3733  0.7615
    1CHTO   H44  313   7.189   8.222   1.605 -1.3388  0.2227 -1.0077
    1CHTO   C25  314   7.034   7.987   1.618 -0.0765 -0.1630 -0.0911
    1CHTO   H53  315   7.123   7.960   1.559 -1.4273 -0.1672 -2.1817
    1CHTO   O17  316   6.991   7.857   1.675 -0.3977  0.4427  0.0449
    1CHTO   C32  317   7.099   7.788   1.740 -0.8588  0.0515  0.3127
    1CHTO   H60  318   7.181   7.786   1.668 -0.8798  0.7940  0.2677
    1CHTO   C36  319   7.059   7.645   1.775  0.3871 -0.5582 -0.7700
    1CHTO   O25  320   6.929   7.631   1.842  0.0622  0.3992 -0.3702
    1CHTO   H40  321   6.878   7.559   1.811 -1.7118  1.4877 -0.0471
    1CHTO   O15  322   6.920   8.039   1.526 -0.3156 -0.1428  0.6829
    1CHTO   C19  323   6.876   7.994   1.394 -0.0011 -0.4740 -0.7884
    1CHTO   H47  324   6.784   8.052   1.377  1.6156  2.0681 -1.1017
    1CHTO   C20  325   6.969   8.040   1.279 -0.7153  0.2533  0.5489
    1CHTO   H48  326   7.074   8.013   1.300 -0.3118  0.0817 -1.5741
    1CHTO   O19  327   6.953   8.182   1.267  0.3403 -0.2402 -0.0189
    1CHTO   H35  328   7.015   8.231   1.318  0.3286 -1.3788  1.1080
    1CHTO   C21  329   6.931   7.963   1.146  0.3545 -0.0890  0.6529
    1CHTO   H49  330   6.837   8.009   1.115  0.0461 -1.0080  0.1943
    1CHTO    N4  331   7.030   7.980   1.042 -0.6996 -0.2524  0.1295
    1CHTO   H41  332   7.131   7.981   1.080 -0.0231 -0.5803 -1.6060
    1CHTO   H42  333   7.019   8.055   0.965 -1.0986  0.0061  0.4356
    1CHTO   C22  334   6.911   7.812   1.170 -0.4027  0.9367  0.4318
    1CHTO   H50  335   7.006   7.766   1.196 -0.0233  0.4728 -1.6764
    1CHTO   O14  336   6.818   7.793   1.277  0.2637  0.5278 -0.0958
    1CHTO   C23  337   6.839   7.838   1.408  0.1948  0.6312  0.3700
    1CHTO   H51  338   6.921   7.781   1.455 -1.7232 -2.2618  0.3349
    1CHTO   C34  339   6.715   7.822   1.496  0.3375  0.9882 -0.7608
    1CHTO   O23  340   6.683   7.679   1.488  0.5383  0.5670 -1.0376
    1CHTO   H38  341   6.657   7.655   1.402 -2.5311  2.2495 -0.6267
    1CHTO   O16  342   6.847   7.743   1.061 -0.5919  0.2710 -0.7168
    1CHTO   C24  343   6.920   7.605   1.011 -1.0909 -0.1185  0.0263
    1CHTO   H52  344   7.020   7.594   1.053 -1.3572 -1.2050  0.3982
    1CHTO   C26  345   6.923   7.606   0.856  0.4729 -0.5970 -0.3071
    1CHTO   H54  346   6.821   7.618   0.813  1.5396  0.4627 -2.6679
    1CHTO   O20  347   6.991   7.730   0.817  0.6973 -0.1133 -0.1213
    1CHTO   H36  348   7.084   7.718   0.827  1.0148  0.4062 -2.2709
    1CHTO   C30  349   6.995   7.481   0.798  0.5182 -0.0701 -0.6470
    1CHTO   H58  350   7.103   7.485   0.817  0.9207 -1.2147 -2.4759
    1CHTO    N6  351   6.976   7.479   0.650  0.5971  0.0232 -0.2555
    1CHTO   H45  352   6.874   7.487   0.615  1.0569  2.8597 -1.1276
    1CHTO   H46  353   7.020   7.388   0.614 -0.4574 -0.9476  0.8653
    1CHTO   C33  354   6.937   7.356   0.873 -0.0251 -0.1019 -0.3881
    1CHTO   H61  355   6.834   7.352   0.835  0.6594 -1.5089 -2.1856
    1CHTO   O18  356   6.929   7.367   1.019 -0.1477 -0.5122 -0.0494
    1CHTO   C28  357   6.847   7.478   1.059 -0.2199 -0.6238  0.4590
    1CHTO   H56  358   6.754   7.470   1.004  1.2071 -1.6310 -1.9227
    1CHTO   C35  359   6.828   7.472   1.211  0.1227  0.4872  0.0604
    1CHTO   O24  360   6.946   7.513   1.284  0.2761 -0.0420 -0.9782
    1CHTO   H39  361   6.922   7.574   1.351 -0.0792  0.2598 -1.3791
    1CHTO    O9  362   7.005   7.237   0.830  0.5059 -0.2131 -0.3798
    1CHTO   C13  363   6.938   7.105   0.834  1.3493  0.0645 -0.1210
    1CHTO   H26  364   6.828   7.119   0.828  1.3807 -0.0231 -1.0267
    1CHTO   C11  365   6.977   7.032   0.963  0.0923  0.1840 -0.5266
    1CHTO   H24  366   6.954   7.088   1.054  2.2286 -1.1682  0.8750
    1CHTO    O8  367   7.122   7.032   0.966 -0.0261 -0.4260 -0.2958
    1CHTO    H3  368   7.157   7.024   1.053  0.8691  0.2903 -0.5826
    1CHTO    C9  369   6.921   6.890   0.958 -0.6687  0.2024  0.1639
    1CHTO   H22  370   6.813   6.896   0.938 -0.6930 -1.9667 -0.5563
    1CHTO    N2  371   6.916   6.807   1.077  0.0010  0.3944 -0.0486
    1CHTO   H10  372   6.897   6.701   1.064  3.3307 -0.0765 -1.8245
    1CHTO   H11  373   7.004   6.828   1.136  1.5015  0.1037 -2.0941
    1CHTO    C7  374   6.989   6.810   0.832  0.2155  0.2488  0.2868
    1CHTO   H20  375   6.936   6.713   0.825  1.2472 -0.1659 -2.3383
    1CHTO    O4  376   6.957   6.881   0.712 -0.6261  0.2965  0.4232
    1CHTO   C14  377   6.965   7.026   0.704 -0.6620  0.6951  0.2848
    1CHTO   H27  378   6.889   7.065   0.634  0.8844 -1.7873 -2.8970
    1CHTO   C18  379   7.102   7.054   0.629  0.3573  0.2863  0.0817
    1CHTO   O13  380   7.099   7.183   0.564  0.0286  0.2953  0.1507
    1CHTO    H7  381   7.166   7.186   0.499  1.7221 -0.9651  1.7959
    1CHTO    O2  382   7.169   6.793   0.847 -0.0239  0.0976  0.1646
    1CHTO    C1  383   7.221   6.672   0.793  0.1919  0.4693  0.3839
    1CHTO   H14  384   7.158   6.639   0.708  0.3822 -1.0996  0.8360
    1CHTO    C2  385   7.236   6.562   0.912  0.0238  0.0797 -0.6549
    1CHTO   H15  386   7.281   6.607   1.001  0.1632 -0.8972 -0.2230
    1CHTO    O6  387   7.106   6.516   0.957  0.3678 -0.0566  0.2054
    1CHTO    H1  388   7.057   6.592   0.982  1.9483  0.8230  0.7353
    1CHTO    C3  389   7.318   6.435   0.857 -0.5522 -0.2835  0.8489
    1CHTO   H16  390   7.256   6.391   0.778  0.0037  1.2880 -0.5060
    1CHTO    N1  391   7.338   6.329   0.957 -0.5006 -0.3028  0.2487
    1CHTO    H8  392   7.239   6.296   0.986 -0.2221 -0.8341  0.6029
    1CHTO    H9  393   7.389   6.246   0.912 -1.0463 -0.9993  0.9132
    1CHTO    C4  394   7.444   6.487   0.786 -0.5710 -0.1711  0.4932
    1CHTO   H17  395   7.506   6.533   0.863  0.6122 -1.0242  0.0526
    1CHTO    O1  396   7.419   6.584   0.686 -0.2418  1.4880  0.3665
    1CHTO    C5  397   7.362   6.699   0.743 -0.9458  0.0099 -0.6427
    1CHTO   H18  398   7.412   6.730   0.835 -1.6165 -0.7307 -0.0170
    1CHTO   C16  399   7.361   6.805   0.636 -0.5028  0.7140  0.2098
    1CHTO   O11  400   7.417   6.936   0.681  0.6411  0.0373 -0.2151
    1CHTO    H5  401   7.396   6.998   0.614 -0.2649  0.1342  0.1592
    1CHTO    O3  402   7.512   6.379   0.719  0.2616  0.0299 -0.3964
    1CHTO    C6  403   7.653   6.393   0.682  0.3156 -0.5539 -0.8806
    1CHTO   H19  404   7.684   6.497   0.692  0.8157 -0.8895  1.3769
    1CHTO    C8  405   7.747   6.319   0.781  0.0695  0.1818  0.1595
    1CHTO   H21  406   7.715   6.215   0.782 -0.7779  0.4379  2.2710
    1CHTO    O7  407   7.722   6.382   0.909  0.1853 -0.0339  0.1768
    1CHTO    H2  408   7.786   6.364   0.974  1.5202 -0.2923 -1.1793
    1CHTO   C12  409   7.895   6.330   0.730  1.0589 -0.6386 -0.1189
    1CHTO   H25  410   7.914   6.436   0.758  0.5599 -0.8974  1.2530
    1CHTO    N3  411   7.995   6.273   0.823  0.0060 -0.0495  0.4777
    1CHTO   H12  412   8.088   6.327   0.829  0.3651 -0.7907  1.6305
    1CHTO   H13  413   8.008   6.168   0.801 -0.6400 -0.1153  0.3904
    1CHTO   C15  414   7.908   6.301   0.573 -0.5780 -0.6031 -0.3392
    1CHTO   H28  415   7.893   6.194   0.558 -0.4247 -1.0892  2.7121
    1CHTO   O10  416   8.056   6.356   0.526  0.1138  0.8633 -0.0134
    1CHTO    H4  417   8.054   6.449   0.538  1.1884  0.9210 -0.2713
    1CHTO    O5  418   7.811   6.369   0.498  0.3848 -0.5330 -0.1333
    1CHTO   C10  419   7.676   6.351   0.532  0.8039 -0.2014  0.4842
    1CHTO   H23  420   7.651   6.245   0.523 -3.6058  0.9494 -2.1227
    1CHTO   C17  421   7.586   6.435   0.444 -0.0571 -0.7563  0.1268
    1CHTO   O12  422   7.592   6.377   0.317  0.3878  0.7327  0.3851
    1CHTO    H6  423   7.516   6.329   0.288  1.0188 -2.2896  3.4555
    2CHTO  H203  424   6.789   4.428   1.824 -0.2070  0.0085  1.2579
    2CHTO   O82  425   6.706   4.452   1.788  0.4433 -0.2381 -0.4651
    2CHTO  C123  426   6.623   4.522   1.888 -0.3357  0.4309 -0.5337
    2CHTO  H227  427   6.679   4.615   1.908 -0.3688  0.4086 -0.3407
    2CHTO   O77  428   6.505   4.555   1.813  0.3922 -0.1672 -0.4556
    2CHTO  C118  429   6.420   4.645   1.888  0.8445  0.9446 -0.5219
    2CHTO  H222  430   6.467   4.732   1.935 -1.9705  1.0800  2.1422
    2CHTO  C125  431   6.302   4.684   1.793  0.0579 -0.0175  0.7767
    2CHTO   O84  432   6.335   4.778   1.687  0.3269  0.0202 -0.0670
    2CHTO  H205  433   6.310   4.760   1.598  0.3444 -0.0197 -0.0638
    2CHTO  C114  434   6.359   4.552   1.997 -0.2029  0.6055 -0.5077
    2CHTO  H218  435   6.328   4.460   1.947 -0.3921 -0.3640  1.3614
    2CHTO  C116  436   6.458   4.493   2.096  0.7109 -0.3013 -0.3953
    2CHTO  H220  437   6.501   4.579   2.152  1.7425  0.6613 -2.5994
    2CHTO   O79  438   6.397   4.401   2.177 -0.2569 -0.5813  0.0956
    2CHTO  H201  439   6.446   4.396   2.257  2.8921  0.3139 -1.7029
    2CHTO  C120  440   6.583   4.434   2.013 -0.4708 -0.6747  0.1525
    2CHTO  H224  441   6.548   4.335   1.977 -1.3821  0.2636 -1.6321
    2CHTO   N21  442   6.701   4.399   2.094 -0.5384  0.0671  0.1013
    2CHTO  H211  443   6.794   4.386   2.041  1.1541  0.2243  2.8906
    2CHTO  H212  444   6.703   4.466   2.179  1.1971  0.1818 -0.0104
    2CHTO   O75  445   6.257   4.625   2.070 -0.7580 -0.0517 -0.5388
    2CHTO  C112  446   6.095   4.555   2.068 -0.2227  0.2833 -0.3705
    2CHTO  H216  447   6.075   4.491   2.156 -0.6850 -2.8927 -2.6910
    2CHTO   O73  448   6.081   4.484   1.946 -0.2091 -0.3568  0.1459
    2CHTO  C113  449   5.958   4.414   1.940 -0.5068  0.3356 -0.9040
    2CHTO  H217  450   5.953   4.334   2.017  1.4395  0.8275 -0.2401
    2CHTO  C124  451   5.966   4.345   1.799 -0.4052 -0.3623  0.0875
    2CHTO   O83  452   6.075   4.253   1.793 -0.4426  0.4810 -0.1230
    2CHTO  H204  453   6.105   4.233   1.706  0.1456  2.1974 -0.3305
    2CHTO  C109  454   5.839   4.510   1.947 -0.6123 -0.7344  0.4898
    2CHTO  H213  455   5.840   4.570   1.855  0.3321  0.0337  0.9984
    2CHTO  C110  456   5.857   4.607   2.068  1.0444 -1.1495  0.0951
    2CHTO  H214  457   5.843   4.545   2.157  0.7397 -0.3623  0.6004
    2CHTO   O78  458   5.754   4.710   2.073  0.2383  0.1338  0.2806
    2CHTO  H200  459   5.699   4.710   1.998 -0.2327  1.3608  0.6107
    2CHTO  C111  460   6.000   4.670   2.074  0.3142  0.8812 -0.0566
    2CHTO  H215  461   6.013   4.727   1.981 -2.3656  3.2613  0.9387
    2CHTO   N19  462   6.017   4.761   2.186  0.3306  0.4947  0.3349
    2CHTO  H207  463   5.932   4.811   2.230 -0.6989  1.7041 -2.8843
    2CHTO  H208  464   6.085   4.841   2.159  0.6331  0.2805  0.4536
    2CHTO   O74  465   5.718   4.425   1.952 -0.1578 -0.1281  0.0192
    2CHTO  C115  466   5.609   4.455   1.824  0.4991  0.0501  0.2652
    2CHTO  H219  467   5.656   4.503   1.739  1.2789 -2.2577 -0.6509
    2CHTO   O76  468   5.566   4.313   1.755 -0.1774  0.1661 -0.3264
    2CHTO  C122  469   5.484   4.235   1.845 -0.0016 -0.5227  0.1699
    2CHTO  H226  470   5.551   4.188   1.917 -0.2563 -0.9048  0.1637
    2CHTO  C126  471   5.419   4.120   1.750  0.0860 -0.1281  0.5652
    2CHTO   O85  472   5.309   4.174   1.671 -0.0309 -0.6955 -0.1945
    2CHTO  H206  473   5.262   4.099   1.638 -2.1182 -0.1773  1.5335
    2CHTO  C121  474   5.370   4.306   1.934 -0.4031 -0.1026  0.2155
    2CHTO  H225  475   5.271   4.256   1.934  0.2024 -1.3040 -0.1059
    2CHTO   O81  476   5.395   4.302   2.074 -0.1913  0.2030 -0.1164
    2CHTO  H202  477   5.468   4.357   2.096 -2.6407  3.9825 -1.0345
    2CHTO  C119  478   5.345   4.452   1.882 -0.5514 -0.2822 -0.3964
    2CHTO  H223  479   5.317   4.436   1.778 -0.0602 -1.6346 -0.3257
    2CHTO  C117  480   5.482   4.532   1.885  0.1099  0.0331  0.6345
    2CHTO  H221  481   5.511   4.554   1.988  2.1063 -1.7492  0.4836
    2CHTO   N20  482   5.464   4.665   1.823  0.6539 -0.2741  0.1926
    2CHTO  H209  483   5.563   4.694   1.792  0.3160  0.9777  0.2569
    2CHTO  H210  484   5.427   4.737   1.894 -1.6324 -1.5818  0.3808
    2CHTO   O80  485   5.217   4.524   1.942  0.0289 -0.4382  0.6814
    2CHTO  C103  486   5.111   4.604   1.856 -0.3967 -0.3708 -0.9956
    2CHTO  H190  487   5.169   4.681   1.804  1.1267 -0.1177  1.0318
    2CHTO  C101  488   5.013   4.527   1.765  0.4143  0.0106 -0.7861
    2CHTO  H188  489   4.952   4.454   1.818  1.1577  1.1239  1.6972
    2CHTO   O68  490   5.094   4.451   1.656  0.0290 -0.4800 -0.0647
    2CHTO  H168  491   5.164   4.498   1.616  0.8859 -2.5414 -1.0562
    2CHTO   C99  492   4.918   4.634   1.684 -0.1988 -0.1205 -0.6774
    2CHTO  H186  493   4.974   4.701   1.615 -1.6983 -2.0901 -3.8928
    2CHTO   N17  494   4.830   4.573   1.578  0.1334 -0.3014  0.4805
    2CHTO  H174  495   4.826   4.465   1.587 -0.6476 -0.3432 -0.2952
    2CHTO  H175  496   4.855   4.599   1.476 -2.2995  1.8465  0.3856
    2CHTO   C97  497   4.842   4.723   1.791 -0.3994  0.3128  0.2861
    2CHTO  H184  498   4.752   4.675   1.832 -1.0429  1.5296  0.2997
    2CHTO   O64  499   4.926   4.775   1.896  0.2655  0.4588  0.0538
    2CHTO  C104  500   5.019   4.683   1.959  0.6350  0.2800  0.8643
    2CHTO  H191  501   4.961   4.613   2.018 -1.7244 -0.4322 -2.2110
    2CHTO  C108  502   5.096   4.779   2.053 -0.2619 -0.3162 -0.2017
    2CHTO   O71  503   5.179   4.705   2.141  0.2469 -0.0808  0.0985
    2CHTO  H171  504   5.242   4.764   2.175  1.3925 -1.4102  0.3005
    2CHTO   O62  505   4.812   4.848   1.728  0.3424  0.1971 -0.2212
    2CHTO   C91  506   4.672   4.885   1.725  0.5705  0.2399 -0.8998
    2CHTO  H178  507   4.607   4.814   1.776  1.4860 -0.9782 -1.3886
    2CHTO   C92  508   4.621   4.903   1.574  0.1818  0.1536  0.1848
    2CHTO  H179  509   4.664   4.829   1.505 -3.7337 -1.7542 -0.3340
    2CHTO   O66  510   4.477   4.878   1.559 -0.4412 -0.3195 -0.4379
    2CHTO  H166  511   4.458   4.787   1.570 -0.0697 -0.3657 -0.1699
    2CHTO   C93  512   4.643   5.054   1.512 -0.5594  0.5918  0.4836
    2CHTO  H180  513   4.566   5.062   1.434 -1.4394  1.8870  1.4705
    2CHTO   N16  514   4.781   5.083   1.462  0.2623  0.4130  0.6601
    2CHTO  H172  515   4.768   5.116   1.360  2.0037 -0.9427 -0.0314
    2CHTO  H173  516   4.847   4.997   1.461 -1.1630 -0.7046 -0.3048
    2CHTO   C94  517   4.610   5.164   1.624  0.4867  0.2312 -0.5296
    2CHTO  H181  518   4.692   5.232   1.648 -0.2003  1.0006 -0.3127
    2CHTO   O61  519   4.561   5.099   1.743 -0.8147 -0.0308  0.0088
    2CHTO   C95  520   4.653   5.014   1.806 -0.1991 -0.1906 -1.5814
    2CHTO  H182  521   4.751   5.060   1.810  0.8899 -2.3157 -3.0466
    2CHTO  C106  522   4.604   4.995   1.959 -0.4415  0.0460 -0.3785
    2CHTO   O69  523   4.689   4.916   2.041 -0.0546 -0.1593  0.4041
    2CHTO  H169  524   4.738   4.969   2.100 -1.8124  0.0363  1.7142
    2CHTO   O63  525   4.479   5.246   1.585 -0.1783 -0.1608 -0.1496
    2CHTO   C96  526   4.475   5.374   1.670  0.5090  0.7325 -0.3364
    2CHTO  H183  527   4.559   5.378   1.741  1.8665  1.3533 -1.9487
    2CHTO   C98  528   4.332   5.391   1.744 -0.1305  0.8789  0.4335
    2CHTO  H185  529   4.247   5.383   1.675 -0.8054  1.1978  1.2191
    2CHTO   O67  530   4.316   5.287   1.837 -0.1221 -0.6237 -0.0440
    2CHTO  H167  531   4.329   5.199   1.806  0.3389 -1.1022  1.4630
    2CHTO  C102  532   4.329   5.539   1.807  1.0092 -0.4295  0.2025
    2CHTO  H189  533   4.410   5.552   1.880 -1.4047  2.0395  2.5573
    2CHTO   N18  534   4.203   5.570   1.888 -0.2057 -0.4375 -0.0923
    2CHTO  H176  535   4.212   5.670   1.928 -1.6991 -0.2386 -0.2155
    2CHTO  H177  536   4.186   5.499   1.967 -1.7151  2.3677  2.2122
    2CHTO  C105  537   4.351   5.646   1.695 -0.4186 -0.3385  0.0157
    2CHTO  H192  538   4.277   5.633   1.616  1.6113 -1.6725 -1.7123
    2CHTO   O65  539   4.483   5.622   1.648  0.3461  0.2786  0.6009
    2CHTO  C100  540   4.500   5.493   1.576 -0.6710 -0.6647 -0.9007
    2CHTO  H187  541   4.435   5.483   1.488 -0.4001  1.9018 -1.4438
    2CHTO  C107  542   4.645   5.492   1.526 -0.7064 -0.1754  0.5002
    2CHTO   O70  543   4.658   5.584   1.419 -0.4895  0.6183  1.0662
    2CHTO  H170  544   4.740   5.628   1.415  0.3035 -0.8637  0.3185
    2CHTO   O57  545   4.328   5.800   1.762 -0.2135 -0.2540  0.6384
    2CHTO   C85  546   4.255   5.889   1.676  0.1415 -0.1612  0.2919
    2CHTO  H157  547   4.160   5.836   1.652 -2.1960  3.3984  1.3319
    2CHTO   C83  548   4.333   5.910   1.544 -0.4453 -0.4092  0.4069
    2CHTO  H155  549   4.333   5.821   1.481  1.9953 -0.0422 -0.1555
    2CHTO   O56  550   4.470   5.929   1.576 -0.1173  0.6043 -0.7125
    2CHTO  H135  551   4.515   5.940   1.494  0.6235  1.4945 -0.1992
    2CHTO   C81  552   4.276   6.022   1.462  0.2409 -0.1279  0.9189
    2CHTO  H153  553   4.173   5.991   1.442 -0.0555  1.2419  0.2680
    2CHTO   N14  554   4.341   6.042   1.327  0.8985  0.1609  0.2933
    2CHTO  H141  555   4.427   5.978   1.328  0.1294 -0.8684  1.0019
    2CHTO  H142  556   4.271   6.001   1.257 -2.3281  1.1086  2.8716
    2CHTO   C79  557   4.262   6.155   1.550  0.3120  0.8465 -0.7683
    2CHTO  H151  558   4.205   6.225   1.489 -0.0700 -0.4333 -1.9187
    2CHTO   O52  559   4.170   6.131   1.661  0.0885 -0.5849  0.1546
    2CHTO   C86  560   4.227   6.027   1.750  0.2983 -0.1833 -0.1849
    2CHTO  H158  561   4.317   6.076   1.794  0.6981 -3.6945  3.1301
    2CHTO   C90  562   4.124   6.008   1.871 -0.0905 -0.1992 -0.6446
    2CHTO   O60  563   4.108   6.135   1.946 -0.0493  0.2307 -0.1293
    2CHTO  H138  564   4.096   6.108   2.035  0.4418 -0.6588 -0.3172
    2CHTO   O50  565   4.387   6.207   1.582  0.8054  0.3522  0.0957
    2CHTO   C73  566   4.413   6.337   1.643  0.1744  0.0325 -0.2744
    2CHTO  H145  567   4.332   6.360   1.715  0.7722  1.3619 -0.0080
    2CHTO   C74  568   4.415   6.445   1.527  0.2952 -0.1186 -0.5960
    2CHTO  H146  569   4.314   6.449   1.485 -0.2420 -1.1031  0.5612
    2CHTO   O54  570   4.443   6.575   1.580 -0.2737  0.0425  0.0031
    2CHTO  H133  571   4.444   6.633   1.506  2.0767 -1.0313 -0.8536
    2CHTO   C75  572   4.532   6.401   1.422  0.2378  0.3883 -0.0173
    2CHTO  H147  573   4.509   6.305   1.373 -1.3221  1.0127 -0.5460
    2CHTO   N13  574   4.551   6.494   1.311 -0.3350 -0.2673 -0.0338
    2CHTO  H139  575   4.494   6.466   1.225 -1.4091  0.9984  0.2446
    2CHTO  H140  576   4.518   6.593   1.341 -0.2317  0.4497 -2.1873
    2CHTO   C76  577   4.670   6.379   1.506  0.2397  0.2640 -0.4684
    2CHTO  H148  578   4.688   6.479   1.545 -0.0111  0.0590  0.1670
    2CHTO   O49  579   4.652   6.288   1.624 -0.3502 -0.5503 -0.2744
    2CHTO   C77  580   4.550   6.330   1.716 -0.1695  1.0696  0.0547
    2CHTO  H149  581   4.572   6.431   1.748  0.4796  0.9594 -0.0511
    2CHTO   C88  582   4.560   6.237   1.842  0.0315  0.3578 -0.2039
    2CHTO   O58  583   4.545   6.115   1.817  0.5796 -0.0825  0.1972
    2CHTO  H136  584   4.620   6.073   1.857  1.5488  1.6190  0.2079
    2CHTO   O51  585   4.798   6.307   1.405 -0.5008 -0.1794  0.3845
    2CHTO   C78  586   4.899   6.220   1.462  0.2561 -0.0475 -0.2849
    2CHTO  H150  587   4.869   6.210   1.568  2.7717 -0.3918  0.4105
    2CHTO   C80  588   5.049   6.268   1.451 -0.1552  0.5069 -0.9912
    2CHTO  H152  589   5.080   6.278   1.345  0.0537  0.3131 -0.9473
    2CHTO   O55  590   5.047   6.400   1.509  0.0360  0.9669  0.5380
    2CHTO  H134  591   5.015   6.463   1.447  1.2223  1.7434  0.6840
    2CHTO   C84  592   5.154   6.167   1.520  0.4348  0.1069 -0.7203
    2CHTO  H156  593   5.146   6.167   1.629  3.0208  0.6073 -0.5015
    2CHTO   N15  594   5.301   6.200   1.500  0.2096 -0.7339 -0.0809
    2CHTO  H143  595   5.362   6.131   1.446 -2.0452 -1.1595 -2.1970
    2CHTO  H144  596   5.347   6.230   1.592 -1.0727  0.8925  0.0659
    2CHTO   C87  597   5.120   6.023   1.476  0.2244 -0.3366  0.3555
    2CHTO  H159  598   5.152   6.024   1.372  0.4755  0.6893  0.4383
    2CHTO   O53  599   4.966   5.999   1.480  0.4606  0.5862 -0.4026
    2CHTO   C82  600   4.881   6.084   1.398 -0.1051 -0.5455  0.0252
    2CHTO  H154  601   4.915   6.086   1.295 -1.2158 -1.0158 -0.3633
    2CHTO   C89  602   4.734   6.018   1.396 -0.7094 -0.7801  0.2327
    2CHTO   O59  603   4.744   5.883   1.363 -0.0891  0.0664  0.1950
    2CHTO  H137  604   4.694   5.863   1.286 -1.5689 -0.6197  1.3213
    2CHTO   O45  605   5.201   5.901   1.571  0.6524  0.2892  0.3002
    2CHTO   C67  606   5.118   5.819   1.659 -0.3491 -0.1937  1.1247
    2CHTO  H124  607   5.026   5.876   1.668 -1.3868 -1.5730 -0.5032
    2CHTO   C65  608   5.074   5.673   1.604  0.4483 -0.6776  0.0969
    2CHTO  H122  609   5.135   5.657   1.515 -1.6530 -1.3913 -1.2497
    2CHTO   O44  610   4.932   5.682   1.576 -1.0564  0.1679  0.3967
    2CHTO  H102  611   4.918   5.752   1.515 -1.2647 -0.4717 -0.2816
    2CHTO   C63  612   5.113   5.560   1.702 -0.0300 -0.0745 -0.6638
    2CHTO  H120  613   5.221   5.563   1.718 -0.2516  2.0652  0.6501
    2CHTO   N11  614   5.093   5.420   1.659 -0.2968  0.0456  0.6743
    2CHTO  H108  615   5.001   5.386   1.701 -0.4514  0.7567  0.9241
    2CHTO  H109  616   5.174   5.359   1.692 -0.3101  0.1890  0.9715
    2CHTO   C61  617   5.043   5.595   1.840  0.4549  0.3281  0.4497
    2CHTO  H118  618   5.086   5.525   1.913 -0.5056 -0.0224  0.6876
    2CHTO   O40  619   5.071   5.731   1.879  0.0717  0.1741 -0.5484
    2CHTO   C68  620   5.180   5.809   1.807 -0.2697  0.1725 -0.2858
    2CHTO  H125  621   5.275   5.752   1.799 -0.6470 -0.8665  2.3546
    2CHTO   C72  622   5.216   5.952   1.874  0.1309 -0.6091  0.2864
    2CHTO   O48  623   5.279   5.949   2.004 -0.3219 -0.2834  0.6132
    2CHTO  H105  624   5.229   5.899   2.066  0.6528 -1.3975  0.5007
    2CHTO   O38  625   4.900   5.582   1.837  0.5338 -0.4319  0.3066
    2CHTO   C55  626   4.829   5.577   1.962  0.2785  0.7828 -0.6948
    2CHTO  H112  627   4.892   5.629   2.035 -0.7102  1.5563 -0.3752
    2CHTO   C56  628   4.801   5.423   1.997  0.4679  0.6001 -0.1703
    2CHTO  H113  629   4.744   5.377   1.914 -0.0176 -0.1783  0.5882
    2CHTO   O42  630   4.928   5.350   2.011  0.4827 -1.0323  0.1449
    2CHTO  H100  631   4.989   5.363   1.940 -0.5446  2.9663 -0.0914
    2CHTO   C57  632   4.709   5.415   2.123  0.8505  0.5446 -0.3352
    2CHTO  H114  633   4.766   5.429   2.215 -0.4492  2.7524  0.1585
    2CHTO   N10  634   4.648   5.285   2.146 -0.4374  0.7753  0.0610
    2CHTO  H106  635   4.617   5.234   2.056 -0.3804 -0.4829  0.7458
    2CHTO  H107  636   4.719   5.226   2.202 -0.0745 -0.1210 -1.3153
    2CHTO   C58  637   4.589   5.519   2.121  0.1502 -0.0444  0.0111
    2CHTO  H115  638   4.517   5.490   2.041 -0.8540 -0.3661  1.0123
    2CHTO   O37  639   4.627   5.652   2.080 -0.5264 -0.5959 -0.5135
    2CHTO   C59  640   4.703   5.653   1.957  0.2161 -0.3429 -0.3266
    2CHTO  H116  641   4.639   5.604   1.883 -0.1134  0.0643 -0.3137
    2CHTO   C70  642   4.725   5.803   1.911 -0.1220  0.0121 -0.4536
    2CHTO   O46  643   4.724   5.802   1.765  0.4475  0.2183 -0.5730
    2CHTO  H103  644   4.639   5.779   1.733  1.6190 -2.2392 -2.0704
    2CHTO   O39  645   4.521   5.538   2.271 -0.1562 -0.4809  0.4447
    2CHTO   C60  646   4.381   5.566   2.273 -0.0286 -0.5039 -0.3387
    2CHTO  H117  647   4.363   5.624   2.183  0.1067 -0.4907 -0.3579
    2CHTO   C62  648   4.300   5.436   2.285  0.3038 -1.4281 -1.1713
    2CHTO  H119  649   4.316   5.379   2.191 -4.6158 -2.0634 -1.7474
    2CHTO   O43  650   4.334   5.358   2.403  0.5418  0.0593 -0.7043
    2CHTO  H101  651   4.276   5.284   2.403  0.2817  0.2588 -0.6684
    2CHTO   C66  652   4.142   5.465   2.276 -0.4299  0.0791 -0.5754
    2CHTO  H123  653   4.127   5.513   2.179 -0.4730 -0.9878 -1.1049
    2CHTO   N12  654   4.058   5.345   2.267  0.2032  0.0072  0.5795
    2CHTO  H110  655   4.067   5.313   2.165  0.9183  0.0530  0.6273
    2CHTO  H111  656   4.080   5.266   2.337 -3.6294 -1.3013  0.4629
    2CHTO   C69  657   4.098   5.560   2.391  0.7132 -0.5506  0.3413
    2CHTO  H126  658   4.114   5.508   2.488  1.6552 -1.4720 -0.3023
    2CHTO   O41  659   4.180   5.690   2.398 -0.2087 -0.4704  0.4090
    2CHTO   C64  660   4.352   5.660   2.395  0.0148 -0.1044 -0.4063
    2CHTO  H121  661   4.385   5.613   2.491 -0.1078  1.2178  0.2985
    2CHTO   C71  662   4.423   5.797   2.380  0.7087  0.3233 -0.0677
    2CHTO   O47  663   4.564   5.789   2.404 -0.0247  0.4345  0.0186
    2CHTO  H104  664   4.578   5.817   2.492  1.2017  0.1801 -0.0931
    2CHTO   O34  665   3.926   5.592   2.371  0.4252  0.3931 -0.3714
    2CHTO   C49  666   3.831   5.742   2.390  0.0178  0.7161  0.5120
    2CHTO   H91  667   3.755   5.718   2.464  1.7866 -1.0230  1.8215
    2CHTO   C47  668   3.776   5.772   2.258  0.4389 -0.4711  0.2576
    2CHTO   H89  669   3.707   5.857   2.282 -1.0741 -1.6292  0.1016
    2CHTO   O33  670   3.697   5.662   2.220  0.3133  1.0126  0.0498
    2CHTO   H70  671   3.617   5.684   2.176 -0.2685  2.0893  1.5947
    2CHTO   C45  672   3.895   5.813   2.158 -0.7652 -0.5263 -0.4249
    2CHTO   H87  673   3.982   5.746   2.164  0.9271  1.5805 -0.9638
    2CHTO    N8  674   3.849   5.821   2.018  0.1047  0.7368  0.1834
    2CHTO   H75  675   3.786   5.734   2.003 -2.4583  2.5785 -0.0772
    2CHTO   H76  676   3.781   5.904   2.003 -0.2472  0.0058 -2.5760
    2CHTO   C43  677   3.943   5.956   2.215 -0.1554 -0.1288  0.4520
    2CHTO   H85  678   4.018   5.998   2.148  0.9310  1.0708  2.3787
    2CHTO   O29  679   3.994   5.937   2.350 -0.0181  0.4067 -0.6768
    2CHTO   C50  680   3.922   5.858   2.441  0.2982 -0.3137  0.0702
    2CHTO   H92  681   3.999   5.816   2.507  0.6401  0.0792 -0.0753
    2CHTO   C54  682   3.837   5.941   2.540  0.8120 -1.0159 -0.1003
    2CHTO   O36  683   3.920   5.996   2.645 -0.1476 -0.2746 -0.0459
    2CHTO   H72  684   3.869   6.052   2.700 -0.6842 -1.4337  0.6624
    2CHTO   O27  685   3.835   6.057   2.229  0.0953  0.2790  0.2067
    2CHTO   C37  686   3.758   6.143   2.149 -0.0720  0.2959 -0.8250
    2CHTO   H79  687   3.795   6.132   2.046  4.7593  0.8582  0.7442
    2CHTO   C38  688   3.603   6.128   2.172 -0.0757 -0.3686  0.5360
    2CHTO   H80  689   3.585   6.134   2.280 -3.2290  1.4875 -0.0381
    2CHTO   O31  690   3.564   6.000   2.116 -0.0768 -0.5033 -0.8511
    2CHTO   H68  691   3.574   6.007   2.023 -0.4303  1.7452 -0.7461
    2CHTO   C39  692   3.529   6.241   2.103  0.0057 -0.0577  0.6352
    2CHTO   H81  693   3.536   6.230   1.994  1.2212  2.4241  0.4321
    2CHTO    N7  694   3.382   6.229   2.138  0.6299 -0.0736 -0.1944
    2CHTO   H73  695   3.327   6.141   2.106  0.1479  0.5419 -1.1016
    2CHTO   H74  696   3.329   6.319   2.110 -1.3030 -1.1138  0.0038
    2CHTO   C40  697   3.584   6.389   2.129  1.0100 -0.2153 -0.6883
    2CHTO   H82  698   3.562   6.408   2.233  0.2305 -0.3736 -0.8254
    2CHTO   O26  699   3.726   6.389   2.105 -0.3734 -0.3194 -0.6220
    2CHTO   C41  700   3.798   6.286   2.188 -0.1509 -0.5653  0.1437
    2CHTO   H83  701   3.774   6.295   2.295  1.5796  0.9768  0.4221
    2CHTO   C52  702   3.956   6.313   2.174  1.7127 -0.1889 -0.5299
    2CHTO   O35  703   3.988   6.455   2.208 -0.4441  0.0889  0.2456
    2CHTO   H71  704   3.968   6.518   2.141  0.8392  0.9553  0.6653
    2CHTO   O28  705   3.527   6.496   2.047  0.3219  0.1390  0.1955
    2CHTO   C42  706   3.531   6.638   2.100  0.0604 -0.0746 -0.0053
    2CHTO   H84  707   3.474   6.696   2.026  1.7965 -0.2196 -1.4930
    2CHTO   C44  708   3.675   6.697   2.101 -0.3458 -0.2117 -0.2000
    2CHTO   H86  709   3.739   6.637   2.167 -0.8622  1.9295  2.3272
    2CHTO   O32  710   3.723   6.698   1.965  0.1406  0.3216 -0.4748
    2CHTO   H69  711   3.673   6.766   1.925  0.0728  0.6374  0.1424
    2CHTO   C48  712   3.673   6.840   2.174 -1.0817 -0.2970 -0.0219
    2CHTO   H90  713   3.615   6.917   2.123  1.1819  1.1958 -0.3859
    2CHTO    N9  714   3.814   6.896   2.196  0.0153 -0.3912 -0.3832
    2CHTO   H77  715   3.831   6.994   2.155 -1.5383  0.1360  0.2095
    2CHTO   H78  716   3.888   6.822   2.171  1.1786 -0.4163  2.8547
    2CHTO   C51  717   3.595   6.840   2.307 -0.8347  0.5298 -0.2935
    2CHTO   H93  718   3.644   6.779   2.383 -1.1462 -2.1915 -2.2273
    2CHTO   O30  719   3.461   6.797   2.283  0.0525 -0.2740  0.1714
    2CHTO   C46  720   3.458   6.661   2.236 -0.4955 -0.4567  0.3067
    2CHTO   H88  721   3.500   6.595   2.311  0.3535  0.0980  0.3275
    2CHTO   C53  722   3.318   6.640   2.223  0.1779  0.5703  0.3969
    2CHTO   O72  723   3.246   6.727   2.128 -0.5139  0.0427 -0.1192
    2CHTO  H199  724   3.173   6.676   2.098 -0.3013 -0.4273  0.1545
    2CHTO   O22  725   3.577   6.970   2.370  0.4828 -0.7782 -0.1950
    2CHTO   C31  726   3.548   6.972   2.521 -0.7407 -0.0135  0.0053
    2CHTO   H59  727   3.524   7.078   2.545 -0.1143 -0.1597  1.2991
    2CHTO   C29  728   3.433   6.882   2.573  0.9551  0.1084  0.0165
    2CHTO   H57  729   3.440   6.777   2.543 -1.3360 -0.1127  0.2000
    2CHTO   O21  730   3.309   6.928   2.512 -0.1211 -0.4552 -0.5676
    2CHTO   H37  731   3.318   6.937   2.419  0.6491  1.4224 -0.3316
    2CHTO   C27  732   3.416   6.892   2.730 -0.3368  0.2590 -0.3924
    2CHTO   H55  733   3.362   6.985   2.752 -0.2528  0.4588 -1.0321
    2CHTO    N5  734   3.331   6.791   2.787  0.4016  0.0014 -0.0740
    2CHTO   H43  735   3.364   6.689   2.779 -1.7534 -0.8648  1.5247
    2CHTO   H44  736   3.307   6.818   2.889 -1.5481  1.6261 -0.9317
    2CHTO   C25  737   3.556   6.880   2.806  0.2562 -0.3846  0.0521
    2CHTO   H53  738   3.593   6.777   2.800  2.0290  0.1729  0.9634
    2CHTO   O17  739   3.667   6.956   2.749  0.2801 -0.3475  0.2575
    2CHTO   C32  740   3.682   6.935   2.605  0.8290  0.0710 -0.2534
    2CHTO   H60  741   3.698   6.828   2.587 -0.5456 -0.1519 -0.1861
    2CHTO   C36  742   3.811   7.012   2.566 -0.1657  0.4093  0.3003
    2CHTO   O25  743   3.785   7.152   2.557  0.0576  0.2398  0.0144
    2CHTO   H40  744   3.736   7.155   2.477  0.8428 -1.6614 -0.5826
    2CHTO   O15  745   3.544   6.929   2.961 -0.4640  0.2873  0.1049
    2CHTO   C19  746   3.541   6.847   3.079  0.2342 -0.2221  0.2461
    2CHTO   H47  747   3.441   6.802   3.067 -0.3829  0.6903  1.7476
    2CHTO   C20  748   3.638   6.724   3.093 -0.1495 -0.4189  0.8401
    2CHTO   H48  749   3.742   6.758   3.102  0.3944 -1.3544 -1.6734
    2CHTO   O19  750   3.621   6.630   2.983 -0.3795  0.1447  0.1289
    2CHTO   H35  751   3.703   6.586   2.968 -0.6044 -0.2054 -0.0864
    2CHTO   C21  752   3.610   6.641   3.224  0.5150  0.4342  0.4716
    2CHTO   H49  753   3.517   6.585   3.211 -0.3559  1.8071  0.7410
    2CHTO    N4  754   3.718   6.543   3.250  0.1440 -0.1594 -0.0177
    2CHTO   H41  755   3.712   6.518   3.355  0.4520  0.6207  0.1917
    2CHTO   H42  756   3.695   6.457   3.189 -1.9350  0.3196  0.0609
    2CHTO   C22  757   3.591   6.734   3.345 -0.0688 -0.5332 -0.1610
    2CHTO   H50  758   3.687   6.774   3.379  0.0421 -2.0755  1.4062
    2CHTO   O14  759   3.502   6.843   3.320 -0.0794  0.0279 -0.2361
    2CHTO   C23  760   3.547   6.930   3.213  0.7124 -0.2472 -0.6846
    2CHTO   H51  761   3.650   6.960   3.237  0.5815  0.8908 -1.5284
    2CHTO   C34  762   3.454   7.055   3.201 -0.1950  0.2422  0.7233
    2CHTO   O23  763   3.317   7.024   3.212 -0.0409  0.2808  0.6832
    2CHTO   H38  764   3.275   7.095   3.258  0.8238  1.1349  0.1713
    2CHTO   O16  765   3.529   6.666   3.451 -0.5265 -0.1640 -0.4379
    2CHTO   C24  766   3.568   6.706   3.612  0.5485 -0.2562  0.1777
    2CHTO   H52  767   3.643   6.785   3.617 -1.3321  1.6326 -0.8687
    2CHTO   C26  768   3.623   6.586   3.689 -0.1899  0.2210  0.1073
    2CHTO   H54  769   3.544   6.509   3.700 -0.0850  0.2563  1.1922
    2CHTO   O20  770   3.735   6.533   3.614  0.2111 -1.4224 -0.0796
    2CHTO   H36  771   3.710   6.521   3.524 -2.4199 -0.8835  0.5234
    2CHTO   C30  772   3.655   6.631   3.835  0.0468  0.2724 -0.2377
    2CHTO   H58  773   3.726   6.715   3.832  2.0654 -1.1393  4.1247
    2CHTO    N6  774   3.725   6.523   3.910  0.0970 -0.3303  0.5588
    2CHTO   H45  775   3.662   6.436   3.919 -2.8711  1.7072  0.2949
    2CHTO   H46  776   3.763   6.556   4.006  3.2457  0.5590 -0.9406
    2CHTO   C33  777   3.533   6.690   3.909  0.3976 -0.3770 -0.5034
    2CHTO   H61  778   3.464   6.608   3.936  1.1326 -0.4787  1.1269
    2CHTO   O18  779   3.472   6.785   3.820  0.5301  1.0574 -0.0301
    2CHTO   C28  780   3.440   6.762   3.683 -0.6364  0.4514  0.7035
    2CHTO   H56  781   3.365   6.683   3.680 -0.6108  0.4629 -0.6153
    2CHTO   C35  782   3.400   6.889   3.613  0.4612 -0.2190 -0.0552
    2CHTO   O24  783   3.269   6.950   3.651 -0.0154  0.0276  0.2378
    2CHTO   H39  784   3.264   7.042   3.635  0.0048 -0.3762 -2.3833
    2CHTO    O9  785   3.571   6.750   4.032 -0.0967  0.1680 -0.2972
    2CHTO   C13  786   3.462   6.765   4.147  0.3980  0.0038 -0.6818
    2CHTO   H26  787   3.398   6.674   4.151  1.0946 -0.4184  1.1748
    2CHTO   C11  788   3.377   6.900   4.109 -0.1997 -0.7446  0.3703
    2CHTO   H24  789   3.330   6.886   4.011  1.6808  3.7334 -1.3135
    2CHTO    O8  790   3.469   7.016   4.084  0.0477  0.7655 -0.6174
    2CHTO    H3  791   3.483   7.071   4.158  0.4394 -1.1783  0.7915
    2CHTO    C9  792   3.278   6.926   4.226 -0.3387 -0.2463 -0.4468
    2CHTO   H22  793   3.230   6.828   4.243 -0.4585 -0.1984 -0.5119
    2CHTO    N2  794   3.170   7.019   4.186 -0.2848 -0.3320 -0.3671
    2CHTO   H10  795   3.076   6.967   4.176  0.8206 -2.9654  2.4471
    2CHTO   H11  796   3.172   7.104   4.252 -0.4041 -0.0951 -0.6652
    2CHTO    C7  797   3.351   6.954   4.353 -0.1817 -0.2529  0.0435
    2CHTO   H20  798   3.268   6.949   4.427 -0.4568 -0.3765 -0.2688
    2CHTO    O4  799   3.445   6.853   4.395 -0.3854  0.3572 -0.2146
    2CHTO   C14  800   3.530   6.791   4.284 -0.1189  0.2465  0.6804
    2CHTO   H27  801   3.562   6.696   4.331 -1.7152 -0.4520  0.3864
    2CHTO   C18  802   3.654   6.874   4.268 -0.6624 -0.4177  0.4739
    2CHTO   O13  803   3.728   6.883   4.391  0.0426 -0.3854  0.2382
    2CHTO    H7  804   3.814   6.919   4.378 -0.2459  1.0510  2.0473
    2CHTO    O2  805   3.430   7.092   4.341  0.8172 -0.3906  0.3121
    2CHTO    C1  806   3.408   7.194   4.437 -0.0124  0.2221 -0.0218
    2CHTO   H14  807   3.330   7.158   4.507  0.0909 -0.9754 -0.5013
    2CHTO    C2  808   3.356   7.327   4.365  0.5567  0.6529  0.2015
    2CHTO   H15  809   3.421   7.338   4.277 -1.7115 -1.9163 -1.8996
    2CHTO    O6  810   3.221   7.309   4.329  0.0424  0.1453  0.4574
    2CHTO    H1  811   3.175   7.254   4.390  1.0669  0.5113  1.5936
    2CHTO    C3  812   3.366   7.453   4.466 -0.3600  0.6247 -0.2621
    2CHTO   H16  813   3.279   7.440   4.533  0.1379 -1.3451  0.0404
    2CHTO    N1  814   3.349   7.581   4.389  0.0483  0.0189 -1.1366
    2CHTO    H8  815   3.354   7.654   4.469  0.0655 -2.3146  1.0757
    2CHTO    H9  816   3.253   7.576   4.340 -1.5952  3.3090  1.5890
    2CHTO    C4  817   3.492   7.444   4.562  0.5461 -0.0168 -0.4647
    2CHTO   H17  818   3.580   7.454   4.498  0.6461 -1.2992 -0.5366
    2CHTO    O1  819   3.498   7.315   4.620 -1.1920  0.0828 -0.2745
    2CHTO    C5  820   3.529   7.207   4.533 -0.6658 -0.2406  0.3068
    2CHTO   H18  821   3.626   7.226   4.487 -0.6041  2.0493  1.2997
    2CHTO   C16  822   3.539   7.081   4.619  0.6472 -0.0710 -0.0685
    2CHTO   O11  823   3.428   7.047   4.697 -0.0046 -0.3854 -0.1409
    2CHTO    H5  824   3.426   7.098   4.775  1.6920  0.5010 -0.6577
    2CHTO    O3  825   3.483   7.553   4.660  0.1335  0.6733 -0.0100
    2CHTO    C6  826   3.608   7.575   4.733 -0.0892 -0.0259 -0.0629
    2CHTO   H19  827   3.668   7.484   4.743 -2.9396 -1.7695  1.6259
    2CHTO    C8  828   3.692   7.691   4.669 -0.4429 -0.3594 -0.0997
    2CHTO   H21  829   3.622   7.772   4.644  1.2943  0.5376 -2.2801
    2CHTO    O7  830   3.745   7.645   4.538  0.1036  0.2677  0.0961
    2CHTO    H2  831   3.764   7.722   4.488 -0.0607  0.5677  0.4893
    2CHTO   C12  832   3.802   7.752   4.775  0.5913  0.6212 -0.1693
    2CHTO   H25  833   3.885   7.679   4.778  0.8408  0.8882 -0.4717
    2CHTO    N3  834   3.861   7.884   4.723 -0.2999 -0.0006  0.1486
    2CHTO   H12  835   3.885   7.855   4.621  0.6612 -1.2103  0.7161
    2CHTO   H13  836   3.957   7.906   4.767 -0.4394  1.1278 -0.1066
    2CHTO   C15  837   3.742   7.765   4.918 -0.5887  0.1839 -0.2269
    2CHTO   H28  838   3.677   7.848   4.945  2.0703  1.5487  2.3523
    2CHTO   O10  839   3.850   7.750   5.016  0.6492  0.2301  0.4513
    2CHTO    H4  840   3.920   7.793   4.971  0.0805 -0.7289 -1.3868
    2CHTO    O5  841   3.669   7.654   4.964  0.2224 -0.0016 -0.1331
    2CHTO   C10  842   3.561   7.614   4.872  0.1630  0.2066  0.0920
    2CHTO   H23  843   3.491   7.697   4.861  0.4561  0.4881  0.3481
    2CHTO   C17  844   3.492   7.501   4.947  0.1740  0.6956 -0.1303
    2CHTO   O12  845   3.572   7.382   4.960  0.1540 -0.4321  0.0196
    2CHTO    H6  846   3.587   7.368   5.051  0.9182  0.4526  0.0350
    3CHTO  H203  847   8.063   1.386   0.825 -0.5003 -0.0413  0.3559
    3CHTO   O82  848   8.010   1.318   0.787  0.1581 -0.2512 -0.1847
    3CHTO  C123  849   7.934   1.242   0.884  0.2501  0.1115  0.2351
    3CHTO  H227  850   7.987   1.238   0.980 -1.0167 -2.0397  0.8953
    3CHTO   O77  851   7.813   1.320   0.899  0.1612 -0.1756  0.3934
    3CHTO  C118  852   7.743   1.268   1.010  0.3249  0.3303  0.1599
    3CHTO  H222  853   7.798   1.259   1.105  1.6109  1.7086 -0.4433
    3CHTO  C125  854   7.627   1.371   1.037  0.1257 -0.4115 -0.6831
    3CHTO   O84  855   7.571   1.341   1.167 -0.3533 -0.2646  0.0893
    3CHTO  H205  856   7.488   1.384   1.174 -0.9627 -1.1550 -1.4707
    3CHTO  C114  857   7.684   1.133   0.974 -0.2143  0.4085 -0.4668
    3CHTO  H218  858   7.615   1.142   0.891  0.3701  1.6443 -0.8324
    3CHTO  C116  859   7.801   1.031   0.947 -0.5978 -0.3525 -0.0534
    3CHTO  H220  860   7.855   1.015   1.043 -1.1371 -1.3597  0.0867
    3CHTO   O79  861   7.756   0.902   0.906 -0.2052 -0.1788 -0.0530
    3CHTO  H201  862   7.677   0.884   0.952 -2.2458  0.5739 -3.1049
    3CHTO  C120  863   7.898   1.095   0.839 -0.6969 -1.1975 -0.0853
    3CHTO  H224  864   7.846   1.098   0.742  0.0846 -0.0042 -0.4730
    3CHTO   N21  865   8.019   1.007   0.826 -0.5188  0.0796  0.1015
    3CHTO  H211  866   8.109   1.064   0.810 -0.5605  0.3052  0.6523
    3CHTO  H212  867   8.000   0.925   0.759  0.0511 -0.5892  0.7345
    3CHTO   O75  868   7.608   1.088   1.090  0.3257  0.0014 -1.0207
    3CHTO  C112  869   7.455   1.045   1.044  0.1462 -0.2450  0.0700
    3CHTO  H216  870   7.453   0.986   0.951  1.1571  0.6575 -0.5413
    3CHTO   O73  871   7.380   1.165   1.032  0.0228  0.0811  0.1155
    3CHTO  C113  872   7.248   1.148   0.977  0.1847 -0.8321  0.3313
    3CHTO  H217  873   7.249   1.077   0.892  1.8394  2.8411 -2.8334
    3CHTO  C124  874   7.176   1.275   0.936 -0.1748  0.5259  0.1047
    3CHTO   O83  875   7.221   1.310   0.808 -0.1162  0.0934  0.5952
    3CHTO  H204  876   7.185   1.391   0.777 -0.8329 -1.1289 -1.8433
    3CHTO  C109  877   7.167   1.063   1.088 -0.1362  0.0986 -0.1126
    3CHTO  H213  878   7.172   1.125   1.179 -2.4182  0.0960  0.0492
    3CHTO  C110  879   7.248   0.925   1.118 -0.0147  0.0151 -0.3107
    3CHTO  H214  880   7.249   0.864   1.027  1.9730 -1.4535  0.6502
    3CHTO   O78  881   7.180   0.853   1.219 -0.1845  0.1533 -0.0219
    3CHTO  H200  882   7.200   0.761   1.223 -1.0786 -0.1805 -2.5333
    3CHTO  C111  883   7.396   0.956   1.160  0.8702 -0.3920  0.2740
    3CHTO  H215  884   7.390   1.013   1.254  0.0877  0.1260 -0.0874
    3CHTO   N19  885   7.473   0.837   1.180  0.1660 -0.2885 -0.6391
    3CHTO  H207  886   7.408   0.767   1.230  0.8626  0.1689  0.9499
    3CHTO  H208  887   7.557   0.864   1.243 -0.4413 -0.4448  0.2534
    3CHTO   O74  888   7.028   1.050   1.051 -0.3306 -0.1041  0.0497
    3CHTO  C115  889   6.923   1.000   1.155 -0.3059 -0.1313  0.3728
    3CHTO  H219  890   6.969   0.938   1.232 -1.9147 -0.6522  0.9337
    3CHTO   O76  891   6.855   1.126   1.241  0.0324  0.5878  0.4849
    3CHTO  C122  892   6.771   1.205   1.154  0.0244  0.3378 -0.2983
    3CHTO  H226  893   6.841   1.250   1.083  1.0147 -1.3564 -0.4183
    3CHTO  C126  894   6.715   1.323   1.246  0.5925  0.1464 -0.2583
    3CHTO   O85  895   6.620   1.296   1.347 -0.5887  0.6205  0.0854
    3CHTO  H206  896   6.533   1.313   1.316 -0.9405 -0.0109  0.7191
    3CHTO  C121  897   6.659   1.124   1.075  0.0168  0.6403 -0.1070
    3CHTO  H225  898   6.565   1.165   1.118 -2.0792 -2.8914 -1.1400
    3CHTO   O81  899   6.662   1.145   0.935  0.0439 -0.5536 -0.1650
    3CHTO  H202  900   6.736   1.099   0.898 -0.2822 -2.4450  1.4245
    3CHTO  C119  901   6.673   0.971   1.118  0.5988 -0.3153  0.1051
    3CHTO  H223  902   6.669   0.966   1.227 -1.3612 -0.6363  0.0309
    3CHTO  C117  903   6.814   0.915   1.080 -0.8416  0.0768  0.3468
    3CHTO  H221  904   6.835   0.914   0.973  1.0801  0.0172  0.7083
    3CHTO   N20  905   6.834   0.769   1.121  0.5804 -1.3219  0.0600
    3CHTO  H209  906   6.814   0.760   1.227 -0.5032  0.8494  0.0773
    3CHTO  H210  907   6.796   0.703   1.045 -0.0025 -0.2775 -0.5593
    3CHTO   O80  908   6.557   0.894   1.078 -0.4675 -0.1792 -0.5553
    3CHTO  C103  909   6.422   0.917   1.151  0.1814 -0.5218 -0.2758
    3CHTO  H190  910   6.434   0.987   1.234 -1.6452 -0.2305 -0.2475
    3CHTO  C101  911   6.305   0.962   1.055  0.1028  0.0747 -0.0139
    3CHTO  H188  912   6.315   0.897   0.968  1.9609  1.6185 -0.9909
    3CHTO   O68  913   6.346   1.123   0.995  0.1236 -0.5960 -0.5679
    3CHTO  H168  914   6.325   1.190   1.057 -0.4551  0.3494 -1.7727
    3CHTO   C99  915   6.169   0.952   1.134 -0.3816  0.3159 -0.3575
    3CHTO  H186  916   6.181   0.987   1.239 -2.6439  0.4278 -0.1016
    3CHTO   N17  917   6.051   1.020   1.076  0.8464  1.2212  0.8838
    3CHTO  H174  918   6.075   1.121   1.045 -1.3503  1.3345 -0.5428
    3CHTO  H175  919   6.012   0.961   0.995  2.1170  0.6496  0.6699
    3CHTO   C97  920   6.143   0.803   1.161 -0.5096 -0.3648 -0.3062
    3CHTO  H184  921   6.155   0.754   1.063 -0.0383 -0.2850 -0.2922
    3CHTO   O64  922   6.249   0.754   1.251 -0.0214 -0.5326 -0.5571
    3CHTO  C104  923   6.391   0.781   1.215 -0.7092  0.6641  0.2263
    3CHTO  H191  924   6.421   0.699   1.149 -1.3224  0.5466  0.0962
    3CHTO  C108  925   6.467   0.760   1.345 -0.0044 -0.1236 -0.0071
    3CHTO   O71  926   6.473   0.620   1.371  1.2000  0.1578 -0.5544
    3CHTO  H171  927   6.387   0.588   1.392  1.1682  0.8473  0.3744
    3CHTO   O62  928   6.024   0.771   1.234 -0.3245  0.3096  0.6134
    3CHTO   C91  929   5.961   0.657   1.191 -0.4621  0.4669  0.0762
    3CHTO  H178  930   5.980   0.647   1.084 -0.7058  1.7754 -0.1073
    3CHTO   C92  931   5.805   0.674   1.196  0.2619  0.5103 -0.3089
    3CHTO  H179  932   5.777   0.691   1.301  1.5724  0.8151 -0.0031
    3CHTO   O66  933   5.774   0.792   1.128 -0.4458 -0.5274 -0.2231
    3CHTO  H166  934   5.682   0.803   1.109 -0.8543 -0.6096  1.5498
    3CHTO   C93  935   5.730   0.543   1.153  0.0713 -0.1822  0.0186
    3CHTO  H180  936   5.773   0.518   1.055 -1.3253  2.5268 -1.3280
    3CHTO   N16  937   5.583   0.563   1.133 -0.6970  0.1513 -0.0096
    3CHTO  H172  938   5.563   0.669   1.128  1.5028  0.6255  0.5494
    3CHTO  H173  939   5.539   0.507   1.052 -0.4156 -1.0772  0.6681
    3CHTO   C94  940   5.762   0.427   1.250 -0.3984 -0.5185 -0.9258
    3CHTO  H181  941   5.686   0.410   1.326 -0.9966 -0.7460 -1.5658
    3CHTO   O61  942   5.884   0.450   1.331 -0.0578  0.0717  0.2398
    3CHTO   C95  943   6.001   0.518   1.272  0.0076  0.1107  0.4472
    3CHTO  H182  944   6.072   0.551   1.348 -0.4923 -2.0304  1.8654
    3CHTO  C106  945   6.084   0.422   1.179 -0.2186 -0.4406 -0.1309
    3CHTO   O69  946   6.120   0.310   1.255  0.3312  0.9542 -0.3659
    3CHTO  H169  947   6.197   0.327   1.305  0.9105 -0.4431 -0.7598
    3CHTO   O63  948   5.793   0.292   1.155  0.6660 -0.4054 -0.3553
    3CHTO   C96  949   5.720   0.151   1.200  0.1881 -0.2476 -0.8321
    3CHTO  H183  950   5.767   0.070   1.145 -1.2569 -0.6600 -1.4973
    3CHTO   C98  951   5.564   0.165   1.182  0.1811  0.0881  0.3170
    3CHTO  H185  952   5.529   0.254   1.237 -0.5065  0.0971 -0.1254
    3CHTO   O67  953   5.547   0.201   1.042 -0.1153  0.6409  0.0439
    3CHTO  H167  954   5.465   0.245   1.028 -0.4318 -0.2624 -0.9867
    3CHTO  C102  955   5.470   0.042   1.222 -0.0179  0.4295 -0.1575
    3CHTO  H189  956   5.495  -0.035   1.148  0.8900 -0.6283  1.2481
    3CHTO   N18  957   5.327   0.071   1.215 -0.6017  0.1367  0.0951
    3CHTO  H176  958   5.308   0.174   1.191  0.4454  0.3858  0.3190
    3CHTO  H177  959   5.264   0.004   1.158  0.3611  0.1478 -0.9929
    3CHTO  C105  960   5.514  -0.009   1.360 -0.1424  0.4363 -0.6633
    3CHTO  H192  961   5.471   0.050   1.441  0.4165 -1.1177  0.8104
    3CHTO   O65  962   5.660  -0.012   1.375 -0.4349  0.6518 -0.3005
    3CHTO  C100  963   5.730   0.110   1.352  0.4728  0.3060 -0.1084
    3CHTO  H187  964   5.682   0.186   1.415  1.8935  0.1455  1.2015
    3CHTO  C107  965   5.878   0.093   1.398 -0.3040  0.0490  0.4967
    3CHTO   O70  966   5.893   0.102   1.538 -0.4536  0.1408 -0.2679
    3CHTO  H170  967   5.900   0.014   1.568  2.4010  0.5099  0.2642
    3CHTO   O57  968   5.452  -0.182   1.369  0.0213  0.6191 -0.0892
    3CHTO   C85  969   5.401  -0.227   1.498  0.1825 -0.5465  0.5545
    3CHTO  H157  970   5.367  -0.330   1.476  2.5945 -0.9314 -1.6453
    3CHTO   C83  971   5.262  -0.169   1.530  0.2369 -0.5349  0.4244
    3CHTO  H155  972   5.192  -0.199   1.453  1.2883 -0.0219 -0.7537
    3CHTO   O56  973   5.263  -0.029   1.523  0.0799  0.0791 -0.2642
    3CHTO  H135  974   5.331   0.005   1.578  0.2670 -2.0192  0.8462
    3CHTO   C81  975   5.221  -0.230   1.668  0.0765 -0.4641 -0.0793
    3CHTO  H153  976   5.231  -0.339   1.666 -0.9968 -0.6270  1.7713
    3CHTO   N14  977   5.085  -0.205   1.710 -0.1259 -0.0937  0.5543
    3CHTO  H141  978   5.020  -0.289   1.696  1.2741 -1.2567  0.8639
    3CHTO  H142  979   5.045  -0.122   1.657 -1.2468 -1.1718 -0.3184
    3CHTO   C79  980   5.332  -0.187   1.775 -0.5953 -0.5238  0.8207
    3CHTO  H151  981   5.301  -0.224   1.872 -0.4946  0.2756  1.1627
    3CHTO   O52  982   5.459  -0.254   1.747 -0.2699  0.2722 -0.6879
    3CHTO   C86  983   5.505  -0.222   1.618 -0.1608  0.2148 -0.0356
    3CHTO  H158  984   5.549  -0.123   1.642 -0.2175  0.2788 -0.2028
    3CHTO   C90  985   5.624  -0.305   1.574  0.2904  0.6699 -0.5735
    3CHTO   O60  986   5.599  -0.448   1.563 -0.2776 -0.1621 -0.2652
    3CHTO  H138  987   5.580  -0.498   1.641  1.2653 -1.0775 -0.4521
    3CHTO   O50  988   5.351  -0.044   1.772 -0.0414 -0.1142  0.3531
    3CHTO   C73  989   5.373   0.047   1.873  0.1966 -0.1013  1.0831
    3CHTO  H145  990   5.450   0.003   1.939 -1.3243 -0.9261  2.3243
    3CHTO   C74  991   5.245   0.064   1.953  0.3987 -0.5965 -0.6561
    3CHTO  H146  992   5.212  -0.038   1.980  2.1565 -1.4139 -1.4956
    3CHTO   O54  993   5.283   0.129   2.078 -0.2208  0.5753 -0.7268
    3CHTO  H133  994   5.355   0.083   2.116 -0.3497  1.0411  0.0940
    3CHTO   C75  995   5.136   0.141   1.871  0.3051 -0.0639  0.1519
    3CHTO  H147  996   5.100   0.081   1.786  2.5890 -0.7831 -0.3413
    3CHTO   N13  997   5.004   0.179   1.935 -0.6050  0.2797 -0.6650
    3CHTO  H139  998   4.947   0.235   1.862 -0.7281  1.2424  0.1563
    3CHTO  H140  999   5.015   0.243   2.021  1.5776  0.6877 -1.2150
    3CHTO   C76 1000   5.200   0.275   1.799  0.2033  0.8987  0.0730
    3CHTO  H148 1001   5.221   0.349   1.875  0.1779  1.5508 -0.5446
    3CHTO   O49 1002   5.324   0.245   1.728 -0.2446 -0.1820 -0.9694
    3CHTO   C77 1003   5.427   0.181   1.810 -0.2681  0.4962 -0.1826
    3CHTO  H149 1004   5.456   0.249   1.890  0.8730  1.7434 -1.6421
    3CHTO   C88 1005   5.543   0.168   1.717 -0.3056  0.1184 -0.0800
    3CHTO   O58 1006   5.658   0.120   1.773  0.5022 -0.0322 -0.1175
    3CHTO  H136 1007   5.687   0.190   1.829 -1.0990  0.9214 -0.4598
    3CHTO   O51 1008   5.105   0.330   1.692  0.2104  0.1217 -0.3099
    3CHTO   C78 1009   5.121   0.480   1.650  0.0702 -0.5004 -0.0399
    3CHTO  H150 1010   5.212   0.523   1.697 -1.0616  0.9862  0.8322
    3CHTO   C80 1011   4.994   0.559   1.689  0.2957 -0.3679  0.5068
    3CHTO  H152 1012   4.905   0.497   1.665  0.6932 -0.6240 -0.3240
    3CHTO   O55 1013   4.986   0.546   1.829 -0.9194 -0.3598  0.0279
    3CHTO  H134 1014   5.039   0.477   1.864 -3.3251 -1.4597  1.6408
    3CHTO   C84 1015   5.008   0.706   1.647 -0.4475  0.2030 -0.2077
    3CHTO  H156 1016   5.086   0.741   1.714  0.9942 -1.2753 -1.1066
    3CHTO   N15 1017   4.884   0.782   1.679  0.6392 -0.0381  1.0041
    3CHTO  H143 1018   4.813   0.737   1.613  1.0916  0.4562  0.1652
    3CHTO  H144 1019   4.876   0.888   1.664  3.1416 -0.1895 -1.8948
    3CHTO   C87 1020   5.043   0.724   1.495  0.2066 -0.3545  0.1110
    3CHTO  H159 1021   4.957   0.711   1.429  1.2813  0.9350 -1.6143
    3CHTO   O53 1022   5.151   0.633   1.458 -0.3674 -0.5081  0.3007
    3CHTO   C82 1023   5.133   0.495   1.498 -0.4336  0.0997  0.7393
    3CHTO  H154 1024   5.045   0.459   1.445  0.8621 -1.9086 -0.1446
    3CHTO   C89 1025   5.252   0.405   1.448 -0.2407  0.2442 -0.4140
    3CHTO   O59 1026   5.237   0.414   1.301  0.7339 -0.0727 -0.1695
    3CHTO  H137 1027   5.156   0.374   1.276 -0.8303  1.2713  2.4647
    3CHTO   O45 1028   5.098   0.889   1.466  1.0163 -0.0679  0.6188
    3CHTO   C67 1029   5.240   0.897   1.468  0.5684 -0.2063 -0.3198
    3CHTO  H124 1030   5.282   0.808   1.514  1.8431  1.6090  2.1618
    3CHTO   C65 1031   5.291   0.916   1.323 -0.3966  0.2263 -0.1404
    3CHTO  H122 1032   5.203   0.950   1.269  0.5115  1.7320 -0.7208
    3CHTO   O44 1033   5.325   0.790   1.278 -0.4793  0.2986  0.1262
    3CHTO  H102 1034   5.311   0.782   1.186 -1.9829 -0.3566  0.3869
    3CHTO   C63 1035   5.396   1.031   1.311  0.3416 -0.5491  0.1513
    3CHTO  H120 1036   5.344   1.124   1.336  1.6646 -0.2260  1.7513
    3CHTO   N11 1037   5.443   1.059   1.174  0.7110  0.2498 -0.1102
    3CHTO  H108 1038   5.545   1.092   1.177  0.7377  0.0769  0.9525
    3CHTO  H109 1039   5.390   1.143   1.134 -2.2862 -0.4116  2.2883
    3CHTO   C61 1040   5.504   1.013   1.426  0.1680 -0.1431  0.6434
    3CHTO  H118 1041   5.555   1.110   1.423 -2.4890  1.3254  0.8586
    3CHTO   O40 1042   5.442   1.004   1.555 -0.4204  0.2327 -0.6370
    3CHTO   C68 1043   5.295   1.012   1.564 -0.7267  0.4717  1.0261
    3CHTO  H125 1044   5.262   1.112   1.528  1.8794  0.1235 -2.6095
    3CHTO   C72 1045   5.248   0.989   1.703 -0.0052  0.2703 -0.1600
    3CHTO   O48 1046   5.114   1.019   1.735  0.3868 -0.3487 -0.1198
    3CHTO  H105 1047   5.051   0.959   1.699 -1.0057 -0.9265  3.0560
    3CHTO   O38 1048   5.590   0.903   1.397 -0.1886 -0.1315  0.1915
    3CHTO   C55 1049   5.688   0.880   1.507  0.2896  0.4916 -0.1756
    3CHTO  H112 1050   5.662   0.939   1.597  1.2157 -0.1287  0.5104
    3CHTO   C56 1051   5.833   0.913   1.466  0.0223  0.1072 -0.4619
    3CHTO  H113 1052   5.850   0.864   1.369 -0.8101 -1.4643  0.1588
    3CHTO   O42 1053   5.844   1.051   1.449 -0.2901 -0.2092  0.2183
    3CHTO  H100 1054   5.820   1.098   1.527 -2.1992  3.8400 -2.6101
    3CHTO   C57 1055   5.943   0.851   1.566 -0.1029 -0.3428 -0.8850
    3CHTO  H114 1056   5.938   0.909   1.658  1.0400 -1.4941 -0.0800
    3CHTO   N10 1057   6.088   0.862   1.530  0.2661  0.5475 -0.0377
    3CHTO  H106 1058   6.119   0.774   1.477 -0.7294  1.1010 -1.5579
    3CHTO  H107 1059   6.106   0.952   1.473 -0.8698  2.2454  2.1585
    3CHTO   C58 1060   5.905   0.707   1.602  0.1203 -0.2681  0.2604
    3CHTO  H115 1061   5.916   0.641   1.513  2.1318 -0.5254  0.6789
    3CHTO   O37 1062   5.771   0.698   1.649  0.5378  0.1319  0.1410
    3CHTO   C59 1063   5.672   0.727   1.550  0.3178 -0.0107  0.3976
    3CHTO  H116 1064   5.687   0.668   1.460 -0.5064 -1.0307  0.9230
    3CHTO   C70 1065   5.531   0.704   1.612  0.4135 -0.2388  0.6738
    3CHTO   O46 1066   5.500   0.564   1.644 -0.4523 -0.1954  0.3967
    3CHTO  H103 1067   5.419   0.546   1.599 -0.0193  0.0973 -0.5217
    3CHTO   O39 1068   6.006   0.647   1.715  0.0528  0.3646 -0.0650
    3CHTO   C60 1069   6.027   0.505   1.727 -0.1023 -0.0306  0.3099
    3CHTO  H117 1070   5.954   0.452   1.666  0.1791 -2.8490  2.2933
    3CHTO   C62 1071   6.161   0.457   1.664 -0.4533  0.1084  0.8426
    3CHTO  H119 1072   6.172   0.515   1.570 -1.5174  0.4188  0.8916
    3CHTO   O43 1073   6.276   0.494   1.738  0.2910 -0.5581  0.7682
    3CHTO  H101 1074   6.288   0.587   1.729 -0.3865 -0.2621  2.5783
    3CHTO   C66 1075   6.154   0.294   1.638  0.1481  0.1739  0.5825
    3CHTO  H123 1076   6.059   0.277   1.588  0.6946 -1.4776  0.0998
    3CHTO   N12 1077   6.258   0.252   1.543 -0.7577  0.3633  0.4384
    3CHTO  H110 1078   6.356   0.285   1.573 -1.0198  1.1394  0.4664
    3CHTO  H111 1079   6.251   0.145   1.536  0.0011  0.3511 -0.2396
    3CHTO   C69 1080   6.153   0.225   1.770 -0.2659 -0.3637 -1.2439
    3CHTO  H126 1081   6.235   0.244   1.842  0.3654 -1.5261 -1.6421
    3CHTO   O41 1082   6.015   0.286   1.851 -0.2041 -0.5956 -0.3695
    3CHTO   C64 1083   6.014   0.442   1.869  0.0565 -0.4474  0.1668
    3CHTO  H121 1084   6.105   0.467   1.928  1.0048 -1.3391 -0.8762
    3CHTO   C71 1085   5.881   0.481   1.930  0.3641  0.3256 -0.2890
    3CHTO   O47 1086   5.772   0.415   1.859  0.1979  0.2447 -0.4401
    3CHTO  H104 1087   5.764   0.331   1.900  2.2828 -1.3405 -3.1957
    3CHTO   O34 1088   6.149   0.066   1.744 -0.4693 -0.2808 -0.0728
    3CHTO   C49 1089   6.209  -0.077   1.711  0.0179 -0.0889 -0.3706
    3CHTO   H91 1090   6.269  -0.059   1.622 -0.3578 -0.1830 -0.6465
    3CHTO   C47 1091   6.097  -0.180   1.680  0.2039  0.2501  0.0223
    3CHTO   H89 1092   6.063  -0.158   1.577  0.2240 -0.4865 -0.1483
    3CHTO   O33 1093   5.987  -0.162   1.773  0.0582 -0.3591  0.0620
    3CHTO   H70 1094   5.937  -0.085   1.754  1.1517  0.3425 -0.0189
    3CHTO   C45 1095   6.140  -0.329   1.693 -0.4035  0.7237  0.1034
    3CHTO   H87 1096   6.116  -0.367   1.793 -1.2004  0.2145 -0.2753
    3CHTO    N8 1097   6.081  -0.416   1.583  0.6339 -0.3111  0.3697
    3CHTO   H75 1098   5.981  -0.443   1.611 -0.2606  0.5217 -1.9401
    3CHTO   H76 1099   6.137  -0.508   1.573 -1.7221 -1.9727  2.0841
    3CHTO   C43 1100   6.303  -0.339   1.699 -0.2280  0.0667 -0.5972
    3CHTO   H85 1101   6.327  -0.445   1.704  1.2268  0.4046 -0.0761
    3CHTO   O29 1102   6.360  -0.263   1.807 -0.1779  0.7283  0.0407
    3CHTO   C50 1103   6.301  -0.133   1.830 -0.9366 -0.3821 -0.4255
    3CHTO   H92 1104   6.246  -0.122   1.924  1.1364  1.1217  0.6410
    3CHTO   C54 1105   6.423  -0.037   1.854  0.2692  0.4474  0.2648
    3CHTO   O36 1106   6.513  -0.073   1.961  0.2004 -0.4227  0.7506
    3CHTO   H72 1107   6.510  -0.017   2.036  0.2185  0.5057  0.0702
    3CHTO   O27 1108   6.369  -0.304   1.571 -0.0994 -0.5328  0.9529
    3CHTO   C37 1109   6.470  -0.221   1.516 -0.0748  0.2070  0.0969
    3CHTO   H79 1110   6.467  -0.127   1.574  2.5122 -1.2710  2.7921
    3CHTO   C38 1111   6.617  -0.284   1.547  0.2326 -0.3004  0.2565
    3CHTO   H80 1112   6.606  -0.390   1.519 -0.9779 -0.0747 -0.1401
    3CHTO   O31 1113   6.636  -0.274   1.688 -0.0358 -0.3141  0.1995
    3CHTO   H68 1114   6.717  -0.303   1.727  0.4213 -0.0890 -0.5686
    3CHTO   C39 1115   6.732  -0.217   1.474 -0.1049 -0.6580 -0.8402
    3CHTO   H81 1116   6.722  -0.114   1.511  0.9924 -0.3758 -1.3131
    3CHTO    N7 1117   6.871  -0.269   1.509 -0.4101 -0.1665  0.1401
    3CHTO   H73 1118   6.942  -0.192   1.534 -0.8401  0.2177  0.2075
    3CHTO   H74 1119   6.863  -0.361   1.566 -0.9218  0.0944  0.4982
    3CHTO   C40 1120   6.694  -0.210   1.324 -0.2749 -1.1490 -0.5023
    3CHTO   H82 1121   6.694  -0.310   1.281  0.1668 -1.5836  0.4807
    3CHTO   O26 1122   6.566  -0.149   1.308  0.7839  0.1041  0.6368
    3CHTO   C41 1123   6.446  -0.200   1.366  0.2876  0.1956 -0.0959
    3CHTO   H83 1124   6.417  -0.300   1.331 -0.6641 -0.0125  1.2586
    3CHTO   C52 1125   6.326  -0.114   1.327  0.2292  0.0396  0.0726
    3CHTO   O35 1126   6.285  -0.127   1.176  0.3284 -0.0705  0.8890
    3CHTO   H71 1127   6.207  -0.079   1.158 -0.3632 -0.5644  2.4419
    3CHTO   O28 1128   6.795  -0.141   1.241 -0.4011 -0.0127 -0.2326
    3CHTO   C42 1129   6.788  -0.000   1.195  0.6204  0.3434 -0.6152
    3CHTO   H84 1130   6.887   0.015   1.151  0.9056  0.5739  0.0949
    3CHTO   C44 1131   6.761   0.111   1.299 -0.5080  0.8492  0.2972
    3CHTO   H86 1132   6.677   0.086   1.363  0.7979  1.4879  2.3335
    3CHTO   O32 1133   6.873   0.085   1.393  0.1848 -0.3525 -0.0460
    3CHTO   H69 1134   6.866   0.133   1.473 -0.8394 -0.9932  0.2565
    3CHTO   C48 1135   6.762   0.261   1.235  0.3683  1.0389 -0.4483
    3CHTO   H90 1136   6.869   0.277   1.220  0.7944  0.8962  2.1823
    3CHTO    N9 1137   6.712   0.358   1.333 -0.2470  0.1072  0.5782
    3CHTO   H77 1138   6.757   0.349   1.431 -0.1393 -0.6927  0.4601
    3CHTO   H78 1139   6.607   0.381   1.334 -0.3039 -0.1765  1.9273
    3CHTO   C51 1140   6.674   0.265   1.106 -0.4849 -0.2038  0.2637
    3CHTO   H93 1141   6.569   0.265   1.137 -0.9064  0.6171 -1.1225
    3CHTO   O30 1142   6.702   0.155   1.014 -0.4672  0.0445 -0.4086
    3CHTO   C46 1143   6.687   0.021   1.077  0.0364  0.4187 -0.4092
    3CHTO   H88 1144   6.586   0.015   1.117  1.0430 -0.0066  2.1975
    3CHTO   C53 1145   6.719  -0.082   0.960  0.1402 -0.3958  0.4454
    3CHTO   O72 1146   6.678  -0.218   0.997  0.6186  0.1476 -0.0720
    3CHTO  H199 1147   6.615  -0.251   0.936  1.5921 -2.3342  0.2041
    3CHTO   O22 1148   6.691   0.391   1.035 -0.3499  0.6385 -0.1843
    3CHTO   C31 1149   6.614   0.426   0.907 -0.0347 -0.2664 -0.0246
    3CHTO   H59 1150   6.581   0.329   0.863 -0.3595  0.0472 -0.4820
    3CHTO   C29 1151   6.489   0.513   0.934 -0.1998 -0.2309 -0.2603
    3CHTO   H57 1152   6.524   0.605   0.984  1.8814  0.3126 -2.6078
    3CHTO   O21 1153   6.395   0.443   1.026 -0.0932 -0.1845 -0.5694
    3CHTO   H37 1154   6.406   0.484   1.110 -2.7401 -1.0188  0.2501
    3CHTO   C27 1155   6.408   0.552   0.805  0.6373  0.2482 -0.3410
    3CHTO   H55 1156   6.373   0.461   0.754  1.6229  0.1468 -0.8604
    3CHTO    N5 1157   6.297   0.650   0.831 -0.9578 -0.1285  0.2685
    3CHTO   H43 1158   6.253   0.677   0.737 -0.1805  0.8446  0.1788
    3CHTO   H44 1159   6.331   0.724   0.901  0.1931 -0.1742 -0.2352
    3CHTO   C25 1160   6.506   0.604   0.700  1.0131  0.1240  0.4747
    3CHTO   H53 1161   6.539   0.706   0.725 -0.8170  0.7766  0.3077
    3CHTO   O17 1162   6.627   0.529   0.685  0.2589  1.0202  0.1304
    3CHTO   C32 1163   6.699   0.507   0.805  0.5107  0.0771 -0.0002
    3CHTO   H60 1164   6.735   0.601   0.845  0.7099  0.4187 -0.9718
    3CHTO   C36 1165   6.827   0.423   0.782 -0.6047 -0.1667  0.6678
    3CHTO   O25 1166   6.909   0.467   0.677 -0.0338 -0.0597  0.3925
    3CHTO   H40 1167   6.982   0.414   0.654 -0.0274  0.0360  0.1907
    3CHTO   O15 1168   6.441   0.612   0.558 -0.2500  0.3415 -0.5413
    3CHTO   C19 1169   6.429   0.720   0.459 -0.3152  0.0213  0.3089
    3CHTO   H47 1170   6.378   0.666   0.378 -0.0113  0.7122 -0.3474
    3CHTO   C20 1171   6.350   0.843   0.506  0.3205 -0.9421  0.1973
    3CHTO   H48 1172   6.387   0.880   0.602  0.2364  0.5477 -0.3370
    3CHTO   O19 1173   6.216   0.791   0.529  0.2656 -0.0304 -0.1798
    3CHTO   H35 1174   6.213   0.739   0.607 -0.9693 -1.8408 -1.3975
    3CHTO   C21 1175   6.343   0.957   0.396  0.4326 -0.1066  0.4583
    3CHTO   H49 1176   6.270   0.927   0.321  0.2354  1.8756 -0.1826
    3CHTO    N4 1177   6.299   1.084   0.456 -0.1790 -0.6732  0.4444
    3CHTO   H41 1178   6.346   1.101   0.552  1.3054 -0.4001 -0.3126
    3CHTO   H42 1179   6.327   1.164   0.389 -1.1174  0.9306  1.9117
    3CHTO   C22 1180   6.478   0.975   0.317 -0.2763 -0.5919 -0.1464
    3CHTO   H50 1181   6.550   1.029   0.378 -1.2466 -0.1290  0.6029
    3CHTO   O14 1182   6.540   0.851   0.288 -0.2415 -0.1875 -0.5723
    3CHTO   C23 1183   6.568   0.761   0.394  0.9110  0.0986  0.3571
    3CHTO   H51 1184   6.632   0.816   0.465  0.0733 -0.2209  1.3736
    3CHTO   C34 1185   6.648   0.646   0.331  0.0681  0.2733 -0.0562
    3CHTO   O23 1186   6.781   0.692   0.294  0.0777  0.1159 -0.0714
    3CHTO   H38 1187   6.817   0.771   0.331 -0.3412  1.0194 -1.5420
    3CHTO   O16 1188   6.449   1.039   0.190  0.2954 -0.1278 -0.4848
    3CHTO   C24 1189   6.548   1.168   0.148  1.0623 -0.3572 -0.2486
    3CHTO   H52 1190   6.598   1.213   0.234 -2.6366  1.4451  1.0720
    3CHTO   C26 1191   6.456   1.282   0.090 -0.5484  0.0785  0.1646
    3CHTO   H54 1192   6.382   1.239   0.019 -0.8018 -1.2500  1.2247
    3CHTO   O20 1193   6.376   1.332   0.196  0.3435  0.0652 -0.0298
    3CHTO   H36 1194   6.327   1.408   0.170  0.4684  0.4803  0.9458
    3CHTO   C30 1195   6.546   1.390   0.015 -0.7924  0.4019  0.0127
    3CHTO   H58 1196   6.586   1.458   0.092 -1.9933  1.0620  0.0714
    3CHTO    N6 1197   6.454   1.468  -0.074 -0.5451 -0.0692  0.4155
    3CHTO   H45 1198   6.480   1.475  -0.178 -0.0890 -0.6196  0.4861
    3CHTO   H46 1199   6.451   1.569  -0.038 -1.0527 -0.3275  1.0998
    3CHTO   C33 1200   6.661   1.330  -0.073  0.4399  0.0070 -0.6565
    3CHTO   H61 1201   6.616   1.272  -0.155  0.0050  0.6179 -0.8540
    3CHTO   O18 1202   6.732   1.241   0.016  0.1022 -0.3269 -0.2743
    3CHTO   C28 1203   6.660   1.126   0.051  0.0907 -0.0389  0.4757
    3CHTO   H56 1204   6.619   1.080  -0.038 -0.8048 -0.7523  1.2531
    3CHTO   C35 1205   6.755   1.025   0.102  0.0408  0.0947 -0.3761
    3CHTO   O24 1206   6.841   1.035   0.218  0.2712 -0.4172  0.0587
    3CHTO   H39 1207   6.920   0.992   0.193  1.5267  2.3233 -0.9221
    3CHTO    O9 1208   6.748   1.426  -0.138  0.4483 -0.4013  0.6020
    3CHTO   C13 1209   6.845   1.506  -0.010  0.4234  0.6416  0.2672
    3CHTO   H26 1210   6.799   1.478   0.087  1.7058 -1.1696  0.3747
    3CHTO   C11 1211   6.852   1.658  -0.023  0.3681  0.2857  0.3016
    3CHTO   H24 1212   6.747   1.693  -0.016 -1.6516 -5.2431  0.3234
    3CHTO    O8 1213   6.909   1.679  -0.159 -0.2787  0.2697  0.9094
    3CHTO    H3 1214   6.830   1.700  -0.206 -1.3986 -2.0146  1.6657
    3CHTO    C9 1215   6.949   1.714   0.083 -0.9015 -0.0866  0.1494
    3CHTO   H22 1216   6.918   1.677   0.182  1.4390 -1.6491  0.3512
    3CHTO    N2 1217   6.950   1.865   0.088  0.0803 -0.4264 -0.8756
    3CHTO   H10 1218   6.863   1.923   0.061  0.7744  0.1371 -1.9524
    3CHTO   H11 1219   7.048   1.910   0.084  0.8364 -1.6671  2.0884
    3CHTO    C7 1220   7.096   1.648   0.071 -0.1308  0.4189  0.2121
    3CHTO   H20 1221   7.148   1.690   0.160 -0.8236 -0.2938  0.9647
    3CHTO    O4 1222   7.085   1.508   0.086  0.0978  0.0129 -0.5807
    3CHTO   C14 1223   6.988   1.435   0.004  0.6659  0.3238  0.6060
    3CHTO   H27 1224   6.985   1.337   0.057 -0.4447  0.1215  0.1841
    3CHTO   C18 1225   7.035   1.402  -0.139 -0.7297 -0.1225  0.3981
    3CHTO   O13 1226   7.150   1.322  -0.147 -0.6323  0.4042  0.4837
    3CHTO    H7 1227   7.178   1.297  -0.233 -0.2611 -0.1388  0.7667
    3CHTO    O2 1228   7.188   1.689  -0.099 -0.1751 -0.2499  0.4593
    3CHTO    C1 1229   7.320   1.640  -0.131 -0.6001 -0.1848  0.2608
    3CHTO   H14 1230   7.316   1.538  -0.174 -0.7197  0.4272 -1.1953
    3CHTO    C2 1231   7.420   1.637  -0.003 -1.0843  0.4605  0.5822
    3CHTO   H15 1232   7.425   1.735   0.046 -0.8284  0.4384  0.6007
    3CHTO    O6 1233   7.353   1.565   0.101  0.0444 -0.4544  0.2529
    3CHTO    H1 1234   7.277   1.616   0.122  0.0709 -1.0493  1.8711
    3CHTO    C3 1235   7.566   1.586  -0.034  0.5582  0.2045  0.2048
    3CHTO   H16 1236   7.572   1.478  -0.053 -2.4248 -0.1086  0.8860
    3CHTO    N1 1237   7.669   1.604   0.077  0.0063 -0.1194  0.5293
    3CHTO    H8 1238   7.762   1.635   0.031  0.1296 -0.4896  0.5284
    3CHTO    H9 1239   7.680   1.510   0.129 -1.4343 -0.4262  0.2884
    3CHTO    C4 1240   7.614   1.657  -0.167  0.5761 -0.0732  0.0671
    3CHTO   H17 1241   7.646   1.759  -0.143 -0.1279  0.7061 -2.1759
    3CHTO    O1 1242   7.517   1.659  -0.276 -0.1939  0.0555 -0.2212
    3CHTO    C5 1243   7.387   1.724  -0.245 -0.5739  0.3933  0.2180
    3CHTO   H18 1244   7.400   1.824  -0.204  2.2353 -0.1701  0.7768
    3CHTO   C16 1245   7.301   1.729  -0.373 -0.2598  0.4506  0.1619
    3CHTO   O11 1246   7.255   1.598  -0.416  0.7374  0.5754 -0.5126
    3CHTO    H5 1247   7.323   1.536  -0.399 -3.2013 -2.7607  4.2628
    3CHTO    O3 1248   7.733   1.579  -0.207 -0.4990 -0.1653 -0.4365
    3CHTO    C6 1249   7.796   1.621  -0.329  0.2397 -0.7714 -0.1223
    3CHTO   H19 1250   7.740   1.699  -0.380 -2.4824 -1.4531  1.7150
    3CHTO    C8 1251   7.931   1.677  -0.283 -0.8579 -0.1056 -0.4024
    3CHTO   H21 1252   7.977   1.621  -0.202  0.6954  1.9298  0.1755
    3CHTO    O7 1253   7.902   1.802  -0.225  0.0628 -0.4535  0.0251
    3CHTO    H2 1254   7.884   1.795  -0.133  0.8742  0.0085  0.2258
    3CHTO   C12 1255   8.039   1.685  -0.405 -0.1191 -0.2025 -0.4765
    3CHTO   H25 1256   8.014   1.776  -0.463  0.7766  0.1295 -0.3459
    3CHTO    N3 1257   8.176   1.705  -0.348 -0.0833 -0.2068 -0.2223
    3CHTO   H12 1258   8.250   1.651  -0.407 -1.0353 -0.6820 -0.9956
    3CHTO   H13 1259   8.176   1.679  -0.244  0.0038 -0.6409 -0.3314
    3CHTO   C15 1260   8.024   1.561  -0.502 -0.3399  0.1511 -1.3264
    3CHTO   H28 1261   8.071   1.473  -0.458 -0.8712 -0.0339 -1.1237
    3CHTO   O10 1262   8.081   1.580  -0.618  0.7589  0.0308  0.7282
    3CHTO    H4 1263   8.170   1.551  -0.627  0.4733 -0.6575  0.0187
    3CHTO    O5 1264   7.889   1.533  -0.534  0.2285  0.2821  0.7799
    3CHTO   C10 1265   7.805   1.499  -0.424  0.6738 -0.4699 -0.1311
    3CHTO   H23 1266   7.847   1.419  -0.364 -2.3829 -0.5574  1.9897
    3CHTO   C17 1267   7.671   1.436  -0.464 -0.0367 -0.6108 -0.3504
    3CHTO   O12 1268   7.702   1.306  -0.514  0.8560  0.2508  0.3095
    3CHTO    H6 1269   7.741   1.309  -0.599  0.7428 -0.4128  0.2299
    4CHTO  H203 1270   6.408   7.162   1.539 -1.1036  0.8935 -0.1417
    4CHTO   O82 1271   6.354   7.153   1.615 -0.6504 -0.1292  0.0651
    4CHTO  C123 1272   6.302   7.287   1.650 -0.2722 -0.7430 -0.2825
    4CHTO  H227 1273   6.231   7.287   1.734  0.3765  1.9266  0.2995
    4CHTO   O77 1274   6.426   7.362   1.693 -0.1233 -0.4867  0.0816
    4CHTO  C118 1275   6.398   7.476   1.768  0.3022 -0.7485  0.5941
    4CHTO  H222 1276   6.337   7.464   1.859 -0.8849 -0.2154 -0.1270
    4CHTO  C125 1277   6.541   7.518   1.814 -0.3677  0.1182  0.2300
    4CHTO   O84 1278   6.553   7.615   1.919  0.5904  0.1171 -0.4878
    4CHTO  H205 1279   6.500   7.692   1.908 -1.3380 -1.1667 -0.5142
    4CHTO  C114 1280   6.323   7.571   1.678  0.8722 -0.3496  0.4547
    4CHTO  H218 1281   6.390   7.607   1.600  1.7180  0.4382  1.5516
    4CHTO  C116 1282   6.206   7.515   1.593  0.1641 -0.2133  0.2431
    4CHTO  H220 1283   6.119   7.504   1.661 -1.0337  1.1574 -1.0305
    4CHTO   O79 1284   6.166   7.613   1.497  0.1676 -0.0128 -0.2400
    4CHTO  H201 1285   6.133   7.580   1.416 -0.0190 -1.8451  0.5520
    4CHTO  C120 1286   6.242   7.370   1.534 -0.1646  0.2915 -0.1376
    4CHTO  H224 1287   6.310   7.382   1.448 -2.8251 -1.0164 -2.5057
    4CHTO   N21 1288   6.124   7.313   1.480  0.2187 -0.0455  0.2243
    4CHTO  H211 1289   6.129   7.206   1.480 -1.1421 -0.1282 -1.5609
    4CHTO  H212 1290   6.035   7.331   1.540  0.3005 -2.6435  1.1795
    4CHTO   O75 1291   6.269   7.674   1.758 -0.2627 -0.1825 -0.2001
    4CHTO  C112 1292   6.343   7.817   1.725  0.2714  0.4837 -0.0361
    4CHTO  H216 1293   6.383   7.814   1.622 -0.4314 -0.5105 -0.2921
    4CHTO   O73 1294   6.440   7.846   1.821  0.1530 -0.3051 -0.2399
    4CHTO  C113 1295   6.516   7.966   1.789  0.0506  0.2363  0.1339
    4CHTO  H217 1296   6.563   7.951   1.689 -3.1180 -0.5019 -1.2955
    4CHTO  C124 1297   6.633   7.993   1.885 -0.4732 -0.1517 -0.1880
    4CHTO   O83 1298   6.726   7.886   1.868  0.0667 -0.9616 -0.5170
    4CHTO  H204 1299   6.812   7.912   1.843 -0.2963  0.7441 -0.0582
    4CHTO  C109 1300   6.424   8.094   1.794  0.2416 -0.1921 -0.2489
    4CHTO  H213 1301   6.407   8.117   1.900  0.2323  0.2298 -0.3435
    4CHTO  C110 1302   6.294   8.075   1.711  0.1229  0.2729  0.0744
    4CHTO  H214 1303   6.316   8.090   1.606  0.8947  0.1625  0.2155
    4CHTO   O78 1304   6.193   8.172   1.749  0.2122 -0.4134  0.3649
    4CHTO  H200 1305   6.118   8.162   1.694  1.0593 -3.8927 -0.3390
    4CHTO  C111 1306   6.234   7.931   1.735 -0.7382  0.6752 -0.2344
    4CHTO  H215 1307   6.196   7.924   1.838  0.6455  2.2512  0.4005
    4CHTO   N19 1308   6.116   7.906   1.642 -1.0407 -0.1403 -0.0554
    4CHTO  H207 1309   6.026   7.884   1.697 -1.0479 -0.5026 -0.2128
    4CHTO  H208 1310   6.146   7.820   1.584  0.4872 -0.3871  1.0715
    4CHTO   O74 1311   6.492   8.209   1.735 -0.1020  0.7069 -0.6180
    4CHTO  C115 1312   6.475   8.333   1.811  0.3462 -0.4222 -0.8664
    4CHTO  H219 1313   6.392   8.325   1.882  1.4171 -2.1505  0.2025
    4CHTO   O76 1314   6.607   8.375   1.902  0.7239  0.2968  0.2601
    4CHTO  C122 1315   6.720   8.377   1.819  0.3125  0.5922 -0.1528
    4CHTO  H226 1316   6.756   8.277   1.796  0.5115  1.3022 -3.0242
    4CHTO  C126 1317   6.839   8.446   1.904  0.6656 -0.1637  0.5503
    4CHTO   O85 1318   6.884   8.373   2.014  1.1096 -0.1307 -0.7904
    4CHTO  H206 1319   6.957   8.414   2.057  0.7652  0.9068 -1.1646
    4CHTO  C121 1320   6.701   8.456   1.686  0.2703 -0.2844 -0.1228
    4CHTO  H225 1321   6.785   8.527   1.668 -0.6776  0.2635 -2.6002
    4CHTO   O81 1322   6.709   8.362   1.574  0.3574  0.2078  0.1168
    4CHTO  H202 1323   6.747   8.405   1.500 -0.2045 -0.6213 -0.6621
    4CHTO  C119 1324   6.568   8.539   1.686 -0.1386  0.5222  0.1093
    4CHTO  H223 1325   6.588   8.604   1.771 -0.1510 -0.0828  0.5754
    4CHTO  C117 1326   6.438   8.449   1.704 -0.3146 -0.2870 -0.4240
    4CHTO  H221 1327   6.405   8.385   1.622  0.5385 -1.7110  0.3163
    4CHTO   N20 1328   6.315   8.530   1.747 -0.0829 -0.2957 -0.5970
    4CHTO  H209 1329   6.225   8.476   1.723 -1.3300  0.2597  2.5873
    4CHTO  H210 1330   6.308   8.554   1.852 -1.2746 -0.3263 -0.6634
    4CHTO   O80 1331   6.564   8.643   1.567  0.2417  0.5383  0.1133
    4CHTO  C103 1332   6.611   8.790   1.589 -0.5981  0.4974 -0.0308
    4CHTO  H190 1333   6.575   8.823   1.686 -1.5944 -0.5482 -0.0323
    4CHTO  C101 1334   6.764   8.810   1.586 -0.4896 -0.0051  0.0742
    4CHTO  H188 1335   6.803   8.750   1.504 -1.1260 -1.2080  0.6398
    4CHTO   O68 1336   6.806   8.761   1.730 -0.4586 -0.0977 -0.6929
    4CHTO  H168 1337   6.757   8.807   1.796  0.8652  1.3916 -0.7258
    4CHTO   C99 1338   6.807   8.965   1.571 -0.0453  0.5205  0.0657
    4CHTO  H186 1339   6.765   9.015   1.660 -1.4306  0.3073 -0.4498
    4CHTO   N17 1340   6.949   8.992   1.558  0.2441 -0.4015  0.2061
    4CHTO  H174 1341   7.009   8.958   1.641 -0.8363 -1.8964  0.4155
    4CHTO  H175 1342   6.954   9.099   1.553 -2.0789 -0.2135  1.2093
    4CHTO   C97 1343   6.720   9.026   1.454  0.0737 -0.4227  0.2096
    4CHTO  H184 1344   6.753   8.988   1.356  1.2287  0.2672  0.3206
    4CHTO   O64 1345   6.584   9.003   1.476  0.3540 -0.0917  1.5268
    4CHTO  C104 1346   6.538   8.871   1.477  0.4041  0.4114 -0.1014
    4CHTO  H191 1347   6.553   8.828   1.378  1.9804  1.0279 -0.1398
    4CHTO  C108 1348   6.385   8.877   1.503 -0.0483 -0.6257 -0.2991
    4CHTO   O71 1349   6.294   8.768   1.467  0.1108  0.2035  0.8109
    4CHTO  H171 1350   6.335   8.693   1.429 -0.3672  0.8216 -0.9668
    4CHTO   O62 1351   6.734   9.171   1.444 -0.0451 -0.2335  0.1563
    4CHTO   C91 1352   6.701   9.237   1.322  0.1456  0.1807  0.0803
    4CHTO  H178 1353   6.653   9.163   1.258 -1.1982  0.7585  0.4186
    4CHTO   C92 1354   6.833   9.275   1.255  0.0863  0.1125  0.3004
    4CHTO  H179 1355   6.890   9.336   1.328 -1.6320  0.9055  1.0157
    4CHTO   O66 1356   6.925   9.159   1.225 -0.4981  0.4859  0.4276
    4CHTO  H166 1357   6.971   9.132   1.301 -0.2188 -2.2406 -0.6560
    4CHTO   C93 1358   6.811   9.351   1.114  0.9506 -0.4336  0.2499
    4CHTO  H180 1359   6.820   9.279   1.032  3.1226 -0.8242  0.7911
    4CHTO   N16 1360   6.922   9.442   1.086 -0.2151  0.4721 -0.4711
    4CHTO  H172 1361   6.997   9.409   1.016  1.6315  0.5697  1.3916
    4CHTO  H173 1362   6.885   9.541   1.066  0.6139  0.4704 -2.1104
    4CHTO   C94 1363   6.667   9.429   1.112 -0.8582  0.8895  0.0037
    4CHTO  H181 1364   6.673   9.527   1.065  0.1383  0.4316 -0.8474
    4CHTO   O61 1365   6.619   9.462   1.244 -0.5498  0.4710  0.1395
    4CHTO   C95 1366   6.606   9.358   1.343  0.0639  0.0232  1.1163
    4CHTO  H182 1367   6.643   9.397   1.438  1.1670 -0.6312  0.9609
    4CHTO  C106 1368   6.458   9.315   1.361  0.1434  0.3733 -0.7946
    4CHTO   O69 1369   6.385   9.422   1.424  0.5438 -0.3340  0.1848
    4CHTO  H169 1370   6.343   9.466   1.353  0.9245 -1.8964 -1.0412
    4CHTO   O63 1371   6.545   9.338   1.036 -0.4586 -0.4156 -1.0474
    4CHTO   C96 1372   6.589   9.311   0.878 -0.5387  0.1221 -0.1302
    4CHTO  H183 1373   6.696   9.325   0.864 -1.0251  1.2591 -2.9224
    4CHTO   C98 1374   6.527   9.402   0.767 -0.0941 -0.3729  0.2124
    4CHTO  H185 1375   6.418   9.399   0.768 -0.1714  0.9120 -1.6188
    4CHTO   O67 1376   6.557   9.533   0.804  0.5232 -0.3054  0.0306
    4CHTO  H167 1377   6.485   9.591   0.818 -0.6986 -1.8202  0.1313
    4CHTO  C102 1378   6.579   9.370   0.617 -0.0582 -0.7516  0.3481
    4CHTO  H189 1379   6.675   9.424   0.612 -0.8542  1.0193  3.1048
    4CHTO   N18 1380   6.494   9.423   0.510 -0.6179 -0.7397 -0.2342
    4CHTO  H176 1381   6.396   9.379   0.523 -1.6713  1.6700  0.2053
    4CHTO  H177 1382   6.493   9.531   0.510 -0.1601 -0.7314  0.4239
    4CHTO  C105 1383   6.608   9.219   0.601  0.2038  0.4123  0.3959
    4CHTO  H192 1384   6.528   9.170   0.545  0.2141 -2.4245  2.7560
    4CHTO   O65 1385   6.623   9.136   0.714  0.6838  0.3169 -1.0422
    4CHTO  C100 1386   6.555   9.165   0.838  0.1917 -0.7570  0.3198
    4CHTO  H187 1387   6.446   9.158   0.824  0.0740  0.1924  0.7425
    4CHTO  C107 1388   6.591   9.056   0.950 -0.2888  1.0019 -0.5238
    4CHTO   O70 1389   6.725   9.077   0.987  0.1588 -0.0023 -0.2612
    4CHTO  H170 1390   6.768   8.994   0.994 -1.2558 -0.6936  0.4354
    4CHTO   O57 1391   6.738   9.214   0.519 -0.2000  0.4423  0.1232
    4CHTO   C85 1392   6.753   9.114   0.415 -0.7534  0.1024  0.5139
    4CHTO  H157 1393   6.665   9.128   0.349  1.2345 -0.8947 -2.4647
    4CHTO   C83 1394   6.736   8.969   0.464  0.7748  0.0346 -1.0631
    4CHTO  H155 1395   6.642   8.966   0.520 -0.5486 -1.4810 -3.2771
    4CHTO   O56 1396   6.843   8.932   0.551  0.3872 -0.3232  0.3096
    4CHTO  H135 1397   6.822   8.964   0.636  0.4455  1.6769 -0.3883
    4CHTO   C81 1398   6.726   8.872   0.342 -0.3013  0.1133  0.2560
    4CHTO  H153 1399   6.636   8.897   0.287 -0.6483  0.0707  0.8087
    4CHTO   N14 1400   6.695   8.731   0.375 -0.6350 -0.4196  0.1883
    4CHTO  H141 1401   6.608   8.697   0.323  0.1634  0.7564 -1.9791
    4CHTO  H142 1402   6.778   8.670   0.348 -0.2640  0.0411  0.2824
    4CHTO   C79 1403   6.858   8.889   0.252 -0.1812  0.2025 -0.5112
    4CHTO  H151 1404   6.836   8.839   0.158  0.7097 -0.1790 -0.5128
    4CHTO   O52 1405   6.886   9.032   0.229 -0.5270  0.0112 -0.2610
    4CHTO   C86 1406   6.885   9.128   0.336  0.0497  0.5646 -0.0137
    4CHTO  H158 1407   6.972   9.105   0.400  2.4915  0.1781 -3.3400
    4CHTO   C90 1408   6.891   9.274   0.288  0.1984 -0.0105  0.1793
    4CHTO   O60 1409   6.984   9.300   0.181  0.5483 -0.1197  0.3290
    4CHTO  H138 1410   7.074   9.295   0.208  0.3716  1.0248  1.1035
    4CHTO   O50 1411   6.971   8.819   0.307  0.4793 -0.1238  0.3590
    4CHTO   C73 1412   7.105   8.846   0.356 -0.0427 -0.7561 -0.6637
    4CHTO  H145 1413   7.098   8.904   0.449  1.0057 -0.9340 -0.4635
    4CHTO   C74 1414   7.192   8.914   0.246 -0.1277 -0.3817 -0.3257
    4CHTO  H146 1415   7.145   9.010   0.218 -3.5689 -1.9289 -0.1332
    4CHTO   O54 1416   7.315   8.932   0.317 -0.5086 -0.0889 -0.3914
    4CHTO  H133 1417   7.389   8.878   0.296 -1.1378 -0.8046 -0.7985
    4CHTO   C75 1418   7.204   8.820   0.126  0.4646  0.2948 -0.2920
    4CHTO  H147 1419   7.106   8.806   0.078  0.3883  1.1091 -0.3768
    4CHTO   N13 1420   7.301   8.870   0.023 -0.0606 -0.1067 -0.2050
    4CHTO  H139 1421   7.396   8.866   0.074 -0.4784  1.6594  0.7588
    4CHTO  H140 1422   7.272   8.970  -0.003 -0.6814 -0.1102  0.4640
    4CHTO   C76 1423   7.251   8.677   0.174 -0.5236 -0.3006 -0.6732
    4CHTO  H148 1424   7.351   8.667   0.214 -0.5762 -1.4318 -0.7949
    4CHTO   O49 1425   7.174   8.620   0.281 -0.0208  0.0371 -0.0357
    4CHTO   C77 1426   7.166   8.707   0.400  0.4431  0.4313  0.0818
    4CHTO  H149 1427   7.264   8.722   0.444  1.7161 -3.4366 -1.1900
    4CHTO   C88 1428   7.070   8.648   0.509  0.0785 -0.2370 -0.3979
    4CHTO   O58 1429   7.103   8.514   0.562 -0.4006 -0.1816  0.7006
    4CHTO  H136 1430   7.145   8.457   0.501 -0.4793 -2.3090  2.5653
    4CHTO   O51 1431   7.214   8.569   0.057  0.2977  0.5555  0.1806
    4CHTO   C78 1432   7.353   8.466   0.013  0.2742  0.0885  0.3025
    4CHTO  H150 1433   7.448   8.522   0.026  0.5492  0.6363 -3.5652
    4CHTO   C80 1434   7.341   8.432  -0.136 -0.3162 -0.3266  0.4138
    4CHTO  H152 1435   7.238   8.396  -0.157  0.3330 -2.0011 -0.0613
    4CHTO   O55 1436   7.351   8.555  -0.207  0.0662 -0.2491  0.1290
    4CHTO  H134 1437   7.279   8.612  -0.192 -0.1515  0.0211 -1.7737
    4CHTO   C84 1438   7.457   8.327  -0.186 -0.3115 -0.1113  0.2326
    4CHTO  H156 1439   7.547   8.386  -0.171  0.4332 -1.8925  3.2120
    4CHTO   N15 1440   7.438   8.295  -0.334  0.6681  0.0221  0.1163
    4CHTO  H143 1441   7.342   8.258  -0.363  1.0177 -0.7379 -0.1091
    4CHTO  H144 1442   7.450   8.388  -0.385 -2.5819 -1.0417 -2.7657
    4CHTO   C87 1443   7.464   8.205  -0.101 -0.0187  0.5761 -0.5916
    4CHTO  H159 1444   7.369   8.153  -0.117  0.1347 -0.2415  1.0374
    4CHTO   O53 1445   7.471   8.261   0.060  0.3865  0.3503 -0.6266
    4CHTO   C82 1446   7.354   8.334   0.094 -0.5640 -0.0886  1.2911
    4CHTO  H154 1447   7.263   8.279   0.072 -0.8218  0.3682  1.2173
    4CHTO   C89 1448   7.362   8.355   0.241  0.0123  0.5692  0.2217
    4CHTO   O59 1449   7.475   8.438   0.268  0.3022  0.3102 -0.1092
    4CHTO  H137 1450   7.544   8.377   0.254 -0.3593 -0.2297 -1.0810
    4CHTO   O45 1451   7.586   8.103  -0.158  0.0823  0.0895  0.3792
    4CHTO   C67 1452   7.621   7.985  -0.080 -0.3147  0.5240 -0.4809
    4CHTO  H124 1453   7.684   7.923  -0.144  2.7645  0.8602  2.1291
    4CHTO   C65 1454   7.708   8.018   0.044 -0.2365 -0.5880  0.3210
    4CHTO  H122 1455   7.709   8.126   0.059  1.1076 -0.7376  1.4305
    4CHTO   O44 1456   7.846   7.984   0.010  0.3470  0.1932 -0.6231
    4CHTO  H102 1457   7.906   8.033   0.062 -1.5855 -1.2978  3.2243
    4CHTO   C63 1458   7.649   7.963   0.174  0.3569  0.5089  0.2235
    4CHTO  H120 1459   7.561   8.021   0.202  0.9964  0.5189  2.2731
    4CHTO   N11 1460   7.731   7.979   0.300  0.8886 -0.2938  0.0067
    4CHTO  H108 1461   7.774   8.076   0.313  0.7650 -0.0578 -1.2944
    4CHTO  H109 1462   7.695   7.922   0.383  0.9195  0.0796  0.2816
    4CHTO   C61 1463   7.617   7.808   0.160 -0.1984 -0.3811 -0.8251
    4CHTO  H118 1464   7.578   7.780   0.259  4.2150 -1.0047  0.8290
    4CHTO   O40 1465   7.513   7.793   0.066 -0.2765  0.2876 -1.0239
    4CHTO   C68 1466   7.500   7.892  -0.045  0.6381  0.3658  0.8681
    4CHTO  H125 1467   7.422   7.964  -0.012  0.5777 -0.1569  1.8822
    4CHTO   C72 1468   7.443   7.815  -0.175 -0.2049  0.5291 -0.4968
    4CHTO   O48 1469   7.330   7.734  -0.146  0.4934  0.6441  0.5469
    4CHTO  H105 1470   7.335   7.648  -0.182  0.4386  0.6826  0.4478
    4CHTO   O38 1471   7.723   7.723   0.111  0.4542 -0.0063  0.0068
    4CHTO   C55 1472   7.720   7.584   0.154  0.1821  0.1653  0.1180
    4CHTO  H112 1473   7.614   7.564   0.177  0.8666 -3.3089  0.4340
    4CHTO   C56 1474   7.817   7.557   0.280  0.2021  0.3822 -0.1179
    4CHTO  H113 1475   7.917   7.578   0.240 -0.5671  0.8783 -1.8120
    4CHTO   O42 1476   7.786   7.639   0.390  0.5092  0.2659 -0.6365
    4CHTO  H100 1477   7.853   7.616   0.451 -0.4669 -0.3080  0.2296
    4CHTO   C57 1478   7.809   7.400   0.317  0.6324 -0.0198  0.1325
    4CHTO  H114 1479   7.706   7.383   0.346 -0.3893  2.0631 -2.0505
    4CHTO   N10 1480   7.906   7.367   0.428 -0.2189 -0.3737  0.4922
    4CHTO  H106 1481   7.862   7.283   0.480  0.9243 -0.0211  2.0729
    4CHTO  H107 1482   8.007   7.345   0.396 -0.8957 -0.0254 -1.9790
    4CHTO   C58 1483   7.836   7.320   0.193 -0.7150  0.3126 -0.6365
    4CHTO  H115 1484   7.941   7.331   0.160 -0.2125 -1.9370  0.1446
    4CHTO   O37 1485   7.748   7.357   0.090 -0.1005 -0.5377  0.3474
    4CHTO   C59 1486   7.757   7.490   0.038 -0.4233 -0.6748  0.4085
    4CHTO  H116 1487   7.859   7.507   0.004 -0.5354 -1.2872 -0.2282
    4CHTO   C70 1488   7.659   7.501  -0.080  0.7274  0.2360  0.1630
    4CHTO   O46 1489   7.700   7.423  -0.193  0.0228  0.2632  0.4820
    4CHTO  H103 1490   7.657   7.469  -0.263  1.9925  0.0964 -0.8668
    4CHTO   O39 1491   7.794   7.161   0.233 -0.3002  0.1316 -0.2633
    4CHTO   C60 1492   7.670   7.101   0.189  0.1771  0.2149  0.7494
    4CHTO  H117 1493   7.593   7.179   0.187 -0.9311 -0.7898  2.4379
    4CHTO   C62 1494   7.681   7.042   0.048  0.0201 -0.8673  0.1982
    4CHTO  H119 1495   7.707   7.132  -0.013 -2.1492  0.2870  0.9314
    4CHTO   O43 1496   7.777   6.944   0.042 -0.3862 -0.0720  0.3095
    4CHTO  H101 1497   7.780   6.927  -0.050  1.2466 -1.4412  0.6009
    4CHTO   C66 1498   7.535   6.997  -0.007  0.3986  0.2874 -1.1777
    4CHTO  H123 1499   7.466   7.080   0.008 -0.6056 -0.2547 -2.6196
    4CHTO   N12 1500   7.542   6.969  -0.151  0.2581  0.2184  0.1725
    4CHTO  H110 1501   7.534   7.067  -0.198 -1.7221  0.4700  0.9686
    4CHTO  H111 1502   7.627   6.908  -0.176  1.3087  1.4390  0.6550
    4CHTO   C69 1503   7.473   6.883   0.086  0.1102  0.1869 -0.3085
    4CHTO  H126 1504   7.541   6.796   0.078  0.6101  0.2492  2.7599
    4CHTO   O41 1505   7.491   6.930   0.239  0.3698 -0.3229  0.2838
    4CHTO   C64 1506   7.629   7.006   0.288  0.3173 -0.1130  0.8105
    4CHTO  H121 1507   7.710   6.930   0.297  1.2225  0.6028 -0.9029
    4CHTO   C71 1508   7.609   7.076   0.426 -0.6355  0.0759 -0.0354
    4CHTO   O47 1509   7.731   7.112   0.498 -0.1091  0.0382  0.2203
    4CHTO  H104 1510   7.727   7.073   0.583  0.6255 -0.6292 -0.0401
    4CHTO   O34 1511   7.333   6.837   0.057  0.4121 -0.3114 -0.2332
    4CHTO   C49 1512   7.255   6.714   0.024 -0.1908 -0.4236 -0.0037
    4CHTO   H91 1513   7.330   6.634   0.023  0.7645  0.4652  0.0619
    4CHTO   C47 1514   7.171   6.719  -0.105 -0.6525  0.2698  0.3658
    4CHTO   H89 1515   7.246   6.693  -0.183 -0.7901 -0.7766  0.5738
    4CHTO   O33 1516   7.112   6.839  -0.138  0.8713  0.1123 -0.2462
    4CHTO   H70 1517   7.077   6.837  -0.224 -3.0487 -0.2417  1.2525
    4CHTO   C45 1518   7.066   6.601  -0.105 -0.3320  0.2674 -0.6559
    4CHTO   H87 1519   6.973   6.645  -0.065 -0.9719 -0.1513 -1.6537
    4CHTO    N8 1520   7.040   6.560  -0.244  0.6468 -0.6820  0.2090
    4CHTO   H75 1521   6.942   6.599  -0.268  0.8854 -0.0503  0.2376
    4CHTO   H76 1522   7.037   6.452  -0.245 -3.0508 -0.6368 -0.8984
    4CHTO   C43 1523   7.084   6.486   0.010  0.0411  0.1372 -0.7738
    4CHTO   H85 1524   6.998   6.420  -0.002 -0.8699  1.3299 -0.9099
    4CHTO   O29 1525   7.088   6.554   0.139  0.0884  0.5522  0.6965
    4CHTO   C50 1526   7.158   6.684   0.144 -0.2837 -0.0025 -0.5204
    4CHTO   H92 1527   7.082   6.764   0.153 -1.2570 -1.2874  4.3733
    4CHTO   C54 1528   7.222   6.701   0.280 -0.0470  0.1749  0.8620
    4CHTO   O36 1529   7.313   6.603   0.304 -0.4108  0.2575  0.4973
    4CHTO   H72 1530   7.333   6.602   0.395 -0.5914 -1.1599  0.5335
    4CHTO   O27 1531   7.203   6.413  -0.004 -0.0604 -0.5736 -0.4811
    4CHTO   C37 1532   7.288   6.306  -0.033 -0.3811  0.3426 -0.3889
    4CHTO   H79 1533   7.248   6.220  -0.088  0.4420 -0.0387 -0.3987
    4CHTO   C38 1534   7.401   6.356  -0.129 -0.0358  0.1696  0.8554
    4CHTO   H80 1535   7.432   6.457  -0.096 -0.8300  1.0536 -1.0437
    4CHTO   O31 1536   7.347   6.381  -0.261 -0.5289  0.3498 -0.9111
    4CHTO   H68 1537   7.278   6.444  -0.263 -1.5982 -0.8124 -1.2247
    4CHTO   C39 1538   7.521   6.262  -0.144 -0.2782  0.1087 -1.0939
    4CHTO   H81 1539   7.484   6.175  -0.198 -0.2002  0.4661 -1.7330
    4CHTO    N7 1540   7.648   6.324  -0.207 -0.6689  0.1042  0.2680
    4CHTO   H73 1541   7.675   6.413  -0.152 -1.4502  1.2235 -1.1184
    4CHTO   H74 1542   7.630   6.352  -0.310  2.6486 -0.0598 -0.3914
    4CHTO   C40 1543   7.559   6.195  -0.008 -0.7947  0.2567  0.5806
    4CHTO   H82 1544   7.625   6.261   0.049 -0.7629 -0.2521  1.1364
    4CHTO   O26 1545   7.443   6.157   0.068 -0.4766 -0.0040 -0.1350
    4CHTO   C41 1546   7.352   6.260   0.100  0.5372 -0.1096  0.5894
    4CHTO   H83 1547   7.407   6.348   0.136  1.7122 -0.3499 -0.5820
    4CHTO   C52 1548   7.251   6.212   0.206  0.0127 -0.0435 -0.3832
    4CHTO   O35 1549   7.324   6.223   0.334 -0.2434  0.6366  0.2503
    4CHTO   H71 1550   7.323   6.310   0.371 -0.1140 -0.3271  2.6346
    4CHTO   O28 1551   7.633   6.071  -0.031 -0.3932  0.4733  0.0535
    4CHTO   C42 1552   7.747   6.026   0.046 -0.7700  0.2488 -0.4548
    4CHTO   H84 1553   7.816   6.106   0.070  1.9973 -2.1505 -0.1279
    4CHTO   C44 1554   7.819   5.923  -0.042 -0.2076 -0.9434  0.1051
    4CHTO   H86 1555   7.754   5.838  -0.061 -0.7664 -0.6336  0.5907
    4CHTO   O32 1556   7.854   5.990  -0.164  0.0824 -0.5797  0.1028
    4CHTO   H69 1557   7.915   5.936  -0.211 -0.8114 -2.7088  1.3064
    4CHTO   C48 1558   7.957   5.873   0.022  0.1391  0.3120  0.1730
    4CHTO   H90 1559   8.023   5.956   0.046  2.4489 -1.8139  1.2769
    4CHTO    N9 1560   8.044   5.794  -0.075 -0.8895 -0.3855  0.5877
    4CHTO   H77 1561   8.134   5.762  -0.024 -0.4484  0.1016  0.1055
    4CHTO   H78 1562   7.992   5.713  -0.123 -0.0212 -0.7766  0.3044
    4CHTO   C51 1563   7.917   5.793   0.153  0.2810  0.5409 -0.4929
    4CHTO   H93 1564   7.843   5.716   0.131 -2.8180  3.4594 -0.5437
    4CHTO   O30 1565   7.861   5.901   0.232  0.4284 -0.2296 -0.2348
    4CHTO   C46 1566   7.722   5.945   0.177  0.1104  0.1187 -0.2127
    4CHTO   H88 1567   7.666   5.855   0.154  0.1874  0.2442 -0.9146
    4CHTO   C53 1568   7.652   6.040   0.280 -0.0839 -0.7727  0.5691
    4CHTO   O72 1569   7.624   5.982   0.412 -0.3053 -0.2225  0.0918
    4CHTO  H199 1570   7.699   5.985   0.468 -0.9293  0.4418  0.9039
    4CHTO   O22 1571   8.027   5.751   0.237 -0.6132 -0.0189 -0.0895
    4CHTO   C31 1572   8.003   5.716   0.382  0.0262 -0.2530  0.4313
    4CHTO   H59 1573   7.903   5.756   0.410  0.0301  1.4541 -1.7709
    4CHTO   C29 1574   7.994   5.565   0.407 -0.4483 -0.0017 -0.6108
    4CHTO   H57 1575   8.093   5.519   0.396 -0.9493 -0.5753 -3.1337
    4CHTO   O21 1576   7.920   5.495   0.301 -0.3656 -0.0964  0.3544
    4CHTO   H37 1577   7.956   5.521   0.219  1.1847 -0.3255  0.9533
    4CHTO   C27 1578   7.927   5.532   0.549  0.1037  0.4692 -0.0530
    4CHTO   H55 1579   7.822   5.564   0.541 -0.3920 -1.3337 -1.1177
    4CHTO    N5 1580   7.928   5.388   0.585  0.0786  0.4798  0.5585
    4CHTO   H43 1581   7.940   5.333   0.493  0.2369 -0.1928  0.9752
    4CHTO   H44 1582   7.851   5.354   0.654  0.2614 -1.7056 -0.2561
    4CHTO   C25 1583   8.003   5.618   0.656 -0.2803  0.2161  0.7350
    4CHTO   H53 1584   8.086   5.564   0.704  1.5595  1.0703 -1.3765
    4CHTO   O17 1585   8.043   5.752   0.616 -0.3709  0.3080 -0.9519
    4CHTO   C32 1586   8.103   5.774   0.488  0.5659  1.0211  0.1548
    4CHTO   H60 1587   8.199   5.724   0.480  1.8055  3.4845 -1.0809
    4CHTO   C36 1588   8.140   5.919   0.479 -0.5737  0.3513 -0.4353
    4CHTO   O25 1589   8.030   6.010   0.490 -0.2735 -0.2436  0.0427
    4CHTO   H40 1590   8.037   6.075   0.558  0.3223 -0.9656  0.6825
    4CHTO   O15 1591   7.913   5.639   0.769 -0.4347 -0.5569  0.2672
    4CHTO   C19 1592   7.901   5.720   0.891 -0.0863 -0.3308  1.3306
    4CHTO   H47 1593   7.807   5.686   0.938 -1.7541  2.2050 -0.0546
    4CHTO   C20 1594   8.012   5.692   0.985  0.0719 -0.1294 -0.7570
    4CHTO   H48 1595   8.110   5.718   0.943 -0.1476  2.4081  0.2263
    4CHTO   O19 1596   8.020   5.547   1.008  0.0602 -0.2259 -0.5734
    4CHTO   H35 1597   8.091   5.507   1.054 -0.9028 -1.7741 -0.4050
    4CHTO   C21 1598   7.992   5.773   1.118  0.3141  0.2309 -0.1348
    4CHTO   H49 1599   7.913   5.727   1.176 -0.9598  3.2352  0.5997
    4CHTO    N4 1600   8.101   5.753   1.214  0.2374 -0.6618  0.5131
    4CHTO   H41 1601   8.069   5.811   1.299  0.8897  0.5148 -0.0293
    4CHTO   H42 1602   8.118   5.651   1.245  0.0239 -0.7122  0.4630
    4CHTO   C22 1603   7.963   5.919   1.083 -0.3003 -0.0734 -0.7273
    4CHTO   H50 1604   8.052   5.969   1.044 -0.7331 -0.2438 -1.9464
    4CHTO   O14 1605   7.859   5.928   0.984 -0.5758 -0.1622 -0.0331
    4CHTO   C23 1606   7.885   5.869   0.860 -0.1736  0.0940 -0.0202
    4CHTO   H51 1607   7.974   5.915   0.816  0.8011  0.9632  2.7232
    4CHTO   C34 1608   7.767   5.908   0.764  0.1462  0.8720  0.3273
    4CHTO   O23 1609   7.793   5.876   0.625 -0.2521 -0.2292  0.3186
    4CHTO   H38 1610   7.713   5.880   0.577  0.1806  1.4797 -0.2704
    4CHTO   O16 1611   7.919   5.997   1.197  0.1959  0.1764 -0.3034
    4CHTO   C24 1612   7.914   6.159   1.158  0.1580 -1.0029  0.0608
    4CHTO   H52 1613   7.908   6.175   1.050 -2.2470 -0.3182  0.2689
    4CHTO   C26 1614   8.038   6.225   1.214 -0.2291  0.4292 -0.1634
    4CHTO   H54 1615   8.057   6.187   1.317 -0.0431  0.2649 -0.2584
    4CHTO   O20 1616   8.160   6.182   1.148  0.3358 -0.5957 -0.6421
    4CHTO   H36 1617   8.225   6.154   1.209  1.5841 -2.6672 -2.8241
    4CHTO   C30 1618   8.034   6.385   1.214 -0.4167 -0.2714 -0.4992
    4CHTO   H58 1619   8.061   6.421   1.114  0.5253 -0.7605 -0.4250
    4CHTO    N6 1620   8.126   6.443   1.314 -0.3642 -0.2553 -0.4859
    4CHTO   H45 1621   8.170   6.370   1.381  0.0992  0.2785 -0.2065
    4CHTO   H46 1622   8.070   6.511   1.376  2.1262 -1.2218  2.9931
    4CHTO   C33 1623   7.887   6.443   1.241  0.0870  0.1121 -0.1140
    4CHTO   H61 1624   7.869   6.447   1.349 -1.0164  1.5995 -0.3430
    4CHTO   O18 1625   7.786   6.363   1.180 -0.3491  0.3201 -0.3442
    4CHTO   C28 1626   7.785   6.225   1.221  0.0359  0.1268  0.8752
    4CHTO   H56 1627   7.799   6.229   1.329 -1.3164  1.8177  1.0128
    4CHTO   C35 1628   7.655   6.141   1.186 -1.3005 -0.5022  0.9712
    4CHTO   O24 1629   7.538   6.218   1.221 -0.3822  0.4220 -1.0429
    4CHTO   H39 1630   7.466   6.166   1.252  1.0267  0.4334  2.4635
    4CHTO    O9 1631   7.882   6.584   1.199  0.3349  0.1955 -0.2421
    4CHTO   C13 1632   7.739   6.661   1.243 -1.0697  0.3866  0.0912
    4CHTO   H26 1633   7.657   6.587   1.245 -0.4775 -0.3091 -1.1632
    4CHTO   C11 1634   7.727   6.771   1.127 -0.2143  0.0540 -0.1536
    4CHTO   H24 1635   7.699   6.721   1.033 -1.0415  1.8450 -0.8819
    4CHTO    O8 1636   7.849   6.841   1.094  0.2608  0.0529  0.7141
    4CHTO    H3 1637   7.898   6.800   1.025 -0.7813  0.9379 -0.5741
    4CHTO    C9 1638   7.602   6.857   1.155 -0.0403  0.5074 -0.1848
    4CHTO   H22 1639   7.519   6.785   1.165  1.0915 -0.7893 -0.0868
    4CHTO    N2 1640   7.562   6.945   1.043  0.0332  0.5473 -0.0128
    4CHTO   H10 1641   7.469   6.904   1.006  1.1874 -0.2096 -2.1715
    4CHTO   H11 1642   7.547   7.048   1.073  4.6424  1.1719  0.4376
    4CHTO    C7 1643   7.626   6.926   1.287 -0.2092 -0.7966 -0.5162
    4CHTO   H20 1644   7.524   6.968   1.306  0.8865  1.4519  0.5651
    4CHTO    O4 1645   7.656   6.835   1.397 -0.4207 -0.4814 -0.1519
    4CHTO   C14 1646   7.755   6.730   1.379 -0.0009 -0.3916  0.5057
    4CHTO   H27 1647   7.738   6.644   1.448 -0.8598 -1.6253 -1.1957
    4CHTO   C18 1648   7.898   6.778   1.414 -0.2486 -0.4866  0.3657
    4CHTO   O13 1649   7.907   6.803   1.557  0.2271  0.7362 -0.2853
    4CHTO    H7 1650   7.847   6.872   1.577 -0.5746  0.3820 -1.3892
    4CHTO    O2 1651   7.739   7.051   1.285 -0.5720 -0.3133 -0.4631
    4CHTO    C1 1652   7.683   7.185   1.314 -0.5582 -0.0530  0.4838
    4CHTO   H14 1653   7.574   7.179   1.294 -0.4370 -0.2016 -0.1438
    4CHTO    C2 1654   7.748   7.304   1.221  0.2324  0.0487 -0.2408
    4CHTO   H15 1655   7.857   7.302   1.227  0.1359 -1.5812  1.4675
    4CHTO    O6 1656   7.711   7.278   1.080  0.1053  0.3972 -0.4247
    4CHTO    H1 1657   7.619   7.277   1.058 -0.0137 -0.1715  0.0835
    4CHTO    C3 1658   7.700   7.449   1.268 -0.0654 -0.1168 -0.3371
    4CHTO   H16 1659   7.595   7.468   1.243  0.2294  0.2469 -1.3380
    4CHTO    N1 1660   7.778   7.558   1.201 -0.0819 -0.2737  0.0555
    4CHTO    H8 1661   7.879   7.529   1.228  0.0619 -2.2022 -2.3547
    4CHTO    H9 1662   7.754   7.659   1.230 -2.4112 -0.5172 -0.9544
    4CHTO    C4 1663   7.706   7.468   1.424  0.3256 -0.0971  0.1824
    4CHTO   H17 1664   7.810   7.470   1.456  0.7454 -1.7417 -1.0254
    4CHTO    O1 1665   7.643   7.355   1.481 -0.0493 -0.1152 -0.0150
    4CHTO    C5 1666   7.707   7.225   1.459 -0.0030 -0.1913  0.6013
    4CHTO   H18 1667   7.813   7.228   1.484  0.0269  1.0294  0.3837
    4CHTO   C16 1668   7.640   7.129   1.557  0.6096 -0.0841 -0.5536
    4CHTO   O11 1669   7.648   7.174   1.695  0.5238 -0.5718  0.5244
    4CHTO    H5 1670   7.600   7.254   1.707 -1.4911 -1.9883  2.1357
    4CHTO    O3 1671   7.629   7.575   1.476  0.2143  0.0302  0.3923
    4CHTO    C6 1672   7.699   7.680   1.555 -0.3579  0.3616 -0.0919
    4CHTO   H19 1673   7.808   7.667   1.556 -0.5668 -1.9454 -2.1601
    4CHTO    C8 1674   7.652   7.820   1.503 -0.2719  0.2389 -0.2116
    4CHTO   H21 1675   7.543   7.821   1.495 -0.4406  1.4491  1.8895
    4CHTO    O7 1676   7.699   7.826   1.367  0.0557 -0.5232  0.4105
    4CHTO    H2 1677   7.623   7.846   1.315  0.2900 -0.8684 -0.0612
    4CHTO   C12 1678   7.704   7.934   1.597  0.5138  0.1133  0.1184
    4CHTO   H25 1679   7.814   7.927   1.607  0.5063  1.6347  1.5019
    4CHTO    N3 1680   7.675   8.069   1.540  0.3730 -0.6480  0.0846
    4CHTO   H12 1681   7.575   8.111   1.542  0.7878  0.3851 -0.1753
    4CHTO   H13 1682   7.752   8.145   1.548  0.5268 -0.7529 -0.4024
    4CHTO   C15 1683   7.644   7.910   1.735  0.2194 -0.1487  0.7034
    4CHTO   H28 1684   7.538   7.932   1.752  0.1638 -0.0651  0.2562
    4CHTO   O10 1685   7.720   8.011   1.854 -0.8626 -0.1222 -0.0397
    4CHTO    H4 1686   7.802   8.042   1.823  0.5885 -1.0908  2.6272
    4CHTO    O5 1687   7.682   7.776   1.784 -0.0089  0.5611 -0.0184
    4CHTO   C10 1688   7.651   7.662   1.702 -0.7531 -0.4336  0.5719
    4CHTO   H23 1689   7.542   7.656   1.701 -0.6965 -2.0544  2.3486
    4CHTO   C17 1690   7.705   7.536   1.771 -0.1216 -0.1575 -0.2904
    4CHTO   O12 1691   7.843   7.528   1.793  0.1020  0.2712 -0.2377
    4CHTO    H6 1692   7.880   7.475   1.725 -1.2875  0.2946 -1.0335
    5CHTO  H203 1693   7.978   3.756   0.329  0.0007  0.8868 -2.9629
    5CHTO   O82 1694   8.044   3.690   0.330 -0.3801  0.4861 -0.0465
    5CHTO  C123 1695   8.045   3.620   0.456 -0.3693 -0.4097  0.3431
    5CHTO  H227 1696   7.953   3.561   0.468 -0.3757 -0.2962  0.8591
    5CHTO   O77 1697   8.153   3.523   0.434  0.5350  0.1011  0.0807
    5CHTO  C118 1698   8.168   3.425   0.535  0.6801  0.7264  0.0296
    5CHTO  H222 1699   8.077   3.366   0.551  1.9309 -1.2007  0.1629
    5CHTO  C125 1700   8.265   3.327   0.464 -0.7714 -0.4815  0.1270
    5CHTO   O84 1701   8.390   3.407   0.440 -0.4456 -0.1551  0.6399
    5CHTO  H205 1702   8.409   3.453   0.519 -0.7314 -0.1021  0.6788
    5CHTO  C114 1703   8.218   3.492   0.663  0.1632 -1.3006  0.2144
    5CHTO  H218 1704   8.317   3.533   0.641 -0.4121 -1.3739 -2.6379
    5CHTO  C116 1705   8.123   3.612   0.699  0.2478  0.6802 -0.7496
    5CHTO  H220 1706   8.032   3.562   0.739  1.5016 -0.0277  1.2603
    5CHTO   O79 1707   8.166   3.696   0.810  0.4715 -0.2590 -0.6660
    5CHTO  H201 1708   8.186   3.639   0.882  1.8226 -2.3632 -2.6220
    5CHTO  C120 1709   8.087   3.703   0.579  0.3400 -0.4581 -0.1872
    5CHTO  H224 1710   8.177   3.761   0.549  0.4434  0.2399  1.4528
    5CHTO   N21 1711   7.980   3.802   0.616 -0.8575 -0.4042  0.1656
    5CHTO  H211 1712   7.887   3.751   0.597 -3.0253  3.3419  0.1934
    5CHTO  H212 1713   7.983   3.895   0.560  0.7362 -0.8400 -0.4768
    5CHTO   O75 1714   8.238   3.384   0.757  0.2979  0.4400  0.1701
    5CHTO  C112 1715   8.102   3.346   0.862  0.4870 -0.5261  0.4350
    5CHTO  H216 1716   8.009   3.347   0.802  0.0786 -1.3017  1.0423
    5CHTO   O73 1717   8.097   3.451   0.966 -0.5325  0.6143 -0.2009
    5CHTO  C113 1718   7.978   3.429   1.049  0.6554  0.0514 -0.5578
    5CHTO  H217 1719   7.896   3.408   0.978  1.4996 -0.9555 -1.2496
    5CHTO  C124 1720   7.951   3.560   1.133 -0.8733 -0.3364  1.1111
    5CHTO   O83 1721   7.908   3.665   1.045  0.0193  0.2665  0.9381
    5CHTO  H204 1722   7.817   3.659   1.023  0.5414 -1.9805 -0.7453
    5CHTO  C109 1723   7.992   3.295   1.142 -0.7829 -0.2210  0.2237
    5CHTO  H213 1724   8.078   3.312   1.208 -0.1351 -0.7941 -0.4734
    5CHTO  C110 1725   8.028   3.170   1.051 -1.0165 -0.2183  0.1554
    5CHTO  H214 1726   7.934   3.122   1.021 -0.8924 -0.9823  0.9485
    5CHTO   O78 1727   8.088   3.072   1.138 -0.0363  0.0193 -0.0046
    5CHTO  H200 1728   8.176   3.095   1.161 -0.0671  2.9568 -2.4374
    5CHTO  C111 1729   8.124   3.204   0.926 -0.2372  1.0749 -0.5047
    5CHTO  H215 1730   8.226   3.203   0.967 -1.0392 -1.0461  1.5688
    5CHTO   N19 1731   8.117   3.098   0.826  0.4509  0.1233  0.0846
    5CHTO  H207 1732   8.165   3.012   0.872  2.1184  2.3847  2.7269
    5CHTO  H208 1733   8.019   3.056   0.810  0.0403  0.6442  1.1545
    5CHTO   O74 1734   7.868   3.282   1.224 -0.1693 -0.6196 -0.5174
    5CHTO  C115 1735   7.879   3.232   1.374 -0.1810  0.3797  0.5589
    5CHTO  H219 1736   7.973   3.178   1.387  1.1635  2.8526  1.4578
    5CHTO   O76 1737   7.889   3.339   1.469  0.6045 -0.2329 -0.2105
    5CHTO  C122 1738   7.783   3.430   1.455 -0.0608 -0.6642 -0.1988
    5CHTO  H226 1739   7.790   3.477   1.357  0.8570  1.4174  0.8355
    5CHTO  C126 1740   7.808   3.548   1.550 -0.1504 -0.8565  0.5088
    5CHTO   O85 1741   7.927   3.625   1.520 -0.4272  0.2199 -0.6666
    5CHTO  H206 1742   7.925   3.662   1.434 -4.2107  0.2618 -0.6393
    5CHTO  C121 1743   7.634   3.362   1.465 -0.6370  1.1040  0.3209
    5CHTO  H225 1744   7.567   3.410   1.539 -1.3489 -1.6583  1.5519
    5CHTO   O81 1745   7.555   3.378   1.350 -0.9214  0.2063  0.4230
    5CHTO  H202 1746   7.529   3.468   1.343 -2.0916 -0.1930 -0.5674
    5CHTO  C119 1747   7.652   3.212   1.507 -0.3968  0.1726 -0.3188
    5CHTO  H223 1748   7.704   3.220   1.603 -1.1292 -2.4140  0.3425
    5CHTO  C117 1749   7.755   3.141   1.407  0.6236  0.6835 -0.1284
    5CHTO  H221 1750   7.719   3.118   1.307 -2.7359 -1.3025  1.4600
    5CHTO   N20 1751   7.791   3.000   1.470  0.2276  0.2942  0.4434
    5CHTO  H209 1752   7.705   2.955   1.516 -1.1774  0.6891 -1.7192
    5CHTO  H210 1753   7.841   2.927   1.407 -0.6500 -0.8770  1.1095
    5CHTO   O80 1754   7.512   3.133   1.560  0.8805  0.1972  0.0515
    5CHTO  C103 1755   7.382   3.111   1.457 -0.2911 -0.2315 -0.2907
    5CHTO  H190 1756   7.387   3.191   1.384  0.4738  0.6088  0.6827
    5CHTO  C101 1757   7.380   2.982   1.376  0.3573 -0.3386  0.3869
    5CHTO  H188 1758   7.397   2.895   1.440 -2.0873  0.2165  1.8241
    5CHTO   O68 1759   7.488   2.973   1.274  0.1775 -0.1432  0.2398
    5CHTO  H168 1760   7.509   2.882   1.269 -0.8804 -0.3838 -0.0418
    5CHTO   C99 1761   7.239   2.957   1.299  1.0434  0.1539  0.0128
    5CHTO  H186 1762   7.245   3.037   1.223  0.2957 -1.2560 -1.5626
    5CHTO   N17 1763   7.223   2.824   1.222  0.3839  0.0676  0.4081
    5CHTO  H174 1764   7.212   2.741   1.290  2.6857 -0.7489 -0.1720
    5CHTO  H175 1765   7.129   2.841   1.171  1.9926 -0.2116 -2.7828
    5CHTO   C97 1766   7.123   2.989   1.399 -0.3435 -0.3794  0.7004
    5CHTO  H184 1767   7.128   2.910   1.476  1.4372  0.1020  1.1019
    5CHTO   O64 1768   7.143   3.116   1.452  0.3723 -0.2378  0.2706
    5CHTO  C104 1769   7.256   3.137   1.537  0.5973 -0.1718  0.0317
    5CHTO  H191 1770   7.257   3.067   1.620 -1.2770 -0.6979 -0.3638
    5CHTO  C108 1771   7.242   3.279   1.591 -0.1232  0.2141 -0.5066
    5CHTO   O71 1772   7.353   3.317   1.681  0.4149  0.3174  0.6951
    5CHTO  H171 1773   7.323   3.342   1.767  1.7308 -0.7400  1.4791
    5CHTO   O62 1774   6.994   2.998   1.329 -0.6951  0.0885  0.3330
    5CHTO   C91 1775   6.872   2.965   1.403  0.3386  0.1770  0.0972
    5CHTO  H178 1776   6.896   2.976   1.509  0.2448  2.0434 -0.0456
    5CHTO   C92 1777   6.827   2.817   1.379 -0.4641 -0.3740  0.0920
    5CHTO  H179 1778   6.842   2.796   1.272  2.5226 -1.5602  0.6872
    5CHTO   O66 1779   6.926   2.734   1.439  0.1113  0.4961  0.3339
    5CHTO  H166 1780   6.885   2.658   1.476 -0.9054 -0.0297 -1.7848
    5CHTO   C93 1781   6.682   2.789   1.435 -0.3391 -0.0918  0.2712
    5CHTO  H180 1782   6.692   2.803   1.544 -0.6763 -1.6405  0.5211
    5CHTO   N16 1783   6.634   2.652   1.420 -0.5846  0.6644 -0.2907
    5CHTO  H172 1784   6.549   2.632   1.484 -0.9634 -0.7884 -1.2469
    5CHTO  H173 1785   6.715   2.587   1.449 -0.5754  1.1800  0.8719
    5CHTO   C94 1786   6.582   2.902   1.378 -0.2954 -0.1527 -0.4967
    5CHTO  H181 1787   6.581   2.902   1.269 -2.2834 -1.1666 -0.5099
    5CHTO   O61 1788   6.620   3.032   1.424 -0.3680  0.1206 -0.2631
    5CHTO   C95 1789   6.750   3.068   1.373 -0.1285 -0.5871 -0.0282
    5CHTO  H182 1790   6.735   3.078   1.266  1.2097  2.7730  0.0399
    5CHTO  C106 1791   6.786   3.208   1.422 -0.2189  0.1163  0.0240
    5CHTO   O69 1792   6.684   3.299   1.381 -0.3541  0.1420 -0.1233
    5CHTO  H169 1793   6.720   3.384   1.399  1.2937 -0.3843 -0.8085
    5CHTO   O63 1794   6.440   2.883   1.438 -0.9085  0.1556 -0.4415
    5CHTO   C96 1795   6.317   2.902   1.324 -0.7862 -0.3490 -0.1946
    5CHTO  H183 1796   6.355   2.856   1.233  0.2153 -1.3400  0.7060
    5CHTO   C98 1797   6.263   3.035   1.303 -0.0458  0.7419  0.0533
    5CHTO  H185 1798   6.209   3.067   1.393  1.2289  1.4667  0.5828
    5CHTO   O67 1799   6.364   3.140   1.285 -0.3226  0.5559 -0.6070
    5CHTO  H167 1800   6.324   3.215   1.247  1.3154  1.7800  0.0585
    5CHTO  C102 1801   6.158   3.032   1.186  0.4650  0.7645  0.0548
    5CHTO  H189 1802   6.216   3.020   1.092  0.0373  1.6402 -0.3239
    5CHTO   N18 1803   6.082   3.160   1.181  0.5966 -0.1260  0.2059
    5CHTO  H176 1804   6.144   3.228   1.125 -0.0810  0.3922  0.0788
    5CHTO  H177 1805   6.076   3.201   1.281  0.4882 -1.8896  0.9562
    5CHTO  C105 1806   6.055   2.912   1.199  0.2850 -0.4478  0.4787
    5CHTO  H192 1807   5.969   2.941   1.259  0.9559 -0.4763  1.4780
    5CHTO   O65 1808   6.111   2.793   1.262 -0.5085 -0.9972 -0.5429
    5CHTO  C100 1809   6.194   2.812   1.378  0.5883  0.5074  0.1144
    5CHTO  H187 1810   6.145   2.855   1.466  0.0077 -0.5085  0.2983
    5CHTO  C107 1811   6.223   2.662   1.429 -0.9129  0.1571 -0.4043
    5CHTO   O70 1812   6.313   2.667   1.547  0.1259  0.5655 -0.3946
    5CHTO  H170 1813   6.351   2.582   1.556 -2.5446 -0.9025 -2.0888
    5CHTO   O57 1814   6.005   2.876   1.058  0.6335 -0.4756  1.1397
    5CHTO   C85 1815   5.882   2.807   1.032 -0.9803 -0.3899  0.0217
    5CHTO  H157 1816   5.799   2.866   1.076 -0.3089  0.8527 -0.3594
    5CHTO   C83 1817   5.874   2.667   1.109 -0.5454  0.2111 -0.1529
    5CHTO  H155 1818   5.872   2.688   1.216 -0.3700  1.6368 -0.4145
    5CHTO   O56 1819   5.987   2.582   1.086 -0.6962  0.2924  0.2517
    5CHTO  H135 1820   5.977   2.497   1.124 -1.9539  0.5755  0.5705
    5CHTO   C81 1821   5.737   2.598   1.071  1.0310 -0.3971 -0.4503
    5CHTO  H153 1822   5.657   2.668   1.092  1.2830  0.1206 -1.1929
    5CHTO   N14 1823   5.713   2.474   1.154 -0.5226  0.2492  0.0017
    5CHTO  H141 1824   5.696   2.383   1.100 -0.8611 -0.2067  0.8760
    5CHTO  H142 1825   5.637   2.485   1.228  1.5978 -2.1005  2.6553
    5CHTO   C79 1826   5.745   2.568   0.912  0.1197 -0.1950  0.0952
    5CHTO  H151 1827   5.653   2.518   0.881 -0.6249  1.6506 -0.7655
    5CHTO   O52 1828   5.740   2.694   0.842  0.4625  0.0189 -0.4928
    5CHTO   C86 1829   5.856   2.778   0.873 -0.3319 -0.4824 -0.0506
    5CHTO  H158 1830   5.944   2.727   0.828 -1.2564 -2.8280  0.6971
    5CHTO   C90 1831   5.845   2.921   0.813 -0.5843  0.1444 -0.3226
    5CHTO   O60 1832   5.838   2.931   0.672 -0.6158 -0.0245 -0.2316
    5CHTO  H138 1833   5.792   2.855   0.643  1.5922 -1.0590 -1.1367
    5CHTO   O50 1834   5.851   2.479   0.869 -0.0923 -0.2810 -0.3357
    5CHTO   C73 1835   5.876   2.383   0.764 -0.3160  0.5912  0.7367
    5CHTO  H145 1836   5.826   2.415   0.672  3.6941  0.4294 -1.6061
    5CHTO   C74 1837   5.826   2.248   0.820 -0.6398 -0.1065 -0.5101
    5CHTO  H146 1838   5.723   2.264   0.853 -0.1704 -0.5654  1.2668
    5CHTO   O54 1839   5.818   2.138   0.725  0.7355  0.4763 -0.3502
    5CHTO  H133 1840   5.792   2.157   0.637  2.1965  1.7329 -0.5323
    5CHTO   C75 1841   5.916   2.198   0.944  0.2986 -0.5873  0.1214
    5CHTO  H147 1842   5.903   2.269   1.028  2.1179  2.3992 -2.0201
    5CHTO   N13 1843   5.884   2.064   1.001  0.2328  0.0598 -0.6938
    5CHTO  H139 1844   5.803   2.008   0.957  0.3878 -2.3505  1.9140
    5CHTO  H140 1845   5.967   1.996   1.019 -1.7400 -2.2669 -0.1659
    5CHTO   C76 1846   6.070   2.209   0.904 -0.3786 -0.6598 -0.1225
    5CHTO  H148 1847   6.095   2.126   0.838 -1.1603 -0.4357 -0.7172
    5CHTO   O49 1848   6.103   2.338   0.843  0.2132  0.5349 -0.3339
    5CHTO   C77 1849   6.028   2.376   0.730 -0.8626  0.0228 -0.1367
    5CHTO  H149 1850   6.042   2.316   0.640  0.6608 -0.1022  0.1751
    5CHTO   C88 1851   6.089   2.514   0.704 -0.0387 -0.6969  0.1694
    5CHTO   O58 1852   6.250   2.510   0.690  0.1537 -0.0305 -0.3480
    5CHTO  H136 1853   6.275   2.598   0.673 -2.4785  0.9819  0.7939
    5CHTO   O51 1854   6.164   2.212   1.034  0.4204 -0.1101 -0.1177
    5CHTO   C78 1855   6.317   2.221   0.999 -0.5547 -0.2146  0.6703
    5CHTO  H150 1856   6.328   2.270   0.900  2.7619 -1.3795  0.4139
    5CHTO   C80 1857   6.382   2.083   0.988  0.4108  0.7398  0.2416
    5CHTO  H152 1858   6.358   2.022   1.077  0.9164  1.3470  0.7947
    5CHTO   O55 1859   6.320   2.002   0.883 -0.1660  0.5936 -0.1149
    5CHTO  H134 1860   6.347   2.022   0.796 -1.6138  0.9473 -0.4959
    5CHTO   C84 1861   6.536   2.091   0.967  0.6868  0.2175  0.0104
    5CHTO  H156 1862   6.553   2.123   0.864  1.1064 -0.8883 -0.2774
    5CHTO   N15 1863   6.609   1.961   0.966  0.1962 -0.7604 -0.0601
    5CHTO  H143 1864   6.611   1.919   1.064  2.2387 -0.2928  0.1229
    5CHTO  H144 1865   6.711   1.972   0.936  0.6775 -1.8041  1.1556
    5CHTO   C87 1866   6.602   2.194   1.060  0.1687 -1.1791 -0.4854
    5CHTO  H159 1867   6.596   2.146   1.158 -1.6619 -0.8760 -0.4341
    5CHTO   O53 1868   6.525   2.323   1.070 -0.2234 -0.0741  0.6132
    5CHTO   C82 1869   6.387   2.312   1.103  0.2783 -0.2085 -0.2247
    5CHTO  H154 1870   6.367   2.279   1.205 -1.5482  0.5974 -0.3046
    5CHTO   C89 1871   6.326   2.454   1.091  0.2538  0.1096 -0.2902
    5CHTO   O59 1872   6.403   2.557   1.155  0.5167 -0.2989 -0.0617
    5CHTO  H137 1873   6.495   2.542   1.156  0.2750 -2.0699 -0.9426
    5CHTO   O45 1874   6.757   2.217   1.004 -0.2876 -0.3286 -0.2166
    5CHTO   C67 1875   6.853   2.247   1.105 -0.0436  0.2455 -0.0470
    5CHTO  H124 1876   6.806   2.244   1.203 -0.4695 -2.2086 -0.3048
    5CHTO   C65 1877   6.972   2.148   1.113  0.4585  0.8016 -0.0722
    5CHTO  H122 1878   6.972   2.093   1.019  1.9942  0.9744 -0.1918
    5CHTO   O44 1879   6.935   2.065   1.223  0.4632  0.2440 -0.9259
    5CHTO  H102 1880   7.006   2.007   1.245 -0.6250 -0.4946  0.6978
    5CHTO   C63 1881   7.116   2.205   1.123 -0.1819 -0.9167 -0.0759
    5CHTO  H120 1882   7.141   2.249   1.026  0.7503 -0.4324  0.3723
    5CHTO   N11 1883   7.228   2.104   1.145  0.2798  0.1004  0.3357
    5CHTO  H108 1884   7.202   2.022   1.080  0.0281 -0.8946  1.6743
    5CHTO  H109 1885   7.324   2.143   1.120  0.2032  1.4586  2.0919
    5CHTO   C61 1886   7.120   2.326   1.217  0.0914  0.9046  0.0519
    5CHTO  H118 1887   7.212   2.384   1.202 -0.9099  1.7122 -3.5395
    5CHTO   O40 1888   7.009   2.425   1.190  0.1269 -0.2782  0.2296
    5CHTO   C68 1889   6.911   2.394   1.089  0.1730 -0.4507 -0.1786
    5CHTO  H125 1890   6.963   2.400   0.992  1.2062  0.9728  0.4415
    5CHTO   C72 1891   6.794   2.493   1.090  0.1603  0.1507 -0.6671
    5CHTO   O48 1892   6.829   2.635   1.076 -0.4215  0.2047  0.0865
    5CHTO  H105 1893   6.907   2.648   1.127 -1.5383 -1.4641  2.2947
    5CHTO   O38 1894   7.100   2.283   1.353 -0.2042  0.0918 -0.0788
    5CHTO   C55 1895   7.076   2.391   1.448 -0.1528 -0.7391 -0.3190
    5CHTO  H112 1896   7.002   2.469   1.423  0.8144  0.5450  0.7514
    5CHTO   C56 1897   7.208   2.457   1.499 -0.3110  0.3371 -0.0897
    5CHTO  H113 1898   7.274   2.371   1.515  0.8283  1.4599  1.4002
    5CHTO   O42 1899   7.257   2.527   1.391 -0.4029 -1.0055 -0.4741
    5CHTO  H100 1900   7.336   2.488   1.357 -0.2078 -0.5095 -0.5883
    5CHTO   C57 1901   7.187   2.553   1.630  0.5359 -0.1397  0.2435
    5CHTO  H114 1902   7.135   2.638   1.586  0.3190  2.1163  4.5507
    5CHTO   N10 1903   7.318   2.605   1.686 -0.3284 -0.2527  0.1748
    5CHTO  H106 1904   7.352   2.541   1.766  0.0205 -1.0040 -0.5770
    5CHTO  H107 1905   7.318   2.711   1.711  0.5096 -0.0608 -0.6444
    5CHTO   C58 1906   7.097   2.475   1.730 -0.1318  0.0864  0.5359
    5CHTO  H115 1907   7.157   2.396   1.779  0.5046  0.5346  0.4767
    5CHTO   O37 1908   6.973   2.421   1.673  0.6492  0.1508 -0.4930
    5CHTO   C59 1909   6.997   2.323   1.572  0.1617 -0.4144 -0.3057
    5CHTO  H116 1910   7.049   2.235   1.611 -2.1663 -1.9828 -0.6577
    5CHTO   C70 1911   6.863   2.273   1.517 -0.0987 -0.4740  0.0669
    5CHTO   O46 1912   6.779   2.375   1.457 -0.1794  0.1416 -0.5507
    5CHTO  H103 1913   6.711   2.401   1.517 -0.4513 -0.8391 -0.4201
    5CHTO   O39 1914   7.047   2.584   1.847 -0.8028  0.0974 -0.2856
    5CHTO   C60 1915   6.937   2.670   1.803  0.3036 -0.0465 -0.9086
    5CHTO  H117 1916   6.923   2.656   1.696 -2.4180 -0.5961 -0.5312
    5CHTO   C62 1917   6.807   2.627   1.877  0.0387  0.5366 -0.4259
    5CHTO  H119 1918   6.794   2.521   1.848  0.3457 -0.1661  1.9065
    5CHTO   O43 1919   6.823   2.635   2.021  0.2442  0.7023  0.5089
    5CHTO  H101 1920   6.839   2.725   2.043  1.8866  0.7168 -0.6602
    5CHTO   C66 1921   6.687   2.718   1.814 -0.2328  0.2182  0.4124
    5CHTO  H123 1922   6.680   2.703   1.707 -0.2600 -0.1231  0.4600
    5CHTO   N12 1923   6.559   2.655   1.861  0.0372 -0.0779  0.5029
    5CHTO  H110 1924   6.571   2.548   1.865 -3.3077 -0.5655 -0.8099
    5CHTO  H111 1925   6.543   2.685   1.964 -0.6278  0.5823  0.2097
    5CHTO   C69 1926   6.708   2.865   1.849 -0.5276 -0.8943 -0.1326
    5CHTO  H126 1927   6.707   2.858   1.960  1.3892 -0.5946 -0.0893
    5CHTO   O41 1928   6.851   2.910   1.782  0.1901  0.2403 -0.0349
    5CHTO   C64 1929   6.964   2.818   1.827  0.1200 -0.1714 -0.4026
    5CHTO  H121 1930   6.986   2.838   1.934  1.1813  1.3695 -0.8835
    5CHTO   C71 1931   7.081   2.873   1.747 -0.2353  0.3427  0.2811
    5CHTO   O47 1932   7.110   3.008   1.782  0.0809 -0.3277 -0.4610
    5CHTO  H104 1933   7.188   3.041   1.742  0.0494  0.3247  0.0044
    5CHTO   O34 1934   6.599   2.957   1.801  0.1618 -0.1310 -0.3322
    5CHTO   C49 1935   6.568   3.119   1.769 -0.1110  0.7314  0.2881
    5CHTO   H91 1936   6.616   3.146   1.675 -0.2659 -0.7085 -0.2127
    5CHTO   C47 1937   6.634   3.200   1.889  0.0162 -0.3677 -0.8190
    5CHTO   H89 1938   6.635   3.307   1.859  1.6577  0.1605  0.9781
    5CHTO   O33 1939   6.768   3.156   1.916  0.2997 -0.7905  0.2018
    5CHTO   H70 1940   6.774   3.074   1.960  0.0055 -0.1561  1.4396
    5CHTO   C45 1941   6.549   3.189   2.019 -0.2015 -0.1184  0.5764
    5CHTO   H87 1942   6.543   3.082   2.046 -1.2226 -0.2182 -0.0164
    5CHTO    N8 1943   6.604   3.268   2.136 -0.6257 -0.2172 -0.1323
    5CHTO   H75 1944   6.686   3.220   2.187  0.3019 -0.0921 -1.4642
    5CHTO   H76 1945   6.629   3.367   2.101 -0.2010 -0.2845 -0.0251
    5CHTO   C43 1946   6.398   3.223   1.996 -0.1883 -0.3912  0.2291
    5CHTO   H85 1947   6.348   3.207   2.091  0.8816  0.0794  0.8911
    5CHTO   O29 1948   6.354   3.136   1.896  1.1346  0.3674 -0.2398
    5CHTO   C50 1949   6.416   3.138   1.770 -0.2484  0.2406  0.9997
    5CHTO   H92 1950   6.369   3.071   1.696 -1.2609  3.1912 -1.1367
    5CHTO   C54 1951   6.386   3.269   1.694  0.0759 -0.4677 -0.0833
    5CHTO   O36 1952   6.454   3.297   1.571  0.1147 -0.3372 -0.2065
    5CHTO   H72 1953   6.401   3.275   1.497  0.6013  0.5455 -0.8257
    5CHTO   O27 1954   6.365   3.367   1.971  0.1069 -0.8428 -0.4907
    5CHTO   C37 1955   6.277   3.474   2.020  0.3696 -0.0042  0.2773
    5CHTO   H79 1956   6.271   3.557   1.949 -2.6613 -1.8279 -1.6968
    5CHTO   C38 1957   6.132   3.413   2.023 -1.3484 -0.0829  0.0295
    5CHTO   H80 1958   6.134   3.328   2.093 -1.6154 -0.0449  0.0841
    5CHTO   O31 1959   6.099   3.363   1.888 -0.4531  0.1147 -0.2914
    5CHTO   H68 1960   6.084   3.434   1.829  1.3885  0.4514 -0.3831
    5CHTO   C39 1961   6.033   3.519   2.079 -0.0285  0.1776 -0.0870
    5CHTO   H81 1962   6.037   3.603   2.009 -0.5933  0.4867  0.2502
    5CHTO    N7 1963   5.892   3.475   2.086 -0.0739 -0.1508 -0.2508
    5CHTO   H73 1964   5.867   3.427   1.993 -0.5105 -2.1454  0.8659
    5CHTO   H74 1965   5.836   3.568   2.089  1.7441  0.9784 -0.6472
    5CHTO   C40 1966   6.076   3.589   2.215  0.7514 -0.2173 -0.6050
    5CHTO   H82 1967   6.050   3.527   2.301  0.4002 -1.5280 -1.6314
    5CHTO   O26 1968   6.219   3.625   2.210  0.2196 -0.3895 -0.2095
    5CHTO   C41 1969   6.317   3.525   2.166 -0.0181 -0.1057  0.3042
    5CHTO   H83 1970   6.323   3.440   2.236  0.8959  0.9146  1.4916
    5CHTO   C52 1971   6.452   3.591   2.161  0.1665 -0.1433 -0.8097
    5CHTO   O35 1972   6.522   3.603   2.282  0.0274  0.1852 -0.4577
    5CHTO   H71 1973   6.599   3.654   2.267  1.2801 -1.9166 -1.4790
    5CHTO   O28 1974   6.003   3.715   2.247 -0.1551 -0.3142  0.4675
    5CHTO   C42 1975   6.003   3.802   2.368  0.0964  0.2125  0.1023
    5CHTO   H84 1976   5.943   3.886   2.334 -2.3136 -1.0064  1.2456
    5CHTO   C44 1977   6.141   3.868   2.416 -0.0816  0.4573  0.3742
    5CHTO   H86 1978   6.207   3.874   2.329  1.3628 -0.9725  1.3408
    5CHTO   O32 1979   6.124   4.010   2.458  0.3660 -0.5015  0.0561
    5CHTO   H69 1980   6.055   4.014   2.521  0.6416  1.2030  0.2684
    5CHTO   C48 1981   6.215   3.792   2.534  0.6891 -1.2646  0.1340
    5CHTO   H90 1982   6.194   3.849   2.625  0.0508 -2.5202  0.7891
    5CHTO    N9 1983   6.366   3.803   2.514  0.2386  0.3671 -0.6252
    5CHTO   H77 1984   6.401   3.886   2.574  1.3060 -0.9288  0.5978
    5CHTO   H78 1985   6.416   3.710   2.535 -0.3067  0.5813  1.7823
    5CHTO   C51 1986   6.160   3.646   2.552  0.1250  0.0243  0.7697
    5CHTO   H93 1987   6.165   3.593   2.457 -4.1194  0.6750  0.1220
    5CHTO   O30 1988   6.026   3.653   2.593  0.2017 -0.3006 -0.2045
    5CHTO   C46 1989   5.929   3.739   2.487  0.5566  0.0462 -0.5876
    5CHTO   H88 1990   5.868   3.656   2.450  0.5025 -0.4590  0.6284
    5CHTO   C53 1991   5.830   3.839   2.553 -0.3773  0.0514 -0.0266
    5CHTO   O72 1992   5.733   3.774   2.628 -0.5339  0.0625 -0.4731
    5CHTO  H199 1993   5.770   3.716   2.692 -0.7934  0.4218  0.0149
    5CHTO   O22 1994   6.231   3.571   2.656  0.0647  0.2851  0.5021
    5CHTO   C31 1995   6.245   3.414   2.644 -0.3135 -0.9270  0.0214
    5CHTO   H59 1996   6.274   3.387   2.748  1.3234  0.2113 -0.1196
    5CHTO   C29 1997   6.108   3.346   2.612 -0.0849 -0.3390  0.0896
    5CHTO   H57 1998   6.063   3.408   2.533  0.6784  0.2974  0.1468
    5CHTO   O21 1999   6.026   3.366   2.730 -0.0442  0.4044 -0.1299
    5CHTO   H37 2000   6.003   3.456   2.738 -3.2037 -0.4412  1.0301
    5CHTO   C27 2001   6.126   3.199   2.564  0.0760 -0.3190 -0.2930
    5CHTO   H55 2002   6.147   3.136   2.652  1.1348  2.0783  1.2195
    5CHTO    N5 2003   6.000   3.149   2.501 -0.2593  0.5809  0.0401
    5CHTO   H43 2004   5.940   3.090   2.568 -0.6493  1.0976  0.1481
    5CHTO   H44 2005   6.011   3.110   2.401 -0.9782  0.2984  0.0697
    5CHTO   C25 2006   6.248   3.185   2.464  0.1428 -0.3212  0.0717
    5CHTO   H53 2007   6.248   3.249   2.375  2.1119 -1.0696 -0.4981
    5CHTO   O17 2008   6.363   3.234   2.536 -0.3856  0.7033 -0.3384
    5CHTO   C32 2009   6.361   3.376   2.557  0.5149  0.3905  0.1892
    5CHTO   H60 2010   6.363   3.441   2.469 -0.2742 -0.0599 -0.1661
    5CHTO   C36 2011   6.494   3.409   2.630 -0.1376  0.1555  0.8726
    5CHTO   O25 2012   6.604   3.364   2.553  0.0771 -0.0968  0.0886
    5CHTO   H40 2013   6.640   3.298   2.608 -0.5550 -2.1711 -1.8863
    5CHTO   O15 2014   6.267   3.036   2.425 -0.0077  0.3088 -0.1157
    5CHTO   C19 2015   6.337   2.921   2.486  0.4633  0.9445  0.0590
    5CHTO   H47 2016   6.400   2.959   2.567  1.3700  0.8675 -0.5953
    5CHTO   C20 2017   6.253   2.810   2.553 -0.1775 -0.0600  0.0556
    5CHTO   H48 2018   6.189   2.755   2.483  2.1281 -3.7397  0.6375
    5CHTO   O19 2019   6.159   2.876   2.643 -0.4348  1.1192 -0.2001
    5CHTO   H35 2020   6.120   2.813   2.701  0.2754  1.3659  0.5458
    5CHTO   C21 2021   6.344   2.714   2.641 -0.9947  0.2057 -0.1910
    5CHTO   H49 2022   6.393   2.769   2.722 -0.5728 -1.2022  0.5316
    5CHTO    N4 2023   6.265   2.605   2.709  0.1961  0.4448 -0.1101
    5CHTO   H41 2024   6.311   2.565   2.798  0.4330 -0.9792 -0.8505
    5CHTO   H42 2025   6.164   2.633   2.733 -0.1996 -2.5600  2.0536
    5CHTO   C22 2026   6.450   2.658   2.548 -0.9453 -0.3110  0.2169
    5CHTO   H50 2027   6.402   2.589   2.478  0.4373 -1.8974  0.8066
    5CHTO   O14 2028   6.518   2.762   2.474 -0.2119 -0.2602  0.1984
    5CHTO   C23 2029   6.438   2.850   2.393  0.0057 -0.7346 -0.6887
    5CHTO   H51 2030   6.387   2.801   2.309 -0.2762 -2.0350  0.2352
    5CHTO   C34 2031   6.530   2.958   2.332 -0.6924  0.0046 -0.4234
    5CHTO   O23 2032   6.637   2.895   2.272 -0.3048 -0.4139  0.7488
    5CHTO   H38 2033   6.674   2.945   2.202  1.6543 -1.3855  1.0391
    5CHTO   O16 2034   6.558   2.590   2.617  0.2933 -0.5258  0.2807
    5CHTO   C24 2035   6.651   2.480   2.504  0.5886  0.2961 -0.2980
    5CHTO   H52 2036   6.619   2.495   2.401  0.8672  0.9007 -0.2982
    5CHTO   C26 2037   6.631   2.337   2.555 -0.2874  0.5121  0.1028
    5CHTO   H54 2038   6.665   2.336   2.661 -1.0749  0.1445  0.3576
    5CHTO   O20 2039   6.486   2.313   2.559  0.0094 -0.0481  0.3889
    5CHTO   H36 2040   6.444   2.347   2.483  1.0517  2.1323  0.7487
    5CHTO   C30 2041   6.712   2.231   2.473  0.1136 -0.5570  0.4907
    5CHTO   H58 2042   6.662   2.228   2.375  0.3570 -0.2934  0.3568
    5CHTO    N6 2043   6.693   2.096   2.533  0.3563  0.1632 -0.1580
    5CHTO   H45 2044   6.599   2.090   2.586  0.2762 -0.7646 -0.4019
    5CHTO   H46 2045   6.694   2.029   2.449 -1.6160  1.2814 -1.1068
    5CHTO   C33 2046   6.857   2.283   2.464  0.3121 -0.0825 -0.4003
    5CHTO   H61 2047   6.895   2.283   2.567  0.7306  0.5450 -0.5525
    5CHTO   O18 2048   6.864   2.422   2.413  0.4007 -0.4930  0.0590
    5CHTO   C28 2049   6.803   2.506   2.509 -0.2341 -0.1213 -0.0097
    5CHTO   H56 2050   6.834   2.495   2.613  0.4939  0.3376 -0.1733
    5CHTO   C35 2051   6.836   2.650   2.479  0.1021 -0.5605  0.1932
    5CHTO   O24 2052   6.825   2.730   2.596  0.9966  0.4351  0.3875
    5CHTO   H39 2053   6.770   2.801   2.568 -1.3352 -1.4365  0.1465
    5CHTO    O9 2054   6.937   2.194   2.386 -0.2163 -0.1164 -0.3720
    5CHTO   C13 2055   6.911   2.178   2.216 -0.0272  0.6800  1.1507
    5CHTO   H26 2056   6.805   2.200   2.193 -0.8906 -1.8042  2.5573
    5CHTO   C11 2057   6.947   2.033   2.170 -0.3396 -0.0368 -0.0787
    5CHTO   H24 2058   6.876   1.965   2.219 -0.1042  0.7687  1.3798
    5CHTO    O8 2059   7.075   1.999   2.218  0.0196 -0.1843 -0.2617
    5CHTO    H3 2060   7.065   1.957   2.302 -2.4356  0.5994 -0.1117
    5CHTO    C9 2061   6.930   2.018   2.016  0.1138 -0.4052  0.2632
    5CHTO   H22 2062   6.830   2.060   1.995  1.0936  2.0584  0.3065
    5CHTO    N2 2063   6.927   1.882   1.966  0.1618 -0.0118  0.0467
    5CHTO   H10 2064   6.933   1.814   2.049 -3.8735  0.8968  1.1842
    5CHTO   H11 2065   6.997   1.862   1.886 -0.8868  0.3295 -0.9807
    5CHTO    C7 2066   7.034   2.121   1.950 -0.1329 -0.1485 -0.0792
    5CHTO   H20 2067   6.998   2.123   1.845  0.9643 -2.6624 -0.5464
    5CHTO    O4 2068   7.038   2.260   2.004 -0.0718  0.8033  0.0345
    5CHTO   C14 2069   6.995   2.284   2.138  0.2989 -0.1902  0.5708
    5CHTO   H27 2070   6.938   2.378   2.125  0.7832  0.1866  1.1624
    5CHTO   C18 2071   7.118   2.321   2.221  0.1704 -0.2528 -0.0106
    5CHTO   O13 2072   7.169   2.452   2.179  0.4610  0.4869  0.7995
    5CHTO    H7 2073   7.257   2.454   2.211  0.0889  1.1544  1.7953
    5CHTO    O2 2074   7.199   2.055   1.949  0.2208 -0.1659  0.1166
    5CHTO    C1 2075   7.277   2.097   1.832 -0.2647  0.2451  0.4772
    5CHTO   H14 2076   7.245   2.197   1.794  0.6025 -0.3007 -1.7573
    5CHTO    C2 2077   7.263   1.998   1.708  0.6206  0.1732 -0.1265
    5CHTO   H15 2078   7.287   1.897   1.743 -0.5847 -0.8243 -2.0798
    5CHTO    O6 2079   7.130   2.002   1.649 -0.0353 -0.4367  0.7709
    5CHTO    H1 2080   7.134   2.031   1.560 -0.0904 -1.2670  0.4931
    5CHTO    C3 2081   7.368   2.036   1.595  1.1692 -0.7846 -0.2954
    5CHTO   H16 2082   7.339   2.129   1.543 -0.7246 -0.3265  1.5019
    5CHTO    N1 2083   7.377   1.939   1.482  0.3270 -0.2302 -0.3595
    5CHTO    H8 2084   7.284   1.912   1.436  0.7200 -2.1049 -0.0944
    5CHTO    H9 2085   7.421   1.848   1.520 -0.5935 -0.1969  0.8033
    5CHTO    C4 2086   7.507   2.062   1.655  0.7688 -0.5147 -0.5099
    5CHTO   H17 2087   7.559   1.973   1.691  1.1305 -0.4000 -0.7446
    5CHTO    O1 2088   7.503   2.153   1.763  0.4216  1.2444  0.0903
    5CHTO    C5 2089   7.423   2.109   1.876 -0.0194 -1.1627 -0.7758
    5CHTO   H18 2090   7.457   2.016   1.920  1.2164  0.1622  1.1244
    5CHTO   C16 2091   7.420   2.216   1.988 -0.5053  0.3979 -0.3940
    5CHTO   O11 2092   7.363   2.340   1.942  0.1171 -0.0150 -0.1736
    5CHTO    H5 2093   7.444   2.379   1.916  1.0801  0.1344  2.8194
    5CHTO    O3 2094   7.601   2.141   1.571 -0.7855  0.7441 -0.3978
    5CHTO    C6 2095   7.746   2.114   1.589  1.0814  0.3063 -0.0167
    5CHTO   H19 2096   7.774   2.076   1.687  1.2077  0.4206 -0.0089
    5CHTO    C8 2097   7.789   2.014   1.473 -0.4801  0.2881 -0.2788
    5CHTO   H21 2098   7.749   2.053   1.379  3.2455  2.0638 -1.1876
    5CHTO    O7 2099   7.740   1.885   1.510  1.0746  0.3929  0.0237
    5CHTO    H2 2100   7.717   1.842   1.431 -0.6783  1.5763 -0.1418
    5CHTO   C12 2101   7.949   2.007   1.454 -0.4967 -0.0843 -0.3258
    5CHTO   H25 2102   7.989   1.938   1.531  3.7085 -0.0021 -2.3250
    5CHTO    N3 2103   7.987   1.947   1.321 -0.2950 -0.4213  0.2788
    5CHTO   H12 2104   7.992   1.840   1.335 -2.9250 -0.6683 -0.3154
    5CHTO   H13 2105   7.932   1.977   1.233  0.4623  2.0473  0.6016
    5CHTO   C15 2106   8.022   2.149   1.484  0.4518  0.2323  0.0606
    5CHTO   H28 2107   8.019   2.218   1.400 -2.7985 -1.7628 -1.5307
    5CHTO   O10 2108   8.156   2.133   1.522  0.1682  0.1430 -0.6504
    5CHTO    H4 2109   8.206   2.201   1.481 -1.0125  0.4219 -1.6533
    5CHTO    O5 2110   7.963   2.217   1.597  0.0088 -0.2604  0.0699
    5CHTO   C10 2111   7.825   2.243   1.574 -0.6639 -0.5165 -0.1909
    5CHTO   H23 2112   7.814   2.288   1.475  0.0850  0.2870  0.0922
    5CHTO   C17 2113   7.785   2.354   1.682  0.6849  0.0243  0.2997
    5CHTO   O12 2114   7.808   2.308   1.816 -0.0772  0.1847 -0.0994
    5CHTO    H6 2115   7.759   2.369   1.868  1.0493  0.3049  0.8430
    6CHTO  H203 2116   7.156   4.646  -0.680  0.3249  2.8670  0.6796
    6CHTO   O82 2117   7.138   4.633  -0.589 -0.6257 -0.6041  0.0676
    6CHTO  C123 2118   7.085   4.756  -0.542 -0.4018 -0.2724  0.1122
    6CHTO  H227 2119   7.121   4.836  -0.609 -0.3218 -1.6783 -1.5373
    6CHTO   O77 2120   6.943   4.731  -0.560 -0.3278 -0.6788  0.1516
    6CHTO  C118 2121   6.865   4.845  -0.534  0.0847  0.5388 -0.4869
    6CHTO  H222 2122   6.890   4.926  -0.604  0.1367 -0.5753 -1.7844
    6CHTO  C125 2123   6.721   4.793  -0.577  0.7974 -0.7268 -0.1080
    6CHTO   O84 2124   6.615   4.889  -0.570  0.0055 -0.0426 -0.4861
    6CHTO  H205 2125   6.532   4.852  -0.591  0.9451 -1.0983 -2.4410
    6CHTO  C114 2126   6.877   4.900  -0.386  0.5516  0.0777  0.6833
    6CHTO  H218 2127   6.851   4.814  -0.325 -0.7133 -0.2893 -0.3590
    6CHTO  C116 2128   7.035   4.923  -0.361  0.1315 -0.2947  0.8301
    6CHTO  H220 2129   7.069   5.007  -0.425 -0.2545 -0.3223  0.5873
    6CHTO   O79 2130   7.048   4.969  -0.223 -0.1120  0.1616 -0.3898
    6CHTO  H201 2131   7.009   4.904  -0.168 -0.7863  0.9986  0.1424
    6CHTO  C120 2132   7.116   4.791  -0.388  0.4179  0.3999  0.1149
    6CHTO  H224 2133   7.072   4.716  -0.320 -2.2258 -0.0748 -2.0647
    6CHTO   N21 2134   7.260   4.811  -0.359 -0.0432 -0.1619  0.1053
    6CHTO  H211 2135   7.284   4.910  -0.396 -0.4429 -0.3698 -0.7177
    6CHTO  H212 2136   7.321   4.733  -0.400 -1.2498 -0.8944 -0.3443
    6CHTO   O75 2137   6.782   5.004  -0.360  0.2913 -0.3192  0.6035
    6CHTO  C112 2138   6.697   4.984  -0.212  0.3315 -0.6129 -0.5760
    6CHTO  H216 2139   6.754   4.921  -0.143  1.2596  0.8098 -0.0154
    6CHTO   O73 2140   6.571   4.921  -0.250 -0.6897  0.4190  0.3636
    6CHTO  C113 2141   6.459   4.935  -0.171 -0.3823 -0.2342 -0.6375
    6CHTO  H217 2142   6.489   4.884  -0.077 -0.1131 -0.9540 -1.1083
    6CHTO  C124 2143   6.336   4.859  -0.232 -0.0668  0.1964 -0.6282
    6CHTO   O83 2144   6.333   4.721  -0.201 -0.2857 -0.4468 -0.0361
    6CHTO  H204 2145   6.342   4.719  -0.107  1.6258  0.5033 -0.1823
    6CHTO  C109 2146   6.430   5.084  -0.138 -0.2356 -0.0395 -0.1779
    6CHTO  H213 2147   6.425   5.141  -0.232  1.4153 -3.0593 -2.1971
    6CHTO  C110 2148   6.556   5.147  -0.062  0.6137  0.7496  0.6057
    6CHTO  H214 2149   6.572   5.099   0.035 -0.8349 -1.5485 -0.2394
    6CHTO   O78 2150   6.523   5.285  -0.058 -0.2362 -0.1617  0.0587
    6CHTO  H200 2151   6.540   5.326  -0.141  1.5568 -3.3180 -1.2161
    6CHTO  C111 2152   6.684   5.128  -0.152 -0.3370  0.0405 -0.4040
    6CHTO  H215 2153   6.671   5.185  -0.246  2.6950 -0.2601 -1.0542
    6CHTO   N19 2154   6.811   5.171  -0.100 -0.3015  0.7281 -0.2761
    6CHTO  H207 2155   6.850   5.246  -0.167  1.2680  0.0177 -0.1876
    6CHTO  H208 2156   6.880   5.088  -0.102  1.4963  2.1814  0.0579
    6CHTO   O74 2157   6.312   5.112  -0.058 -0.2039  0.3449 -0.0625
    6CHTO  C115 2158   6.307   5.087   0.098  0.3987 -0.3408  1.1062
    6CHTO  H219 2159   6.408   5.070   0.134  1.0810 -0.1097 -0.6280
    6CHTO   O76 2160   6.254   5.222   0.174  0.2813 -0.0975 -0.7321
    6CHTO  C122 2161   6.110   5.236   0.156 -0.7512  0.5387  0.1834
    6CHTO  H226 2162   6.092   5.260   0.052  0.0303 -2.1490 -0.6177
    6CHTO  C126 2163   6.071   5.363   0.237  0.0693  0.3433  0.2772
    6CHTO   O85 2164   6.053   5.342   0.376 -0.6434 -0.0367  0.1807
    6CHTO  H206 2165   6.132   5.357   0.425 -0.5868 -1.1399  0.4426
    6CHTO  C121 2166   6.021   5.107   0.190  0.4574 -0.1696 -0.2805
    6CHTO  H225 2167   5.958   5.137   0.277  0.4528 -3.4016  0.8967
    6CHTO   O81 2168   5.932   5.076   0.080 -0.1061  0.1729 -0.2794
    6CHTO  H202 2169   5.965   5.008   0.026  0.9215 -1.1103  1.8913
    6CHTO  C119 2170   6.107   4.990   0.234  0.6781  0.4244  0.0382
    6CHTO  H223 2171   6.153   5.019   0.329  0.5463 -0.7481  0.4793
    6CHTO  C117 2172   6.218   4.960   0.126 -0.9770 -0.1768  0.3749
    6CHTO  H221 2173   6.182   4.930   0.028 -0.8326  0.4705  0.1249
    6CHTO   N20 2174   6.301   4.848   0.180 -0.5598 -0.2977  0.2863
    6CHTO  H209 2175   6.313   4.776   0.100 -0.0014 -1.9475  1.8356
    6CHTO  H210 2176   6.266   4.807   0.274 -2.1806  0.3285 -0.0259
    6CHTO   O80 2177   6.021   4.850   0.283  0.5097  0.0938  0.7152
    6CHTO  C103 2178   5.973   4.832   0.420 -0.3338 -0.0560 -0.1288
    6CHTO  H190 2179   6.022   4.904   0.485  0.4831 -0.9687  0.2757
    6CHTO  C101 2180   5.814   4.838   0.431  0.0594  0.4678 -0.2349
    6CHTO  H188 2181   5.768   4.791   0.344 -3.2332  3.1317 -0.0452
    6CHTO   O68 2182   5.757   4.997   0.418  0.7532 -0.3298  0.2335
    6CHTO  H168 2183   5.796   5.051   0.484  0.4355 -1.5344  1.4430
    6CHTO   C99 2184   5.765   4.772   0.564 -0.4003  0.6840 -0.1090
    6CHTO  H186 2185   5.799   4.832   0.652 -0.3313  0.1744  0.2162
    6CHTO   N17 2186   5.619   4.769   0.578  0.8393  0.1531  0.0072
    6CHTO  H174 2187   5.573   4.749   0.674 -0.7155 -1.6611 -1.0699
    6CHTO  H175 2188   5.555   4.735   0.498 -0.8044  1.4081  0.7508
    6CHTO   C97 2189   5.824   4.627   0.580 -0.4191  0.0518  0.8373
    6CHTO  H184 2190   5.785   4.564   0.499 -1.7188 -0.6386  1.9725
    6CHTO   O64 2191   5.967   4.637   0.583 -0.2740 -0.1978  0.5292
    6CHTO  C104 2192   6.021   4.686   0.462  0.6776  0.0322 -0.0587
    6CHTO  H191 2193   5.993   4.616   0.383  1.2115 -1.3030  0.9266
    6CHTO  C108 2194   6.173   4.654   0.483  0.5823  0.0925  0.4909
    6CHTO   O71 2195   6.250   4.713   0.585  0.3512 -0.2109  0.1121
    6CHTO  H171 2196   6.196   4.729   0.661  0.4855 -1.0635  0.3903
    6CHTO   O62 2197   5.821   4.566   0.707  0.0048  0.2396 -0.7049
    6CHTO   C91 2198   5.709   4.492   0.761  0.1936  0.3304 -0.4313
    6CHTO  H178 2199   5.618   4.552   0.769  1.2301  2.1442 -1.6077
    6CHTO   C92 2200   5.752   4.459   0.912  0.4168  1.2879 -0.0480
    6CHTO  H179 2201   5.772   4.554   0.965 -3.9976  2.4175 -0.2303
    6CHTO   O66 2202   5.639   4.409   0.979 -0.5616  0.5064  0.5904
    6CHTO  H166 2203   5.601   4.469   1.041  0.3876  1.8072 -0.0520
    6CHTO   C93 2204   5.867   4.346   0.927  0.1968  0.0565 -0.3479
    6CHTO  H180 2205   5.854   4.295   1.023  0.8210  0.7764  0.1208
    6CHTO   N16 2206   5.999   4.407   0.935 -0.3756 -0.1034  0.8000
    6CHTO  H172 2207   5.999   4.484   1.010 -3.5064  1.2960 -0.5556
    6CHTO  H173 2208   6.021   4.467   0.847 -0.2852  2.0288  2.2411
    6CHTO   C94 2209   5.851   4.236   0.811 -0.2567  0.7561  0.0578
    6CHTO  H181 2210   5.906   4.256   0.720 -3.1422 -2.9106 -2.6902
    6CHTO   O61 2211   5.712   4.231   0.769 -0.5365 -0.4203  0.2777
    6CHTO   C95 2212   5.676   4.350   0.690 -0.4571  0.8069  0.2927
    6CHTO  H182 2213   5.734   4.347   0.598 -1.8867 -0.5825 -0.5928
    6CHTO  C106 2214   5.527   4.327   0.656  0.2229 -0.4414  0.7936
    6CHTO   O69 2215   5.492   4.208   0.593  0.1933 -0.5183 -0.2659
    6CHTO  H169 2216   5.564   4.163   0.554  0.2249 -1.7102  1.1228
    6CHTO   O63 2217   5.904   4.105   0.863  0.5186  0.9802  0.0480
    6CHTO   C96 2218   5.922   4.003   0.748 -0.3436 -0.5772  0.0820
    6CHTO  H183 2219   5.899   4.052   0.654  1.5652 -1.4126 -0.8416
    6CHTO   C98 2220   5.826   3.886   0.760  0.5183  0.6157 -0.3720
    6CHTO  H185 2221   5.828   3.840   0.860  0.5473  0.9356 -0.2263
    6CHTO   O67 2222   5.691   3.936   0.747 -0.2998  0.2366 -0.3281
    6CHTO  H167 2223   5.674   3.972   0.662 -3.9731 -2.8612 -1.0557
    6CHTO  C102 2224   5.846   3.777   0.641 -0.9664  0.5992 -0.2493
    6CHTO  H189 2225   5.808   3.821   0.547  0.1025  1.5102 -0.2657
    6CHTO   N18 2226   5.772   3.647   0.659 -0.0153 -0.4349  0.1013
    6CHTO  H176 2227   5.666   3.665   0.672 -0.1716  0.0285 -1.7573
    6CHTO  H177 2228   5.806   3.604   0.752 -1.4206 -2.3752 -0.2424
    6CHTO  C105 2229   6.002   3.742   0.641 -0.1830 -0.4817 -0.7166
    6CHTO  H192 2230   6.030   3.702   0.738 -2.3141 -1.4794 -0.4927
    6CHTO   O65 2231   6.082   3.866   0.622  0.2285  0.1744  0.5891
    6CHTO  C100 2232   6.074   3.959   0.732  0.8927 -0.3292  0.2723
    6CHTO  H187 2233   6.108   3.908   0.824 -0.1142 -0.8833  0.3475
    6CHTO  C107 2234   6.180   4.072   0.703  0.1139  0.0043  1.1563
    6CHTO   O70 2235   6.144   4.140   0.578 -0.4101  0.1211 -0.7213
    6CHTO  H170 2236   6.084   4.211   0.592 -0.9162 -0.3428 -0.5358
    6CHTO   O57 2237   6.031   3.634   0.505  0.8152 -0.3588 -0.5905
    6CHTO   C85 2238   6.137   3.620   0.406  0.4787 -0.2600  0.5990
    6CHTO  H157 2239   6.096   3.538   0.343 -0.5864 -0.4335  1.5069
    6CHTO   C83 2240   6.264   3.567   0.471  0.6529  0.2990 -0.8531
    6CHTO  H155 2241   6.233   3.484   0.534 -1.0895  1.6566  0.1143
    6CHTO   O56 2242   6.316   3.667   0.561 -0.2263 -0.0606 -0.0704
    6CHTO  H135 2243   6.301   3.632   0.647 -2.6498  0.0230 -0.4433
    6CHTO   C81 2244   6.358   3.511   0.355  0.0502 -0.0485 -0.2449
    6CHTO  H153 2245   6.298   3.449   0.289 -0.9971  0.1321  0.5332
    6CHTO   N14 2246   6.470   3.425   0.404  0.1788 -0.1129 -0.0346
    6CHTO  H141 2247   6.478   3.445   0.509  0.9452 -0.2550 -0.0626
    6CHTO  H142 2248   6.442   3.324   0.387  0.5207 -0.6116  2.1596
    6CHTO   C79 2249   6.409   3.630   0.268  0.1078 -0.1377  0.3649
    6CHTO  H151 2250   6.473   3.587   0.191 -0.5049  3.2948 -2.1609
    6CHTO   O52 2251   6.294   3.715   0.212  0.2161 -0.2505  0.4917
    6CHTO   C86 2252   6.193   3.744   0.316 -0.3902 -0.1063 -0.3656
    6CHTO  H158 2253   6.242   3.822   0.379  1.4063 -0.8166 -0.8612
    6CHTO   C90 2254   6.073   3.813   0.241  0.0608 -0.3802  0.6890
    6CHTO   O60 2255   5.975   3.879   0.322 -0.5872  0.2825 -0.4172
    6CHTO  H138 2256   5.916   3.920   0.263 -0.6166 -0.0286 -0.6028
    6CHTO   O50 2257   6.515   3.709   0.333  0.9395  0.6060  0.1210
    6CHTO   C73 2258   6.631   3.797   0.330 -0.8719  0.8542 -0.1507
    6CHTO  H145 2259   6.697   3.761   0.249  0.6457  3.3553 -0.0690
    6CHTO   C74 2260   6.718   3.801   0.462 -0.1842  0.7078 -0.2520
    6CHTO  H146 2261   6.744   3.697   0.484 -1.3921  0.7238  1.3702
    6CHTO   O54 2262   6.844   3.861   0.433 -0.6092  0.6895 -0.1152
    6CHTO  H133 2263   6.829   3.949   0.404  2.7291  0.8268 -1.6372
    6CHTO   C75 2264   6.643   3.874   0.587  0.1499 -0.4571  0.0350
    6CHTO  H147 2265   6.549   3.820   0.606  1.8518 -2.6223  2.6577
    6CHTO   N13 2266   6.717   3.877   0.712  0.2752  0.7119 -0.2688
    6CHTO  H139 2267   6.653   3.834   0.787 -1.0628  1.1510 -1.1471
    6CHTO  H140 2268   6.814   3.828   0.703 -0.7047 -1.1358 -1.1342
    6CHTO   C76 2269   6.608   4.015   0.535 -0.7726 -0.0285 -0.0880
    6CHTO  H148 2270   6.698   4.072   0.514 -2.1628  1.9427 -0.7767
    6CHTO   O49 2271   6.526   4.002   0.415 -0.1746 -0.3525  0.0450
    6CHTO   C77 2272   6.593   3.947   0.301 -0.3121  1.1353 -0.1169
    6CHTO  H149 2273   6.682   4.004   0.274  0.1867  0.3240 -0.2193
    6CHTO   C88 2274   6.506   3.961   0.181  0.1688  1.3622 -0.0711
    6CHTO   O58 2275   6.476   4.135   0.162 -0.5940  0.1986 -0.3673
    6CHTO  H136 2276   6.409   4.142   0.097 -3.5860 -1.6255  2.3499
    6CHTO   O51 2277   6.527   4.098   0.644  0.3874  0.3298  0.1596
    6CHTO   C78 2278   6.571   4.262   0.658 -0.3734 -0.0439 -0.8001
    6CHTO  H150 2279   6.672   4.286   0.619 -0.8269 -0.2883 -2.1539
    6CHTO   C80 2280   6.565   4.296   0.809 -0.9044 -0.0818  0.3418
    6CHTO  H152 2281   6.483   4.241   0.860  0.1272 -2.0569 -0.0672
    6CHTO   O55 2282   6.678   4.236   0.875 -0.4983 -0.3257  0.5435
    6CHTO  H134 2283   6.758   4.269   0.840 -0.2612 -0.9569  0.4815
    6CHTO   C84 2284   6.569   4.445   0.837  0.4429  0.1876 -0.3320
    6CHTO  H156 2285   6.673   4.471   0.815 -0.1619  2.6021 -0.5253
    6CHTO   N15 2286   6.533   4.486   0.977 -0.0281 -0.4343  0.5225
    6CHTO  H143 2287   6.426   4.487   0.980 -0.1547 -2.5357 -1.4235
    6CHTO  H144 2288   6.566   4.586   0.992  1.2362 -0.8455  0.4839
    6CHTO   C87 2289   6.493   4.535   0.728 -0.1450 -0.1804 -0.2310
    6CHTO  H159 2290   6.388   4.537   0.756 -0.2008  0.0632 -0.4445
    6CHTO   O53 2291   6.511   4.483   0.598  0.7090 -0.1516 -0.0709
    6CHTO   C82 2292   6.469   4.350   0.580 -0.5130 -0.2653 -0.3602
    6CHTO  H154 2293   6.366   4.338   0.614 -0.3338  0.7702  0.5564
    6CHTO   C89 2294   6.466   4.310   0.432 -0.2457  0.2112 -0.0770
    6CHTO   O59 2295   6.351   4.371   0.375 -0.9418  0.1637  0.0798
    6CHTO  H137 2296   6.270   4.331   0.401 -1.6395  1.0206 -0.7648
    6CHTO   O45 2297   6.549   4.667   0.715  0.5198 -0.2004  0.2779
    6CHTO   C67 2298   6.677   4.694   0.657 -0.1436 -0.5677 -0.6861
    6CHTO  H124 2299   6.741   4.611   0.689 -0.8301 -0.9452 -0.2934
    6CHTO   C65 2300   6.676   4.687   0.501 -0.6061 -0.1419  0.4074
    6CHTO  H122 2301   6.571   4.675   0.474 -0.4367 -2.5080  0.6372
    6CHTO   O44 2302   6.757   4.571   0.459 -0.0743 -0.2970  0.9303
    6CHTO  H102 2303   6.735   4.545   0.372  1.2263 -0.1945  0.5587
    6CHTO   C63 2304   6.710   4.833   0.445  0.4643  0.5537 -0.0490
    6CHTO  H120 2305   6.630   4.902   0.473 -0.1476  0.1200 -0.7034
    6CHTO   N11 2306   6.695   4.841   0.293 -0.5016 -0.4657  0.1329
    6CHTO  H108 2307   6.601   4.820   0.247 -0.7915 -2.0083  1.3886
    6CHTO  H109 2308   6.772   4.780   0.251 -0.7805 -0.6711 -0.0724
    6CHTO   C61 2309   6.853   4.883   0.504 -0.3021 -0.5973  0.5958
    6CHTO  H118 2310   6.869   4.988   0.477 -0.2315 -1.2363 -1.9385
    6CHTO   O40 2311   6.860   4.873   0.645 -0.6976 -0.4407  0.2999
    6CHTO   C68 2312   6.739   4.824   0.717 -0.1251 -0.7264 -0.1840
    6CHTO  H125 2313   6.664   4.906   0.711  0.5443  0.0862  2.0939
    6CHTO   C72 2314   6.787   4.811   0.868 -0.0237 -0.0566  0.1405
    6CHTO   O48 2315   6.897   4.717   0.876  0.2167 -0.2798  0.3208
    6CHTO  H105 2316   6.874   4.632   0.906 -0.3632  0.4986  2.1566
    6CHTO   O38 2317   6.965   4.806   0.450 -0.1957  0.3362  0.0593
    6CHTO   C55 2318   7.099   4.864   0.456  0.0325 -0.8961 -0.1560
    6CHTO  H112 2319   7.093   4.935   0.540  0.8865  0.2471 -1.0434
    6CHTO   C56 2320   7.134   4.944   0.326 -1.0335 -0.0118  0.0384
    6CHTO  H113 2321   7.155   4.877   0.241  1.5293  0.9506 -0.1389
    6CHTO   O42 2322   7.033   5.036   0.281  0.2917 -0.0159  0.0998
    6CHTO  H100 2323   7.028   5.024   0.189  1.4064 -0.3176  0.0730
    6CHTO   C57 2324   7.267   5.025   0.354 -0.2236 -0.3452  0.0511
    6CHTO  H114 2325   7.238   5.094   0.433  4.7893 -0.3597  2.0912
    6CHTO   N10 2326   7.308   5.099   0.228 -0.2476 -0.4505  0.0629
    6CHTO  H106 2327   7.416   5.108   0.228 -0.2393 -0.5202 -1.0724
    6CHTO  H107 2328   7.278   5.051   0.136 -1.5159  0.7836 -0.1802
    6CHTO   C58 2329   7.381   4.933   0.411 -0.3528  0.3198  0.4556
    6CHTO  H115 2330   7.432   4.878   0.329  0.0244 -0.8989  1.4850
    6CHTO   O37 2331   7.336   4.837   0.509  0.6496  0.1475 -0.7125
    6CHTO   C59 2332   7.211   4.761   0.492 -0.0132  0.1670 -0.2239
    6CHTO  H116 2333   7.221   4.686   0.413  0.7085  0.1974 -0.1658
    6CHTO   C70 2334   7.184   4.686   0.629  0.2721 -0.1812  0.3588
    6CHTO   O46 2335   7.275   4.578   0.638  0.6609  0.1263 -0.2121
    6CHTO  H103 2336   7.239   4.525   0.706  0.4483 -0.5418 -0.8383
    6CHTO   O39 2337   7.484   5.011   0.467 -0.2405 -0.1018  0.0228
    6CHTO   C60 2338   7.619   4.973   0.436  0.1240  0.0472 -0.1094
    6CHTO  H117 2339   7.624   4.877   0.386  2.1555  1.0913 -2.0019
    6CHTO   C62 2340   7.694   5.070   0.338 -0.8028 -0.6999 -0.0857
    6CHTO  H119 2341   7.626   5.068   0.250 -1.4061 -0.0016  0.3623
    6CHTO   O43 2342   7.696   5.201   0.400  0.1679  0.0817  1.2173
    6CHTO  H101 2343   7.700   5.269   0.336 -0.0641  0.4328  1.5742
    6CHTO   C66 2344   7.840   5.001   0.318 -0.0804  0.0665  0.6591
    6CHTO  H123 2345   7.823   4.902   0.277 -1.5821  1.4772 -2.2932
    6CHTO   N12 2346   7.903   5.084   0.202  0.0406  0.0639  0.1456
    6CHTO  H110 2347   7.862   5.172   0.157  0.9048  0.5282  0.2484
    6CHTO  H111 2348   8.009   5.073   0.184  0.5229  2.3519  1.4375
    6CHTO   C69 2349   7.916   5.012   0.450  0.3265 -0.5768 -0.6743
    6CHTO  H126 2350   7.914   5.117   0.486 -1.5065 -0.4792 -1.0144
    6CHTO   O41 2351   7.850   4.911   0.542 -0.3295 -0.4993  0.7874
    6CHTO   C64 2352   7.706   4.958   0.567 -1.2012 -0.5793 -0.2440
    6CHTO  H121 2353   7.713   5.055   0.622 -1.4050 -1.0918  0.6929
    6CHTO   C71 2354   7.634   4.859   0.656 -1.1225 -0.1473 -0.4776
    6CHTO   O47 2355   7.687   4.833   0.786  0.2956  0.1772 -0.0606
    6CHTO  H104 2356   7.648   4.897   0.842  0.3636 -0.7233  1.0268
    6CHTO   O34 2357   8.070   4.954   0.429  0.1620 -0.8087  0.2167
    6CHTO   C49 2358   8.186   4.991   0.366  0.4109  0.1077 -0.6547
    6CHTO   H91 2359   8.186   4.956   0.263  0.7359 -1.5630 -0.1095
    6CHTO   C47 2360   8.299   4.918   0.436  0.3592 -0.1734 -0.5760
    6CHTO   H89 2361   8.381   4.948   0.368 -2.0334  0.9299 -3.0733
    6CHTO   O33 2362   8.276   4.772   0.428  0.1504  0.5591 -0.2375
    6CHTO   H70 2363   8.184   4.751   0.421  0.0895  0.5518  0.5907
    6CHTO   C45 2364   8.319   4.970   0.583 -0.1300 -0.3085 -0.2818
    6CHTO   H87 2365   8.233   4.932   0.641  1.2114 -1.5067  0.9456
    6CHTO    N8 2366   8.443   4.913   0.644 -0.3194  0.0075 -0.1529
    6CHTO   H75 2367   8.520   4.988   0.637  1.6754 -1.9884 -0.2375
    6CHTO   H76 2368   8.427   4.898   0.750 -1.6573 -1.7588 -0.5791
    6CHTO   C43 2369   8.315   5.130   0.606 -0.0520  0.0772 -0.0607
    6CHTO   H85 2370   8.280   5.155   0.706 -1.7680  0.6938 -0.7927
    6CHTO   O29 2371   8.235   5.200   0.504  0.3052  0.1691 -0.0253
    6CHTO   C50 2372   8.210   5.144   0.376 -1.1519 -0.4347  0.1071
    6CHTO   H92 2373   8.119   5.198   0.346 -0.7632  0.1523 -0.0199
    6CHTO   C54 2374   8.318   5.193   0.274  0.3690  0.4026 -0.2641
    6CHTO   O36 2375   8.266   5.163   0.140 -0.2116  0.1514  0.0333
    6CHTO   H72 2376   8.332   5.151   0.075 -0.8690 -1.1626 -0.4092
    6CHTO   O27 2377   8.441   5.204   0.592  0.7136  0.2536  0.1919
    6CHTO   C37 2378   8.493   5.333   0.641 -0.8695  0.1315  0.5804
    6CHTO   H79 2379   8.555   5.377   0.562  4.0802 -1.7304  3.2417
    6CHTO   C38 2380   8.385   5.434   0.680  0.8779  0.4560 -0.3560
    6CHTO   H80 2381   8.324   5.382   0.756  1.5511  1.3369  0.7920
    6CHTO   O31 2382   8.316   5.472   0.560  0.3295  0.0672  0.8394
    6CHTO   H68 2383   8.235   5.426   0.555  1.3502 -1.7058 -0.3665
    6CHTO   C39 2384   8.447   5.569   0.746 -0.0754 -0.4363  1.0716
    6CHTO   H81 2385   8.519   5.597   0.669 -2.0118 -0.9133 -0.9690
    6CHTO    N7 2386   8.350   5.675   0.776  0.1102 -0.2205  0.0672
    6CHTO   H73 2387   8.316   5.707   0.678 -2.1700  0.7856  1.1500
    6CHTO   H74 2388   8.270   5.638   0.838 -0.3020  1.5331  0.6028
    6CHTO   C40 2389   8.529   5.521   0.873 -0.3103  0.0039  0.2467
    6CHTO   H82 2390   8.455   5.477   0.941 -1.5007 -0.6864 -1.4731
    6CHTO   O26 2391   8.631   5.432   0.837  0.2468 -0.5899 -0.5448
    6CHTO   C41 2392   8.593   5.309   0.763 -0.4917  0.2357  0.1142
    6CHTO   H83 2393   8.539   5.238   0.827 -0.4722 -0.2168 -0.3727
    6CHTO   C52 2394   8.725   5.236   0.718  0.4318 -0.0725 -0.5854
    6CHTO   O35 2395   8.734   5.095   0.799 -0.6177  0.4301  0.6445
    6CHTO   H71 2396   8.673   5.031   0.771 -0.1610 -0.0514  0.7364
    6CHTO   O28 2397   8.598   5.623   0.942 -0.2595 -0.8888 -0.0357
    6CHTO   C42 2398   8.598   5.632   1.089  0.5110  0.1097 -0.8984
    6CHTO   H84 2399   8.697   5.675   1.107  0.8400 -0.4262 -1.4135
    6CHTO   C44 2400   8.599   5.501   1.171 -0.0769  0.2270  0.5695
    6CHTO   H86 2401   8.505   5.448   1.164 -1.1134  1.8799  1.4828
    6CHTO   O32 2402   8.714   5.419   1.117 -0.1705 -0.0931 -0.1865
    6CHTO   H69 2403   8.779   5.408   1.183  0.7413  3.6438 -0.3698
    6CHTO   C48 2404   8.614   5.540   1.326 -0.1731 -0.0878  0.1740
    6CHTO   H90 2405   8.719   5.569   1.329  0.3244 -1.5206 -2.0187
    6CHTO    N9 2406   8.599   5.421   1.424 -0.1465  0.3699  0.5288
    6CHTO   H77 2407   8.586   5.336   1.358 -0.0707  0.2411  0.6801
    6CHTO   H78 2408   8.686   5.405   1.485  1.1572  0.4085 -1.2708
    6CHTO   C51 2409   8.501   5.643   1.366 -0.3422 -0.4632  1.1232
    6CHTO   H93 2410   8.405   5.594   1.349 -1.3495  2.2796 -1.3240
    6CHTO   O30 2411   8.523   5.751   1.280 -0.1006 -0.4837  0.0144
    6CHTO   C46 2412   8.492   5.735   1.143  0.2890  0.3500  0.0684
    6CHTO   H88 2413   8.396   5.686   1.127  1.1041 -0.3278 -3.1306
    6CHTO   C53 2414   8.514   5.872   1.080  0.4319 -0.0415 -0.5088
    6CHTO   O72 2415   8.418   5.969   1.117 -0.4391 -0.4256 -0.3772
    6CHTO  H199 2416   8.348   5.978   1.056 -2.5075  1.5539  2.1531
    6CHTO   O22 2417   8.507   5.690   1.506 -0.6392 -0.4041  0.0816
    6CHTO   C31 2418   8.409   5.775   1.571 -0.0610 -0.6595 -0.7095
    6CHTO   H59 2419   8.430   5.770   1.680 -1.0801 -2.6945 -0.5711
    6CHTO   C29 2420   8.413   5.921   1.526 -0.7477  0.0048 -0.2177
    6CHTO   H57 2421   8.391   5.931   1.419  0.0832  3.1323 -0.1475
    6CHTO   O21 2422   8.543   5.979   1.550  0.4179  0.4759 -0.1726
    6CHTO   H37 2423   8.582   5.955   1.632 -0.2374 -2.2073 -0.6035
    6CHTO   C27 2424   8.307   6.007   1.618 -0.3564 -0.1912 -0.0198
    6CHTO   H55 2425   8.338   5.994   1.723 -0.2493  0.2954  0.0066
    6CHTO    N5 2426   8.306   6.162   1.587  0.3189  1.3137  0.4353
    6CHTO   H43 2427   8.300   6.185   1.482 -0.0824  1.3542  0.4677
    6CHTO   H44 2428   8.378   6.219   1.643 -1.0939  2.6680  0.9205
    6CHTO   C25 2429   8.168   5.940   1.592 -0.1727  0.0602 -0.1747
    6CHTO   H53 2430   8.137   5.938   1.487 -1.4965  0.4354  0.1994
    6CHTO   O17 2431   8.168   5.802   1.630  0.3729  0.7255 -0.2617
    6CHTO   C32 2432   8.260   5.718   1.559 -0.4627  0.6962  0.3000
    6CHTO   H60 2433   8.228   5.726   1.455 -3.6633  0.8489  1.2554
    6CHTO   C36 2434   8.235   5.571   1.612 -0.3617  0.9056  0.7747
    6CHTO   O25 2435   8.277   5.477   1.516 -0.1837 -0.3541  0.1937
    6CHTO   H40 2436   8.369   5.459   1.524 -0.1845 -1.6147 -2.2093
    6CHTO   O15 2437   8.049   6.005   1.666  0.8599  0.2373 -0.3789
    6CHTO   C19 2438   7.924   6.080   1.688 -0.0621  0.0134 -0.8669
    6CHTO   H47 2439   7.900   6.075   1.795  0.1751 -2.2616 -0.8973
    6CHTO   C20 2440   7.932   6.230   1.655 -0.1090 -0.2493 -0.5057
    6CHTO   H48 2441   7.954   6.244   1.548 -1.6233 -2.3418 -1.1225
    6CHTO   O19 2442   8.037   6.291   1.738 -0.4305  0.0032 -0.3164
    6CHTO   H35 2443   8.121   6.251   1.722 -0.0347  0.1585  1.2665
    6CHTO   C21 2444   7.799   6.311   1.684  0.3861  0.8015  0.1190
    6CHTO   H49 2445   7.769   6.304   1.789 -1.9559  2.5731 -0.3649
    6CHTO    N4 2446   7.802   6.451   1.652  0.0320  0.5285  0.6106
    6CHTO   H41 2447   7.863   6.505   1.723  1.5306  1.2386 -1.1451
    6CHTO   H42 2448   7.841   6.463   1.551 -1.2900  0.5647  0.1001
    6CHTO   C22 2449   7.681   6.235   1.618  0.0137 -0.1141 -0.2780
    6CHTO   H50 2450   7.688   6.244   1.509  1.6660 -0.3021 -0.1898
    6CHTO   O14 2451   7.689   6.099   1.641  0.2910 -0.7988  0.8002
    6CHTO   C23 2452   7.803   6.022   1.616  0.3147  0.2409  0.1030
    6CHTO   H51 2453   7.818   6.020   1.507  2.2576 -0.3819  0.3684
    6CHTO   C34 2454   7.768   5.883   1.667 -0.4054 -0.0368 -0.2739
    6CHTO   O23 2455   7.717   5.876   1.801  0.6929  0.2477  0.6381
    6CHTO   H38 2456   7.698   5.787   1.822  4.3009 -1.1777 -1.6037
    6CHTO   O16 2457   7.559   6.286   1.663  0.1557  0.0470 -0.2742
    6CHTO   C24 2458   7.430   6.282   1.555  0.5175  0.2381  0.2535
    6CHTO   H52 2459   7.446   6.211   1.474  2.5091  1.3879 -0.3988
    6CHTO   C26 2460   7.420   6.418   1.488  0.1992 -0.6561 -0.1780
    6CHTO   H54 2461   7.399   6.496   1.564  2.1567  1.3412 -1.6293
    6CHTO   O20 2462   7.547   6.438   1.422 -0.0269  0.0393  0.5462
    6CHTO   H36 2463   7.541   6.521   1.380 -0.3943  0.5248  1.5469
    6CHTO   C30 2464   7.306   6.410   1.380 -0.0269 -0.1466  0.0824
    6CHTO   H58 2465   7.326   6.328   1.310  1.9957 -0.8684  1.4535
    6CHTO    N6 2466   7.296   6.545   1.310 -0.0058 -0.0243 -0.0507
    6CHTO   H45 2467   7.232   6.535   1.224  2.1044  0.9544 -1.7690
    6CHTO   H46 2468   7.397   6.570   1.282 -0.0784  1.9236  1.3097
    6CHTO   C33 2469   7.176   6.372   1.454  0.0389  0.4827 -0.1757
    6CHTO   H61 2470   7.163   6.439   1.541 -2.5471 -1.9273  1.3840
    6CHTO   O18 2471   7.196   6.236   1.508  0.6658 -0.4105 -0.2590
    6CHTO   C28 2472   7.294   6.244   1.620  1.2906  0.8042  0.4567
    6CHTO   H56 2473   7.264   6.316   1.696  0.0041 -1.5147  2.2120
    6CHTO   C35 2474   7.308   6.104   1.688  0.0075  0.3144  0.1288
    6CHTO   O24 2475   7.181   6.071   1.737  0.0268 -0.3006  0.1306
    6CHTO   H39 2476   7.143   6.000   1.689 -0.8709  0.7455 -0.7477
    6CHTO    O9 2477   7.057   6.377   1.374  0.7953  0.3398 -0.8048
    6CHTO   C13 2478   6.917   6.416   1.450 -0.2814  0.4228 -0.2093
    6CHTO   H26 2479   6.941   6.505   1.511 -0.1337  0.2814 -0.0619
    6CHTO   C11 2480   6.876   6.291   1.544  0.1237  0.1809  0.7469
    6CHTO   H24 2481   6.960   6.274   1.614  0.0666  0.2992  0.8448
    6CHTO    O8 2482   6.880   6.170   1.463 -0.0838  0.5281 -0.4633
    6CHTO    H3 2483   6.966   6.159   1.429  0.3964  1.0244  0.5885
    6CHTO    C9 2484   6.742   6.327   1.620 -0.0950  0.2371  0.4245
    6CHTO   H22 2485   6.768   6.414   1.683 -2.8534 -0.0988  2.1265
    6CHTO    N2 2486   6.699   6.230   1.730  0.0593  0.4326  0.0310
    6CHTO   H10 2487   6.694   6.275   1.828  0.7243  1.0083 -0.1935
    6CHTO   H11 2488   6.609   6.179   1.701 -0.0957  1.2781 -1.0111
    6CHTO    C7 2489   6.627   6.367   1.515 -0.0762  0.4468 -0.4888
    6CHTO   H20 2490   6.548   6.404   1.583  0.0169  4.0366 -2.2601
    6CHTO    O4 2491   6.671   6.478   1.429  0.3384  0.0640 -0.9703
    6CHTO   C14 2492   6.797   6.462   1.357 -0.0183  0.1700 -0.4198
    6CHTO   H27 2493   6.823   6.563   1.319  1.4162 -0.2597 -0.5980
    6CHTO   C18 2494   6.791   6.367   1.230  0.9561  0.2817 -0.4305
    6CHTO   O13 2495   6.907   6.362   1.151 -0.0310 -0.9302  0.6453
    6CHTO    H7 2496   6.915   6.284   1.099 -1.1784 -0.5412 -0.1452
    6CHTO    O2 2497   6.592   6.237   1.425 -0.4133  0.4729  0.0152
    6CHTO    C1 2498   6.457   6.229   1.374  0.1648  0.2315  0.1199
    6CHTO   H14 2499   6.459   6.147   1.299 -0.0656 -1.0074  1.4438
    6CHTO    C2 2500   6.385   6.352   1.306 -0.0503  0.1976  0.0908
    6CHTO   H15 2501   6.391   6.443   1.368  0.6588 -0.2296  0.6618
    6CHTO    O6 2502   6.459   6.385   1.188  0.1390 -0.7766  0.1979
    6CHTO    H1 2503   6.510   6.463   1.196 -2.2416  0.8912 -0.0624
    6CHTO    C3 2504   6.236   6.317   1.265 -0.2684 -0.3172 -0.7643
    6CHTO   H16 2505   6.239   6.232   1.196  1.1119 -2.9987  2.4578
    6CHTO    N1 2506   6.155   6.432   1.212 -0.0604  0.3246  0.0315
    6CHTO    H8 2507   6.061   6.441   1.265 -0.3634 -0.2950 -0.4015
    6CHTO    H9 2508   6.126   6.417   1.109  0.1116  1.1549 -0.1405
    6CHTO    C4 2509   6.167   6.256   1.393  0.4766 -0.5298  0.4302
    6CHTO   H17 2510   6.154   6.333   1.470  0.6430 -0.3907  0.3200
    6CHTO    O1 2511   6.238   6.144   1.447 -0.2151 -0.4878  0.4879
    6CHTO    C5 2512   6.368   6.173   1.490 -0.0258 -0.0914 -0.0516
    6CHTO   H18 2513   6.374   6.243   1.574 -3.1420 -0.6444  0.6944
    6CHTO   C16 2514   6.409   6.035   1.545  0.1717 -0.4074 -0.2237
    6CHTO   O11 2515   6.549   6.011   1.536 -0.0271  0.9019  0.4670
    6CHTO    H5 2516   6.570   5.990   1.447  1.0212 -0.8499  1.1136
    6CHTO    O3 2517   6.036   6.202   1.358  0.7562 -0.6290 -0.2169
    6CHTO    C6 2518   5.937   6.206   1.475  0.2395 -0.3000 -0.3051
    6CHTO   H19 2519   5.986   6.204   1.573 -0.3524  0.3117  0.0074
    6CHTO    C8 2520   5.832   6.326   1.479  0.3562  0.0544 -0.2979
    6CHTO   H21 2521   5.783   6.332   1.381  0.8586 -0.4143 -0.5831
    6CHTO    O7 2522   5.908   6.450   1.492 -0.0087  0.0244 -0.2468
    6CHTO    H2 2523   5.846   6.520   1.480 -0.7247 -0.7580 -1.2914
    6CHTO   C12 2524   5.721   6.307   1.584  0.1260  0.3343 -0.2099
    6CHTO   H25 2525   5.777   6.306   1.681 -0.0399 -1.4015 -0.1132
    6CHTO    N3 2526   5.614   6.410   1.591 -0.4136  0.1411  0.3758
    6CHTO   H12 2527   5.642   6.496   1.650  0.0447  1.3442 -1.5750
    6CHTO   H13 2528   5.582   6.446   1.494  0.9322 -1.5787 -0.7281
    6CHTO   C15 2529   5.657   6.169   1.564 -0.1466 -0.1661 -0.1164
    6CHTO   H28 2530   5.591   6.170   1.477 -0.2359 -0.2258 -0.0487
    6CHTO   O10 2531   5.569   6.121   1.689  0.3231  0.2771 -0.0138
    6CHTO    H4 2532   5.518   6.050   1.656  2.7946 -1.0697 -1.0439
    6CHTO    O5 2533   5.749   6.064   1.558 -0.2453 -0.3796  0.0040
    6CHTO   C10 2534   5.858   6.074   1.466  0.3339  0.4929  0.0646
    6CHTO   H23 2535   5.810   6.066   1.369  0.9123 -2.3623 -0.0267
    6CHTO   C17 2536   5.955   5.958   1.496 -0.7700 -0.0470  0.0112
    6CHTO   O12 2537   5.997   5.947   1.632 -0.3939 -0.2487  0.0646
    6CHTO    H6 2538   5.965   5.870   1.675  1.9103 -1.3699 -0.1406
    7CHTO  H203 2539   5.171   2.492   2.000 -2.6878  1.1596 -0.4720
    7CHTO   O82 2540   5.194   2.507   1.911  0.1664 -0.4918 -0.0629
    7CHTO  C123 2541   5.335   2.532   1.889  0.6659 -0.2003  0.1662
    7CHTO  H227 2542   5.360   2.638   1.906  1.9635 -0.0661 -2.3373
    7CHTO   O77 2543   5.408   2.447   1.981  0.6481 -0.6819  0.0501
    7CHTO  C118 2544   5.552   2.471   1.982  1.0426  0.1210 -0.0144
    7CHTO  H222 2545   5.579   2.576   2.005  0.2728  0.1048  1.0008
    7CHTO  C125 2546   5.595   2.378   2.107 -0.2549 -0.0657 -0.2262
    7CHTO   O84 2547   5.727   2.406   2.145 -0.0852 -0.4710 -0.1578
    7CHTO  H205 2548   5.784   2.375   2.077 -0.6257 -1.9385  0.0361
    7CHTO  C114 2549   5.611   2.441   1.845 -0.0549  0.2557  0.4496
    7CHTO  H218 2550   5.597   2.336   1.819  1.4677  0.4419 -1.2002
    7CHTO  C116 2551   5.539   2.526   1.736 -0.5387  0.2539  0.3456
    7CHTO  H220 2552   5.558   2.633   1.759  3.0457 -0.0981 -0.7223
    7CHTO   O79 2553   5.602   2.488   1.610 -0.2027  0.2018 -0.4780
    7CHTO  H201 2554   5.559   2.520   1.533  0.1376  1.9838  0.0513
    7CHTO  C120 2555   5.380   2.506   1.736 -0.0618 -0.9672  0.5982
    7CHTO  H224 2556   5.372   2.400   1.703  0.7283 -1.7337  2.7235
    7CHTO   N21 2557   5.318   2.599   1.641 -0.1247  0.0603 -0.1895
    7CHTO  H211 2558   5.305   2.696   1.687  0.5865  0.6380 -1.2014
    7CHTO  H212 2559   5.224   2.554   1.610 -0.3893  1.4934 -1.5087
    7CHTO   O75 2560   5.750   2.477   1.867 -0.8801  0.2330 -0.1821
    7CHTO  C112 2561   5.866   2.339   1.830  0.0441 -0.3639  0.7181
    7CHTO  H216 2562   5.814   2.268   1.764 -1.9780  0.9517  0.8687
    7CHTO   O73 2563   5.900   2.277   1.958  0.3731 -0.6680  0.3081
    7CHTO  C113 2564   6.002   2.177   1.946  0.3631  0.8782  0.0701
    7CHTO  H217 2565   5.956   2.097   1.884  1.8210  0.8410 -1.0003
    7CHTO  C124 2566   6.021   2.125   2.084 -0.3235  0.2795 -0.0345
    7CHTO   O83 2567   6.086   1.999   2.076 -0.0523  0.1895  0.5132
    7CHTO  H204 2568   6.175   2.014   2.050  0.2853 -0.7246  1.1257
    7CHTO  C109 2569   6.131   2.238   1.890  0.2961 -0.6463  1.0877
    7CHTO  H213 2570   6.147   2.329   1.951 -1.0179 -0.6803  1.4982
    7CHTO  C110 2571   6.103   2.300   1.748  0.2142  0.2598  0.1903
    7CHTO  H214 2572   6.074   2.220   1.679  1.7908  0.8261 -1.1669
    7CHTO   O78 2573   6.226   2.352   1.693  0.4303  0.0400 -0.5505
    7CHTO  H200 2574   6.298   2.293   1.698 -0.3213 -0.7436  1.7394
    7CHTO  C111 2575   5.987   2.406   1.766  0.2203 -0.9554 -0.4667
    7CHTO  H215 2576   6.019   2.488   1.831 -2.5267 -0.6135  0.5165
    7CHTO   N19 2577   5.953   2.473   1.637 -0.2445  0.6380  0.4615
    7CHTO  H207 2578   5.904   2.400   1.575  1.6228  0.2016 -0.5497
    7CHTO  H208 2579   6.046   2.513   1.599 -0.6565  0.9062 -0.2575
    7CHTO   O74 2580   6.250   2.154   1.905  0.3439  0.2250 -0.6348
    7CHTO  C115 2581   6.387   2.229   1.957 -1.0467  0.1047 -0.0157
    7CHTO  H219 2582   6.388   2.335   1.935  0.8937  0.9196  3.6094
    7CHTO   O76 2583   6.412   2.223   2.117 -0.6431  0.0494 -0.6296
    7CHTO  C122 2584   6.410   2.090   2.168 -0.3468 -0.0414 -0.4647
    7CHTO  H226 2585   6.324   2.029   2.141  0.6900 -1.1198 -1.3971
    7CHTO  C126 2586   6.416   2.084   2.319 -0.3500 -0.1675 -0.2598
    7CHTO   O85 2587   6.399   1.952   2.376  0.7494  0.1637  0.0547
    7CHTO  H206 2588   6.330   1.903   2.336  0.5417 -2.4927  3.4455
    7CHTO  C121 2589   6.541   2.024   2.107 -0.2568  0.3060  0.3499
    7CHTO  H225 2590   6.617   2.100   2.134  0.2487 -0.1231  0.1501
    7CHTO   O81 2591   6.576   1.896   2.160 -0.3666  0.2857  0.1706
    7CHTO  H202 2592   6.651   1.864   2.113  0.1309  1.0365  0.4456
    7CHTO  C119 2593   6.532   2.019   1.951  0.2031 -1.0708  0.7218
    7CHTO  H223 2594   6.623   1.973   1.913  0.6158  0.6129 -0.3829
    7CHTO  C117 2595   6.512   2.166   1.884  0.7853 -0.0343  0.3421
    7CHTO  H221 2596   6.486   2.164   1.778 -3.0808  1.1269  1.1881
    7CHTO   N20 2597   6.628   2.248   1.894  0.4816  0.3437 -1.0250
    7CHTO  H209 2598   6.613   2.346   1.852  1.8222  1.8048  1.7867
    7CHTO  H210 2599   6.670   2.260   1.993 -0.6398  0.1360 -0.5239
    7CHTO   O80 2600   6.417   1.909   1.903 -0.0135 -0.4002 -0.2977
    7CHTO  C103 2601   6.438   1.842   1.770  0.1332 -0.4379  0.0835
    7CHTO  H190 2602   6.438   1.910   1.684 -0.3072 -0.7781 -0.1872
    7CHTO  C101 2603   6.565   1.744   1.753  0.7034  0.9973 -0.2115
    7CHTO  H188 2604   6.586   1.696   1.848  0.5051  3.0108  0.8639
    7CHTO   O68 2605   6.682   1.818   1.722 -0.1998 -0.6478  0.4674
    7CHTO  H168 2606   6.674   1.863   1.640  1.0649 -1.5135 -0.1574
    7CHTO   C99 2607   6.542   1.625   1.639  0.1223  0.0272 -0.1671
    7CHTO  H186 2608   6.534   1.672   1.539 -1.2124  0.0266 -0.0671
    7CHTO   N17 2609   6.648   1.524   1.625  0.1032  0.2138  0.2815
    7CHTO  H174 2610   6.635   1.468   1.533 -0.5417 -0.0856  0.5571
    7CHTO  H175 2611   6.640   1.452   1.705 -1.4526 -1.6150 -1.4832
    7CHTO   C97 2612   6.402   1.573   1.660  0.5147  0.5541 -0.6318
    7CHTO  H184 2613   6.401   1.524   1.759  2.3449  0.6168 -0.5791
    7CHTO   O64 2614   6.309   1.678   1.647  0.2602 -0.4600 -0.2130
    7CHTO  C104 2615   6.306   1.757   1.766 -0.0139  0.5917  0.5025
    7CHTO  H191 2616   6.303   1.689   1.851  1.9629 -1.2021 -0.7986
    7CHTO  C108 2617   6.176   1.840   1.776  0.4782 -0.5133 -0.4338
    7CHTO   O71 2618   6.061   1.765   1.802  0.5649  0.4085 -0.0917
    7CHTO  H171 2619   6.049   1.763   1.895  1.3228 -2.5642 -0.0101
    7CHTO   O62 2620   6.336   1.501   1.553 -0.4137 -0.1121 -0.1324
    7CHTO   C91 2621   6.345   1.359   1.537  0.1918  0.5608 -0.3591
    7CHTO  H178 2622   6.448   1.327   1.517 -0.0825 -0.9128  0.4429
    7CHTO   C92 2623   6.255   1.316   1.414 -0.1057 -0.2776 -0.1038
    7CHTO  H179 2624   6.286   1.384   1.333 -1.2585 -0.1194 -0.4080
    7CHTO   O66 2625   6.292   1.182   1.371  0.1456 -0.1104 -0.2084
    7CHTO  H166 2626   6.339   1.127   1.430 -1.1045  0.3037  1.2043
    7CHTO   C93 2627   6.094   1.325   1.439  0.1082 -0.4837 -0.4796
    7CHTO  H180 2628   6.061   1.235   1.385 -1.2729 -0.4956  0.3692
    7CHTO   N16 2629   6.030   1.439   1.381 -0.2091 -0.4883  0.0037
    7CHTO  H172 2630   6.048   1.432   1.275  0.6679  3.7710 -0.1902
    7CHTO  H173 2631   6.085   1.526   1.414 -0.8031  0.1029 -0.5538
    7CHTO   C94 2632   6.062   1.303   1.593 -0.3769  0.2660  0.1880
    7CHTO  H181 2633   6.067   1.395   1.652  1.5059 -0.2555  0.8580
    7CHTO   O61 2634   6.164   1.213   1.648 -0.1081 -0.3842 -0.1529
    7CHTO   C95 2635   6.292   1.271   1.665  1.1200 -1.1140  0.2368
    7CHTO  H182 2636   6.293   1.328   1.757 -1.0608 -0.0222 -0.3771
    7CHTO  C106 2637   6.397   1.154   1.688  0.1011  0.0407  0.0765
    7CHTO   O69 2638   6.527   1.200   1.725  0.6745 -0.3287  0.1012
    7CHTO  H169 2639   6.530   1.255   1.800 -0.1175  1.1948 -0.9606
    7CHTO   O63 2640   5.937   1.240   1.613 -0.2128  0.1659 -0.3600
    7CHTO   C96 2641   5.868   1.308   1.741  0.6833  0.2055 -0.7627
    7CHTO  H183 2642   5.871   1.414   1.716 -0.8585 -0.0705 -2.1650
    7CHTO   C98 2643   5.932   1.285   1.883  0.0965  0.1436 -0.3017
    7CHTO  H185 2644   6.036   1.320   1.893  0.0008  0.0612  1.0929
    7CHTO   O67 2645   5.861   1.376   1.966 -0.5479 -0.1791 -0.2896
    7CHTO  H167 2646   5.864   1.461   1.927  0.2716 -0.3408 -0.5884
    7CHTO  C102 2647   5.907   1.139   1.943 -0.6669  0.0451  0.3805
    7CHTO  H189 2648   5.918   1.149   2.052 -2.6941  0.5652  0.5656
    7CHTO   N18 2649   5.998   1.028   1.911  0.5504 -0.4029  0.1747
    7CHTO  H176 2650   5.994   0.939   1.973  3.3383 -1.4315 -1.0645
    7CHTO  H177 2651   6.101   1.058   1.912 -0.0666  1.9170  3.4523
    7CHTO  C105 2652   5.760   1.090   1.910  0.1539  0.1214 -0.4119
    7CHTO  H192 2653   5.761   1.024   1.824 -0.4079 -0.2278 -0.1557
    7CHTO   O65 2654   5.673   1.192   1.873 -0.0648 -0.0403  0.5936
    7CHTO  C100 2655   5.716   1.247   1.743  0.3910 -0.9660  0.1883
    7CHTO  H187 2656   5.729   1.161   1.676 -0.1365 -0.2187 -0.8824
    7CHTO  C107 2657   5.597   1.342   1.698 -0.2021 -0.8513 -0.1760
    7CHTO   O70 2658   5.642   1.400   1.577 -0.2048  0.3055  0.1871
    7CHTO  H170 2659   5.615   1.488   1.559  0.8471  0.1705 -2.3307
    7CHTO   O57 2660   5.705   1.013   2.035  0.3137  0.3651 -0.7565
    7CHTO   C85 2661   5.678   0.874   2.020  0.3557  0.5073  0.0548
    7CHTO  H157 2662   5.731   0.839   1.929 -0.4849 -2.1729  0.5622
    7CHTO   C83 2663   5.516   0.853   2.008 -0.4879  0.4325 -0.5722
    7CHTO  H155 2664   5.483   0.901   1.916  3.8068 -0.2072 -2.5665
    7CHTO   O56 2665   5.446   0.912   2.121 -0.3119 -0.0936 -0.0534
    7CHTO  H135 2666   5.443   1.006   2.127  0.5186 -0.1303  1.1972
    7CHTO   C81 2667   5.491   0.693   1.997  0.2208 -0.6075 -0.3722
    7CHTO  H153 2668   5.534   0.653   1.905  0.4692  0.9064 -0.9208
    7CHTO   N14 2669   5.349   0.665   1.984 -0.0561 -0.2018 -0.0184
    7CHTO  H141 2670   5.320   0.720   1.897  0.3314  2.0243  1.2314
    7CHTO  H142 2671   5.290   0.703   2.065  0.2851 -2.8422  1.5207
    7CHTO   C79 2672   5.548   0.608   2.116 -1.1433 -0.5711  0.3768
    7CHTO  H151 2673   5.551   0.505   2.082  0.0157  0.4963 -2.8902
    7CHTO   O52 2674   5.686   0.645   2.149  0.1388 -0.2099 -0.1429
    7CHTO   C86 2675   5.716   0.788   2.151  0.2177  0.6174 -0.5064
    7CHTO  H158 2676   5.654   0.826   2.235 -3.7799  0.0287 -3.0607
    7CHTO   C90 2677   5.867   0.799   2.196  0.2098  0.4309  0.2485
    7CHTO   O60 2678   5.887   0.752   2.332  0.1576  0.1356 -0.2736
    7CHTO  H138 2679   5.962   0.695   2.334  2.3539  2.8958 -0.9290
    7CHTO   O50 2680   5.476   0.603   2.239 -0.1373 -0.2222  0.1284
    7CHTO   C73 2681   5.442   0.494   2.329 -0.0982 -0.2286  0.0144
    7CHTO  H145 2682   5.529   0.428   2.329 -0.5710 -0.8703 -0.9795
    7CHTO   C74 2683   5.322   0.415   2.271 -0.2758  0.0970 -0.0174
    7CHTO  H146 2684   5.343   0.390   2.166  0.1061 -1.6062  0.4599
    7CHTO   O54 2685   5.324   0.286   2.331  0.1784 -0.4875  0.1792
    7CHTO  H133 2686   5.243   0.238   2.328 -0.0712 -0.0995  0.6652
    7CHTO   C75 2687   5.191   0.495   2.287  0.7105 -0.0036 -0.2257
    7CHTO  H147 2688   5.206   0.593   2.239 -1.4369 -0.5092 -1.9812
    7CHTO   N13 2689   5.073   0.428   2.234 -0.6241 -0.3339 -0.3497
    7CHTO  H139 2690   5.104   0.335   2.189  0.2212 -0.0488 -0.3716
    7CHTO  H140 2691   5.009   0.401   2.317  2.2603  0.3862  2.1771
    7CHTO   C76 2692   5.178   0.534   2.438 -0.7992 -0.1393 -0.8015
    7CHTO  H148 2693   5.164   0.443   2.497  1.8055  0.1900  0.3668
    7CHTO   O49 2694   5.292   0.608   2.495 -0.0847  0.2641  0.1156
    7CHTO   C77 2695   5.419   0.543   2.477  0.0633  0.2278  0.0905
    7CHTO  H149 2696   5.429   0.456   2.542 -1.1435 -0.2763 -0.3843
    7CHTO   C88 2697   5.533   0.634   2.520 -0.3929  0.2833 -0.7785
    7CHTO   O58 2698   5.670   0.584   2.486  0.0383 -0.6504 -0.2008
    7CHTO  H136 2699   5.711   0.669   2.490 -2.2671  0.4462  1.0607
    7CHTO   O51 2700   5.054   0.633   2.457  0.0078 -0.0619  0.0444
    7CHTO   C78 2701   5.003   0.645   2.611  0.3526  0.1180 -0.5914
    7CHTO  H150 2702   5.087   0.621   2.679  0.5122  0.1745 -0.7680
    7CHTO   C80 2703   4.888   0.547   2.633 -0.3459  0.2231 -0.4221
    7CHTO  H152 2704   4.802   0.578   2.571 -0.1766  1.8628  0.1423
    7CHTO   O55 2705   4.934   0.415   2.601 -0.2910 -0.4366 -0.3825
    7CHTO  H134 2706   4.869   0.356   2.633  1.3936 -2.6044 -0.8120
    7CHTO   C84 2707   4.844   0.558   2.787  0.5744  0.4408  0.4315
    7CHTO  H156 2708   4.933   0.539   2.846 -0.7121  0.0535  2.2847
    7CHTO   N15 2709   4.736   0.458   2.819 -0.0444  0.4276  0.1432
    7CHTO  H143 2710   4.775   0.362   2.794 -0.1124  0.5261 -0.3384
    7CHTO  H144 2711   4.718   0.460   2.925 -0.9259 -1.6293  0.0504
    7CHTO   C87 2712   4.797   0.702   2.826 -0.0842  0.0911 -0.4346
    7CHTO  H159 2713   4.706   0.719   2.769  0.3184  2.3357 -0.4817
    7CHTO   O53 2714   4.916   0.815   2.771 -0.6902  0.3864  0.3063
    7CHTO   C82 2715   4.955   0.790   2.633 -0.0041 -0.1105  0.6761
    7CHTO  H154 2716   4.865   0.804   2.573  0.3776 -0.2228  0.0800
    7CHTO   C89 2717   5.067   0.877   2.580  0.5016 -0.0183  0.4316
    7CHTO   O59 2718   5.028   1.012   2.568  0.0697 -0.5240 -0.1266
    7CHTO  H137 2719   4.982   1.020   2.487  0.3751 -0.2984 -0.2811
    7CHTO   O45 2720   4.770   0.713   2.968 -0.2223  0.6420 -0.1498
    7CHTO   C67 2721   4.840   0.804   3.054 -0.4062 -1.0155 -0.5088
    7CHTO  H124 2722   4.934   0.833   3.007 -1.2863  0.6254 -1.2945
    7CHTO   C65 2723   4.760   0.941   3.090  0.1902  0.4237  0.0748
    7CHTO  H122 2724   4.655   0.912   3.088  0.2516  0.2022 -2.8647
    7CHTO   O44 2725   4.779   1.029   2.978  0.6058  0.1281  0.5466
    7CHTO  H102 2726   4.745   1.001   2.895  0.0910 -0.2463  0.8809
    7CHTO   C63 2727   4.798   1.005   3.230  0.7844  0.2327 -0.2285
    7CHTO  H120 2728   4.751   0.948   3.310  1.7872  0.3872  0.4791
    7CHTO   N11 2729   4.747   1.148   3.255 -0.3403 -0.0465 -0.1309
    7CHTO  H108 2730   4.690   1.150   3.346 -0.0713  1.7173  0.0191
    7CHTO  H109 2731   4.829   1.212   3.279 -0.4093 -0.4508  1.2204
    7CHTO   C61 2732   4.949   0.985   3.256  0.4295 -0.1952 -0.8058
    7CHTO  H118 2733   4.965   1.013   3.361  0.8949 -0.1833 -0.8787
    7CHTO   O40 2734   4.986   0.845   3.245 -0.1226  0.2355  0.3466
    7CHTO   C68 2735   4.895   0.742   3.185  0.2315  0.5091 -0.0964
    7CHTO  H125 2736   4.816   0.715   3.258  1.4048 -0.2675  0.9067
    7CHTO   C72 2737   4.984   0.622   3.178 -0.3361  0.6001  0.7229
    7CHTO   O48 2738   5.072   0.620   3.059 -0.4784 -0.4527 -0.3245
    7CHTO  H105 2739   5.118   0.539   3.058 -0.8230 -0.6501 -0.0245
    7CHTO   O38 2740   5.031   1.055   3.165  0.0528 -0.4729 -0.1623
    7CHTO   C55 2741   5.171   1.084   3.200 -0.1813  0.3264 -0.0390
    7CHTO  H112 2742   5.204   1.019   3.282  0.9142 -0.3281 -0.9734
    7CHTO   C56 2743   5.186   1.232   3.231  0.2917 -0.2154 -0.1860
    7CHTO  H113 2744   5.146   1.289   3.146 -4.2219 -2.8832 -0.0216
    7CHTO   O42 2745   5.091   1.260   3.332  0.3646  0.2257  0.1107
    7CHTO  H100 2746   5.001   1.253   3.308  0.5967  1.1006 -1.0701
    7CHTO   C57 2747   5.328   1.281   3.259  0.3744  0.5000 -1.0942
    7CHTO  H114 2748   5.365   1.258   3.359  0.8664 -1.6271 -1.7431
    7CHTO   N10 2749   5.336   1.429   3.263  0.3914  0.7720  0.0340
    7CHTO  H106 2750   5.440   1.446   3.240  1.9442 -4.7186  2.0804
    7CHTO  H107 2751   5.273   1.462   3.181 -1.3911 -1.5123  0.4380
    7CHTO   C58 2752   5.431   1.228   3.157  0.3406 -0.0492  0.4349
    7CHTO  H115 2753   5.420   1.280   3.059 -0.6830 -0.8911  0.0946
    7CHTO   O37 2754   5.407   1.092   3.125 -0.0396  0.1565 -0.1145
    7CHTO   C59 2755   5.273   1.058   3.086 -0.2386  0.3731  0.4217
    7CHTO  H116 2756   5.241   1.122   3.004  3.1359 -0.5689 -1.6899
    7CHTO   C70 2757   5.251   0.912   3.041  0.4934 -0.0675 -0.1068
    7CHTO   O46 2758   5.349   0.883   2.942  0.6949 -0.0073 -0.3460
    7CHTO  H103 2759   5.361   0.790   2.938 -0.8017 -0.1517 -2.8417
    7CHTO   O39 2760   5.597   1.234   3.198 -0.2170  0.4033 -0.8001
    7CHTO   C60 2761   5.687   1.161   3.115  0.2557 -0.4436 -0.6019
    7CHTO  H117 2762   5.678   1.053   3.128  0.9880 -0.2569  1.5347
    7CHTO   C62 2763   5.661   1.180   2.961  0.5051 -0.3135 -0.7247
    7CHTO  H119 2764   5.561   1.144   2.929 -0.0571  2.9423 -2.9222
    7CHTO   O43 2765   5.657   1.321   2.936 -0.1079 -0.0456  0.8243
    7CHTO  H101 2766   5.634   1.344   2.848 -0.5639  0.8938  1.1846
    7CHTO   C66 2767   5.768   1.106   2.872 -0.0297  0.0711 -0.6161
    7CHTO  H123 2768   5.747   1.000   2.889 -1.7766  0.7116  1.5045
    7CHTO   N12 2769   5.753   1.120   2.728  0.4374  0.2513 -0.8357
    7CHTO  H110 2770   5.673   1.055   2.697 -0.1296  0.3013  0.4952
    7CHTO  H111 2771   5.739   1.227   2.721  0.3921  0.4724  1.8661
    7CHTO   C69 2772   5.913   1.135   2.929  0.8194  0.5550 -0.0856
    7CHTO  H126 2773   5.947   1.237   2.901  1.8853  0.0246 -0.7616
    7CHTO   O41 2774   5.928   1.108   3.074 -0.0713 -0.5374 -0.3001
    7CHTO   C64 2775   5.838   1.194   3.153  0.3093  0.5549  0.5346
    7CHTO  H121 2776   5.861   1.299   3.122 -0.5800  0.2137 -1.3686
    7CHTO   C71 2777   5.856   1.169   3.298 -0.2191 -0.0096 -0.1244
    7CHTO   O47 2778   5.994   1.183   3.341  0.6954  0.3057 -0.0635
    7CHTO  H104 2779   6.035   1.100   3.326 -2.6864 -1.3756 -0.3917
    7CHTO   O34 2780   6.007   1.039   2.860  0.7090  0.1999  0.1723
    7CHTO   C49 2781   6.090   0.954   2.761 -0.0250  0.7101 -0.7113
    7CHTO   H91 2782   6.161   0.903   2.827 -1.7298 -1.0489 -0.1613
    7CHTO   C47 2783   6.163   1.046   2.667 -0.3685 -0.3007  0.5968
    7CHTO   H89 2784   6.252   1.080   2.724  1.4795  0.0663 -2.3961
    7CHTO   O33 2785   6.082   1.155   2.637  0.1052 -0.1045 -0.7603
    7CHTO   H70 2786   6.124   1.236   2.612 -0.4905  0.8518  1.2440
    7CHTO   C45 2787   6.202   0.976   2.530  0.1789  0.5918  0.3461
    7CHTO   H87 2788   6.127   0.992   2.451  0.0278 -0.0630  0.3553
    7CHTO    N8 2789   6.327   1.035   2.478 -0.6652  0.6483  0.0525
    7CHTO   H75 2790   6.308   1.141   2.466 -3.3375  0.2456  0.5034
    7CHTO   H76 2791   6.407   1.032   2.551 -1.6919  1.9835  1.2685
    7CHTO   C43 2792   6.188   0.814   2.536 -0.3780  0.0144 -0.2604
    7CHTO   H85 2793   6.204   0.776   2.435 -0.3444 -1.8985  0.4398
    7CHTO   O29 2794   6.055   0.778   2.587  0.5449  0.1864  0.5973
    7CHTO   C50 2795   5.999   0.852   2.690  0.3282  0.4553  0.5145
    7CHTO   H92 2796   5.912   0.910   2.655 -0.9199  0.2816  3.2386
    7CHTO   C54 2797   5.939   0.758   2.797  0.1507  0.1721  0.6556
    7CHTO   O36 2798   5.865   0.648   2.747  1.0111 -0.0646 -0.0075
    7CHTO   H72 2799   5.828   0.661   2.662 -1.8201  0.0136  1.1728
    7CHTO   O27 2800   6.289   0.749   2.613  0.1189 -0.5045  0.4543
    7CHTO   C37 2801   6.345   0.633   2.672 -0.3942 -0.2056 -0.5586
    7CHTO   H79 2802   6.349   0.644   2.781  0.8043 -0.2896 -0.5894
    7CHTO   C38 2803   6.257   0.513   2.652  0.9576 -0.4633  0.1982
    7CHTO   H80 2804   6.226   0.516   2.546  3.4306  4.3185 -0.5520
    7CHTO   O31 2805   6.136   0.526   2.730  0.1663 -0.0522 -0.9691
    7CHTO   H68 2806   6.082   0.453   2.710 -0.0473  0.1290 -1.0594
    7CHTO   C39 2807   6.326   0.374   2.696 -0.3038  0.5075  0.4969
    7CHTO   H81 2808   6.328   0.378   2.805 -1.0671  0.5850  0.5066
    7CHTO    N7 2809   6.252   0.249   2.656 -0.1067 -0.1486  0.2002
    7CHTO   H73 2810   6.304   0.164   2.697 -0.2054 -0.2792  0.0554
    7CHTO   H74 2811   6.145   0.253   2.673  0.1433  2.6731  1.2635
    7CHTO   C40 2812   6.472   0.374   2.644 -0.2921 -0.1938 -0.3486
    7CHTO   H82 2813   6.488   0.345   2.540 -0.2897  1.1807 -0.7365
    7CHTO   O26 2814   6.537   0.491   2.678 -0.2582 -0.1500  0.0411
    7CHTO   C41 2815   6.487   0.610   2.614 -0.1646  0.3204 -0.5419
    7CHTO   H83 2816   6.483   0.584   2.507  2.8657 -1.3922 -0.2903
    7CHTO   C52 2817   6.588   0.725   2.628  0.5005  0.7114  0.0905
    7CHTO   O35 2818   6.581   0.819   2.530 -0.1468 -1.0175  0.2856
    7CHTO   H71 2819   6.642   0.888   2.548  0.4784 -1.1109 -1.4376
    7CHTO   O28 2820   6.541   0.270   2.717  0.2758  0.1056 -0.3258
    7CHTO   C42 2821   6.685   0.228   2.683 -0.0541 -0.4063  0.4413
    7CHTO   H84 2822   6.701   0.177   2.779  0.7792  2.1697  1.7369
    7CHTO   C44 2823   6.798   0.343   2.674 -0.1403  0.1302  0.7261
    7CHTO   H86 2824   6.772   0.416   2.597  1.6970 -0.1879 -0.2289
    7CHTO   O32 2825   6.803   0.412   2.792  0.5793  0.2979  0.3056
    7CHTO   H69 2826   6.738   0.479   2.802  1.2527  0.7351  1.9257
    7CHTO   C48 2827   6.937   0.282   2.628  0.5695  0.2600  0.2350
    7CHTO   H90 2828   6.979   0.218   2.706 -1.1375  0.2304  1.1598
    7CHTO    N9 2829   7.038   0.390   2.616 -0.6934 -0.0544  0.2154
    7CHTO   H77 2830   7.100   0.374   2.529 -0.6599  1.0858  0.0241
    7CHTO   H78 2831   7.109   0.391   2.697  0.4358 -0.2693 -0.7605
    7CHTO   C51 2832   6.914   0.198   2.492 -0.0688  0.0723  0.0470
    7CHTO   H93 2833   6.872   0.267   2.419  1.6133  1.8337  0.6773
    7CHTO   O30 2834   6.823   0.088   2.522 -0.1052  0.2421 -0.0355
    7CHTO   C46 2835   6.685   0.121   2.570  0.1855 -0.5980  0.4496
    7CHTO   H88 2836   6.630   0.159   2.484 -0.0540  2.2340  1.7987
    7CHTO   C53 2837   6.613  -0.015   2.602 -0.1184  0.0038  0.1035
    7CHTO   O72 2838   6.614  -0.108   2.495 -0.0538 -0.0999 -0.1823
    7CHTO  H199 2839   6.528  -0.134   2.470  0.2354 -3.8794  2.2891
    7CHTO   O22 2840   7.035   0.121   2.455 -0.2812  0.0911 -0.0518
    7CHTO   C31 2841   7.043   0.061   2.319  0.6112 -0.3093  0.7452
    7CHTO   H59 2842   7.141   0.009   2.312  0.6224 -0.1377 -0.5862
    7CHTO   C29 2843   6.933  -0.044   2.291 -1.0388 -0.1198 -0.0419
    7CHTO   H57 2844   6.838   0.009   2.305 -0.7791  0.5443 -0.7340
    7CHTO   O21 2845   6.951  -0.151   2.391 -0.3271 -0.3035  0.2378
    7CHTO   H37 2846   7.025  -0.203   2.366 -0.7806 -1.0858  0.4912
    7CHTO   C27 2847   6.949  -0.096   2.144  0.4161 -0.3020 -0.1266
    7CHTO   H55 2848   7.044  -0.149   2.131  0.9686  1.0945 -2.1384
    7CHTO    N5 2849   6.845  -0.190   2.107 -0.4779 -0.2027  1.2646
    7CHTO   H43 2850   6.756  -0.167   2.163  0.0346  1.9800  1.2075
    7CHTO   H44 2851   6.864  -0.294   2.132 -0.5047 -0.2065  1.2675
    7CHTO   C25 2852   6.954   0.026   2.038 -0.1760  0.0111 -0.2389
    7CHTO   H53 2853   6.865   0.090   2.040  0.1128  0.4029  1.3544
    7CHTO   O17 2854   7.062   0.118   2.069 -0.3484 -0.2711  0.1911
    7CHTO   C32 2855   7.049   0.169   2.205  0.1977  0.3731 -0.3976
    7CHTO   H60 2856   6.958   0.228   2.213  0.2396  0.7455 -2.4622
    7CHTO   C36 2857   7.158   0.272   2.223 -0.1666 -0.1366  0.1885
    7CHTO   O25 2858   7.148   0.378   2.128 -0.1906 -0.1466 -0.0878
    7CHTO   H40 2859   7.141   0.453   2.184  0.8740  1.0727 -1.5315
    7CHTO   O15 2860   6.995  -0.036   1.903  0.2803 -0.4906  0.1618
    7CHTO   C19 2861   6.978   0.054   1.789  0.4305 -0.0519 -1.0311
    7CHTO   H47 2862   6.985  -0.006   1.697  0.3087 -1.2399 -0.2802
    7CHTO   C20 2863   6.837   0.120   1.769  0.3350 -0.0125 -0.0861
    7CHTO   H48 2864   6.795   0.155   1.864 -3.3188  1.7243 -2.2442
    7CHTO   O19 2865   6.741   0.026   1.713  0.1661  0.0302 -0.2920
    7CHTO   H35 2866   6.653   0.056   1.727 -0.5634 -1.4439 -1.5514
    7CHTO   C21 2867   6.822   0.260   1.688  0.5769 -0.0504 -0.3579
    7CHTO   H49 2868   6.812   0.237   1.582  2.3442  0.2914 -0.6070
    7CHTO    N4 2869   6.696   0.338   1.717  0.7844  0.4372 -0.2050
    7CHTO   H41 2870   6.609   0.275   1.706 -0.4874  2.3298 -1.2773
    7CHTO   H42 2871   6.681   0.421   1.648 -0.1742  1.5293  1.2823
    7CHTO   C22 2872   6.948   0.346   1.699 -0.1497  0.5834  0.1882
    7CHTO   H50 2873   6.950   0.389   1.799 -0.6836  1.7255 -0.2874
    7CHTO   O14 2874   7.064   0.260   1.677 -0.2348 -0.0621  0.0465
    7CHTO   C23 2875   7.087   0.161   1.782 -0.1480 -0.2665  0.2836
    7CHTO   H51 2876   7.093   0.220   1.875 -3.9653  0.6526  0.0384
    7CHTO   C34 2877   7.223   0.093   1.751  0.4435 -0.4579  0.0357
    7CHTO   O23 2878   7.321   0.196   1.762 -0.5302 -0.3782  0.0143
    7CHTO   H38 2879   7.408   0.160   1.770 -0.2032  0.5348  0.5728
    7CHTO   O16 2880   6.940   0.449   1.598  0.4413  0.2474 -0.2810
    7CHTO   C24 2881   6.965   0.599   1.646  0.3177 -0.3743  0.4134
    7CHTO   H52 2882   6.946   0.614   1.752 -0.3028  2.0260 -0.0178
    7CHTO   C26 2883   6.858   0.684   1.575 -0.2532  0.6773 -0.4095
    7CHTO   H54 2884   6.865   0.661   1.466  0.8447 -2.3607  0.2579
    7CHTO   O20 2885   6.721   0.634   1.603  0.0885  0.7368 -0.2899
    7CHTO   H36 2886   6.714   0.628   1.696  2.1081 -0.5468 -0.1750
    7CHTO   C30 2887   6.888   0.839   1.606 -0.6095 -0.9706 -0.8094
    7CHTO   H58 2888   6.877   0.856   1.714 -1.1452  2.2870 -1.3258
    7CHTO    N6 2889   6.792   0.929   1.536  0.1223  0.2875  0.2541
    7CHTO   H45 2890   6.802   0.921   1.428  1.7671  0.7316  0.3606
    7CHTO   H46 2891   6.691   0.911   1.571  0.3436 -3.3158 -0.7594
    7CHTO   C33 2892   7.039   0.874   1.576  1.2343  0.0969  0.1109
    7CHTO   H61 2893   7.059   0.852   1.471 -0.3192 -2.0790  0.2393
    7CHTO   O18 2894   7.125   0.789   1.654 -0.3659  0.3008  0.3763
    7CHTO   C28 2895   7.111   0.649   1.619  0.2676  0.5772  0.4355
    7CHTO   H56 2896   7.141   0.626   1.516  1.8792 -2.5713  1.5558
    7CHTO   C35 2897   7.228   0.567   1.678  0.3625 -0.4521 -0.5874
    7CHTO   O24 2898   7.360   0.624   1.674 -0.5360 -0.0513 -0.6461
    7CHTO   H39 2899   7.381   0.686   1.741  0.2675 -0.6079 -0.3719
    7CHTO    O9 2900   7.064   1.017   1.605 -0.6611  0.3112  0.0424
    7CHTO   C13 2901   7.223   1.072   1.541 -0.3527 -0.4535 -0.1412
    7CHTO   H26 2902   7.237   1.018   1.445 -0.0327  1.2037 -1.0553
    7CHTO   C11 2903   7.335   1.034   1.647 -0.2878  0.8937  0.0551
    7CHTO   H24 2904   7.338   0.925   1.660  1.1450  0.9283  0.0361
    7CHTO    O8 2905   7.308   1.093   1.777 -0.3756 -0.6425 -0.0214
    7CHTO    H3 2906   7.333   1.183   1.783  1.1376 -0.5203 -5.4516
    7CHTO    C9 2907   7.469   1.081   1.581  1.1441  0.3607  0.8680
    7CHTO   H22 2908   7.482   1.024   1.488  0.9717  2.5475 -0.5398
    7CHTO    N2 2909   7.590   1.039   1.660  0.4199  0.1992 -0.0756
    7CHTO   H10 2910   7.597   0.932   1.676 -1.1451  0.0196 -0.4708
    7CHTO   H11 2911   7.681   1.084   1.622  0.7657 -1.0946 -0.8404
    7CHTO    C7 2912   7.464   1.240   1.552  0.1535 -1.1228  0.3511
    7CHTO   H20 2913   7.555   1.247   1.488  0.1254 -1.8973  0.2256
    7CHTO    O4 2914   7.339   1.279   1.477  0.7186  0.3663 -0.2390
    7CHTO   C14 2915   7.211   1.222   1.517 -0.2565 -0.3753  0.1621
    7CHTO   H27 2916   7.140   1.236   1.432  0.5211 -1.3016 -0.6502
    7CHTO   C18 2917   7.148   1.301   1.637  0.4918 -0.1487 -0.3156
    7CHTO   O13 2918   7.089   1.421   1.587  0.2060  0.1300  0.0482
    7CHTO    H7 2919   6.999   1.433   1.612 -0.1689  0.4242 -1.4336
    7CHTO    O2 2920   7.478   1.343   1.703  0.0196  0.3638  0.4506
    7CHTO    C1 2921   7.542   1.472   1.699 -0.6688  0.1222  0.5233
    7CHTO   H14 2922   7.517   1.526   1.605  0.2797  0.1672  0.2825
    7CHTO    C2 2923   7.706   1.456   1.710  0.8212  0.3038  0.6892
    7CHTO   H15 2924   7.728   1.405   1.805  0.6280 -0.1292  0.5018
    7CHTO    O6 2925   7.742   1.383   1.593  0.2613 -0.3045 -0.9708
    7CHTO    H1 2926   7.826   1.340   1.593 -0.5261 -1.9009 -2.0502
    7CHTO    C3 2927   7.774   1.605   1.711 -0.0439 -0.8044  0.5287
    7CHTO   H16 2928   7.747   1.654   1.616  2.9926 -2.3483 -1.1994
    7CHTO    N1 2929   7.921   1.593   1.710  0.6426 -0.1147  0.2633
    7CHTO    H8 2930   7.945   1.546   1.615  0.2005 -1.1674  0.6590
    7CHTO    H9 2931   7.969   1.689   1.715 -0.0420  0.3136 -1.1554
    7CHTO    C4 2932   7.708   1.693   1.824 -0.0123 -0.2444 -0.0971
    7CHTO   H17 2933   7.726   1.642   1.919  2.2509  1.1754  0.2775
    7CHTO    O1 2934   7.569   1.693   1.806  0.0086 -0.6007 -0.0173
    7CHTO    C5 2935   7.495   1.568   1.820 -0.7695  0.8096  0.5818
    7CHTO   H18 2936   7.531   1.532   1.916 -0.3379 -1.0311 -0.2465
    7CHTO   C16 2937   7.338   1.587   1.823 -0.8885  0.0324 -0.8103
    7CHTO   O11 2938   7.295   1.648   1.701 -0.5384  0.3635  0.3937
    7CHTO    H5 2939   7.245   1.585   1.652 -1.0551  0.4323  0.8301
    7CHTO    O3 2940   7.749   1.829   1.835  0.1768  0.4839  0.2451
    7CHTO    C6 2941   7.825   1.886   1.946 -0.3512 -0.3917 -0.3911
    7CHTO   H19 2942   7.870   1.810   2.010 -0.2388  0.0348  0.0414
    7CHTO    C8 2943   7.941   1.971   1.900  0.8324  0.1068 -0.1489
    7CHTO   H21 2944   7.906   2.050   1.833  0.7419  0.2387  0.0537
    7CHTO    O7 2945   8.038   1.879   1.838 -0.5434  0.4554 -0.3359
    7CHTO    H2 2946   8.081   1.926   1.769  1.4312 -0.4398  0.2503
    7CHTO   C12 2947   8.012   2.051   2.017 -0.0791 -0.9625  0.1317
    7CHTO   H25 2948   8.056   1.969   2.077 -2.2891 -0.4505  2.5709
    7CHTO    N3 2949   8.119   2.140   1.956 -0.2590  0.0625 -0.0814
    7CHTO   H12 2950   8.105   2.246   1.975 -3.0205 -0.6710  2.4513
    7CHTO   H13 2951   8.220   2.113   1.983  0.4041  1.4046 -1.1349
    7CHTO   C15 2952   7.902   2.119   2.101 -0.5050 -0.6680 -0.1725
    7CHTO   H28 2953   7.865   2.212   2.058  1.9191  0.2144 -0.4767
    7CHTO   O10 2954   7.956   2.158   2.220  0.3642 -0.3469 -0.2428
    7CHTO    H4 2955   7.890   2.190   2.279  0.9056 -1.6566  1.1120
    7CHTO    O5 2956   7.802   2.028   2.149  0.7737 -0.6788  0.1377
    7CHTO   C10 2957   7.730   1.969   2.038 -0.3691  0.2806 -0.6392
    7CHTO   H23 2958   7.688   2.056   1.987 -0.1558 -0.1413 -1.5454
    7CHTO   C17 2959   7.612   1.875   2.090  0.0837  0.0488 -0.7714
    7CHTO   O12 2960   7.527   1.939   2.180  0.2627 -0.1445 -0.0676
    7CHTO    H6 2961   7.438   1.936   2.149 -1.0119 -2.1131  3.4291
    8CHTO  H203 2962   7.453   8.870   0.611 -0.9438 -0.5458  0.4006
    8CHTO   O82 2963   7.472   8.919   0.688 -0.4042  0.2814 -0.2464
    8CHTO  C123 2964   7.410   8.864   0.807  0.5537 -0.3362  0.6056
    8CHTO  H227 2965   7.473   8.885   0.895  0.7538  1.7927 -0.0168
    8CHTO   O77 2966   7.279   8.935   0.800 -0.1988 -0.4676  0.1229
    8CHTO  C118 2967   7.185   8.904   0.901  0.2659  0.4930 -0.7228
    8CHTO  H222 2968   7.211   8.934   1.004  0.5314 -0.3700 -0.5313
    8CHTO  C125 2969   7.056   8.988   0.871 -0.7739 -0.0629  0.1556
    8CHTO   O84 2970   7.007   8.960   0.739  0.4826  0.1398 -0.4668
    8CHTO  H205 2971   7.077   8.946   0.677  1.9345  0.5372  1.0648
    8CHTO  C114 2972   7.152   8.755   0.904 -0.4717  0.0795 -0.4213
    8CHTO  H218 2973   7.096   8.734   0.812  0.7539  0.7649 -1.3322
    8CHTO  C116 2974   7.289   8.675   0.913 -0.4865  0.0978  0.2767
    8CHTO  H220 2975   7.335   8.707   1.009  0.1536 -0.7380  0.2510
    8CHTO   O79 2976   7.270   8.532   0.933  0.2473  0.2434 -0.0934
    8CHTO  H201 2977   7.345   8.483   0.906  1.7707  1.2060  2.1848
    8CHTO  C120 2978   7.382   8.709   0.794 -0.6630  0.1958 -0.3264
    8CHTO  H224 2979   7.327   8.682   0.701 -1.2092 -1.1044  0.3600
    8CHTO   N21 2980   7.512   8.632   0.790  0.0627  0.0307 -0.1706
    8CHTO  H211 2981   7.585   8.694   0.839 -0.8860  0.2961  0.9297
    8CHTO  H212 2982   7.532   8.617   0.685 -1.8941  0.5386 -0.6400
    8CHTO   O75 2983   7.062   8.732   1.014  0.1080  0.2941 -0.2107
    8CHTO  C112 2984   6.941   8.640   0.991  0.3341 -0.1338  0.1203
    8CHTO  H216 2985   6.984   8.545   0.956  1.9757  0.7742 -0.3943
    8CHTO   O73 2986   6.861   8.707   0.887  0.3109  0.7821 -0.7000
    8CHTO  C113 2987   6.733   8.649   0.878  0.5258  0.5857  0.7334
    8CHTO  H217 2988   6.761   8.547   0.843  0.9134  1.0116 -0.2311
    8CHTO  C124 2989   6.672   8.719   0.756  0.2475  0.1659 -0.3249
    8CHTO   O83 2990   6.568   8.640   0.701  0.0425  0.3642 -0.2489
    8CHTO  H204 2991   6.544   8.665   0.614  0.5830  2.3823  0.1592
    8CHTO  C109 2992   6.661   8.671   1.012  0.2508 -0.1034  0.2180
    8CHTO  H213 2993   6.690   8.772   1.045  1.3391  0.0195 -1.0395
    8CHTO  C110 2994   6.728   8.578   1.119  0.7165  0.5549 -1.1510
    8CHTO  H214 2995   6.719   8.476   1.083 -2.2966  0.1725  0.5393
    8CHTO   O78 2996   6.659   8.584   1.244  0.9524 -0.2113 -0.4959
    8CHTO  H200 2997   6.692   8.513   1.296 -0.3098 -0.6368 -0.2511
    8CHTO  C111 2998   6.873   8.623   1.134  0.1617  0.2689 -0.2769
    8CHTO  H215 2999   6.874   8.725   1.174 -2.4455  0.2969 -0.1759
    8CHTO   N19 3000   6.953   8.537   1.225 -0.3544 -0.4854 -0.0212
    8CHTO  H207 3001   7.055   8.571   1.234 -0.5034  0.2106 -0.9033
    8CHTO  H208 3002   6.949   8.436   1.186 -0.9727 -0.1913 -0.7211
    8CHTO   O74 3003   6.511   8.664   1.012  0.6877 -0.4852  0.2484
    8CHTO  C115 3004   6.415   8.532   0.980 -0.5311 -0.1637 -0.0726
    8CHTO  H219 3005   6.461   8.465   0.908 -0.1444  2.3417 -2.2473
    8CHTO   O76 3006   6.395   8.443   1.104 -0.1470  0.2414 -0.3836
    8CHTO  C122 3007   6.325   8.520   1.205 -0.3394 -0.2319  0.4442
    8CHTO  H226 3008   6.380   8.611   1.227  0.1502 -0.0530 -1.4825
    8CHTO  C126 3009   6.337   8.430   1.334 -0.3352  0.5074  0.6412
    8CHTO   O85 3010   6.475   8.408   1.376 -0.1251 -0.1050 -0.2407
    8CHTO  H206 3011   6.489   8.471   1.444 -0.1283  0.6113 -0.8878
    8CHTO  C121 3012   6.180   8.537   1.154  0.5259  0.0652 -0.7896
    8CHTO  H225 3013   6.132   8.446   1.114  0.1166 -0.1096  0.0954
    8CHTO   O81 3014   6.085   8.574   1.256  0.1293  0.7587 -0.1039
    8CHTO  H202 3015   6.014   8.628   1.229 -0.4996  0.8308  1.6116
    8CHTO  C119 3016   6.197   8.645   1.044 -0.0459  0.2178 -0.5635
    8CHTO  H223 3017   6.094   8.663   1.012 -0.0602  1.7370  0.2886
    8CHTO  C117 3018   6.280   8.587   0.925 -0.1214 -0.1256  0.9527
    8CHTO  H221 3019   6.318   8.662   0.855  3.4238 -2.5031  0.2060
    8CHTO   N20 3020   6.205   8.491   0.840  0.2510 -0.1612  0.1493
    8CHTO  H209 3021   6.269   8.435   0.773  0.8873  1.4134 -0.5675
    8CHTO  H210 3022   6.163   8.415   0.904 -0.0944 -0.0976 -0.0048
    8CHTO   O80 3023   6.238   8.791   1.100 -1.1378 -0.4655 -0.2144
    8CHTO  C103 3024   6.150   8.910   1.083  0.1460 -0.0260 -0.1947
    8CHTO  H190 3025   6.052   8.869   1.058  0.0750 -1.2111  1.8775
    8CHTO  C101 3026   6.142   9.018   1.203 -0.1886 -0.5714 -0.3325
    8CHTO  H188 3027   6.241   9.049   1.236 -1.3681  1.4155  1.5367
    8CHTO   O68 3028   6.070   8.948   1.325  0.3859 -0.0726 -0.6132
    8CHTO  H168 3029   6.100   8.859   1.330 -0.1130 -0.2612 -0.9734
    8CHTO   C99 3030   6.059   9.146   1.154  0.2249 -0.0823 -0.3083
    8CHTO  H186 3031   5.959   9.111   1.121 -0.3279  1.7039 -0.5874
    8CHTO   N17 3032   6.028   9.254   1.254  0.2149 -0.1674  0.8709
    8CHTO  H174 3033   6.087   9.247   1.344  2.6019 -0.6142 -0.6889
    8CHTO  H175 3034   5.922   9.260   1.276  0.0143  1.5813 -0.4933
    8CHTO   C97 3035   6.127   9.202   1.025 -0.5474  0.6174  0.2029
    8CHTO  H184 3036   6.229   9.240   1.044 -0.1887  0.4053 -1.2279
    8CHTO   O64 3037   6.122   9.097   0.927  0.6869  0.2608  0.8802
    8CHTO  C104 3038   6.208   8.988   0.954 -0.3558  0.5828 -0.2778
    8CHTO  H191 3039   6.312   9.017   0.965 -0.0255 -1.2809  2.1225
    8CHTO  C108 3040   6.195   8.898   0.832  0.1234  0.3183  0.2130
    8CHTO   O71 3041   6.275   8.946   0.725  0.2972  0.1863 -0.2922
    8CHTO  H171 3042   6.223   8.997   0.666 -1.1590  3.0748  3.2620
    8CHTO   O62 3043   6.057   9.309   0.961 -0.3814  0.3886 -0.2564
    8CHTO   C91 3044   6.133   9.383   0.863  0.7304  0.2609  0.6041
    8CHTO  H178 3045   6.230   9.335   0.849 -0.0872 -0.9645 -0.8873
    8CHTO   C92 3046   6.160   9.523   0.922  0.2826  0.3051  0.8280
    8CHTO  H179 3047   6.071   9.556   0.977 -0.2360  1.2078 -0.5436
    8CHTO   O66 3048   6.253   9.502   1.026 -0.5140  0.0894 -0.2808
    8CHTO  H166 3049   6.215   9.478   1.108  3.5792 -2.4189  1.0545
    8CHTO   C93 3050   6.219   9.630   0.819 -0.1215  0.3613  0.2247
    8CHTO  H180 3051   6.322   9.602   0.791  0.1594  1.5142  0.0489
    8CHTO   N16 3052   6.211   9.766   0.883 -0.4399 -0.3877  0.8276
    8CHTO  H172 3053   6.309   9.808   0.868  0.2625 -2.9587 -2.1162
    8CHTO  H173 3054   6.136   9.824   0.831  0.4517 -1.1361 -1.3419
    8CHTO   C94 3055   6.132   9.623   0.694 -0.6229  0.4067  0.1507
    8CHTO  H181 3056   6.029   9.650   0.715 -1.1858 -1.6422  0.1874
    8CHTO   O61 3057   6.134   9.488   0.644  0.4313  0.2678  0.2409
    8CHTO   C95 3058   6.071   9.389   0.729 -0.2979 -0.0152 -0.0821
    8CHTO  H182 3059   5.973   9.429   0.759 -0.3310 -0.3488  0.2679
    8CHTO  C106 3060   6.053   9.256   0.641  0.1346  0.1134 -0.5551
    8CHTO   O69 3061   5.933   9.271   0.563 -0.7615  0.7739 -0.1406
    8CHTO  H169 3062   5.904   9.191   0.523 -0.6047  0.0809  1.1108
    8CHTO   O63 3063   6.197   9.716   0.581  0.8567  0.8254  0.7296
    8CHTO   C96 3064   6.102   9.733   0.450  0.5572 -0.1842 -0.0038
    8CHTO  H183 3065   6.019   9.663   0.458  0.9794 -0.5046  1.9131
    8CHTO   C98 3066   6.180   9.720   0.313 -0.3161 -0.6044  0.4118
    8CHTO  H185 3067   6.271   9.782   0.315 -1.7895  1.6666 -1.0579
    8CHTO   O67 3068   6.229   9.586   0.297  0.2926 -0.3404 -0.1818
    8CHTO  H167 3069   6.280   9.580   0.219  0.2718 -0.6318 -0.1735
    8CHTO  C102 3070   6.106   9.767   0.181  0.0186  0.1215 -0.3859
    8CHTO  H189 3071   6.031   9.689   0.160 -0.2399  0.7030 -1.7044
    8CHTO   N18 3072   6.195   9.774   0.063  0.1426  0.5683 -0.0344
    8CHTO  H176 3073   6.297   9.743   0.085  0.8460  1.4203 -2.0226
    8CHTO  H177 3074   6.205   9.871   0.018  0.2799  1.6546  2.2651
    8CHTO  C105 3075   6.028   9.904   0.211  0.3851 -0.0709  0.1848
    8CHTO  H192 3076   6.092   9.989   0.187 -0.7695  0.5060 -0.9230
    8CHTO   O65 3077   5.957   9.904   0.338 -0.1179  0.0383 -0.1682
    8CHTO  C100 3078   6.037   9.885   0.456  1.0245 -0.2947  0.5460
    8CHTO  H187 3079   6.115   9.963   0.460 -0.7844  1.5701  0.4821
    8CHTO  C107 3080   5.957   9.906   0.583  0.9576  0.3369  0.7269
    8CHTO   O70 3081   5.844   9.820   0.611  0.1637 -0.3285  0.8594
    8CHTO  H170 3082   5.804   9.837   0.694  0.9364 -0.6654  1.3033
    8CHTO   O57 3083   5.907   9.892   0.097 -0.1206 -0.0293  0.0082
    8CHTO   C85 3084   5.881  10.010   0.016 -0.2813  0.0688 -0.3072
    8CHTO  H157 3085   5.981  10.051  -0.010  0.0554 -0.4897  0.1035
    8CHTO   C83 3086   5.827  10.125   0.104  0.2725  0.8113 -0.6057
    8CHTO  H155 3087   5.914  10.160   0.159  0.4664 -1.2800  0.4967
    8CHTO   O56 3088   5.727  10.075   0.195  0.2818  0.1794 -0.6461
    8CHTO  H135 3089   5.690   9.999   0.156  0.2504 -0.4458  0.5643
    8CHTO   C81 3090   5.764  10.237   0.016 -0.4829 -0.2299  0.9323
    8CHTO  H153 3091   5.840  10.281  -0.048  1.3064  0.9831  3.7719
    8CHTO   N14 3092   5.715  10.354   0.098 -0.3015  0.6818  0.3945
    8CHTO  H141 3093   5.782  10.406   0.163  0.3432  0.0601  0.2272
    8CHTO  H142 3094   5.671  10.424   0.030 -1.5351 -1.2542 -0.8523
    8CHTO   C79 3095   5.648  10.176  -0.072 -0.2911  0.1383  1.1780
    8CHTO  H151 3096   5.607  10.262  -0.125  1.1746  0.1395 -0.0186
    8CHTO   O52 3097   5.712  10.093  -0.169  0.5285 -0.6200 -0.0740
    8CHTO   C86 3098   5.792   9.977  -0.114 -0.1137  0.0967  0.4427
    8CHTO  H158 3099   5.723   9.894  -0.089 -0.5342  0.0981 -0.6789
    8CHTO   C90 3100   5.896   9.921  -0.212  0.0088 -0.3471  0.6103
    8CHTO   O60 3101   5.826   9.851  -0.315  0.0814 -0.8111 -0.4419
    8CHTO  H138 3102   5.822   9.758  -0.308  0.9363 -0.9410 -1.4366
    8CHTO   O50 3103   5.545  10.105  -0.010 -0.3731 -0.0098 -0.1716
    8CHTO   C73 3104   5.413  10.052  -0.015  0.3216  0.1775 -0.3100
    8CHTO  H145 3105   5.398   9.992  -0.106 -2.7272  1.3401 -0.6145
    8CHTO   C74 3106   5.320  10.173  -0.012 -0.3931 -0.3568 -0.5878
    8CHTO  H146 3107   5.347  10.236  -0.097  0.9243 -0.4185 -0.2324
    8CHTO   O54 3108   5.184  10.128  -0.024 -0.4008  0.0165 -0.9057
    8CHTO  H133 3109   5.134  10.207  -0.032  0.1337  0.5705  0.9802
    8CHTO   C75 3110   5.340  10.245   0.125  0.7740  0.3403  0.0478
    8CHTO  H147 3111   5.440  10.289   0.134  0.6031  1.3164 -2.5283
    8CHTO   N13 3112   5.243  10.360   0.132 -0.5324 -0.1610 -0.0255
    8CHTO  H139 3113   5.245  10.404   0.034  1.1579  0.9118  0.4702
    8CHTO  H140 3114   5.149  10.316   0.161 -1.3056  0.4910 -1.5417
    8CHTO   C76 3115   5.320  10.140   0.244  0.4389  0.5524 -0.2211
    8CHTO  H148 3116   5.219  10.099   0.240  0.8772 -0.5881  0.3501
    8CHTO   O49 3117   5.418  10.036   0.229  0.3164 -0.2412 -0.4995
    8CHTO   C77 3118   5.399   9.961   0.113 -0.1120  0.3765  0.1802
    8CHTO  H149 3119   5.303   9.911   0.109 -0.1048  0.4641 -1.5517
    8CHTO   C88 3120   5.500   9.849   0.110 -0.4488 -0.4086  0.2723
    8CHTO   O58 3121   5.470   9.741  -0.015 -0.0707  0.2009  0.1559
    8CHTO  H136 3122   5.378   9.727  -0.025  0.2866 -1.3002 -1.2956
    8CHTO   O51 3123   5.352  10.207   0.396  0.1392  0.2129  0.1643
    8CHTO   C78 3124   5.351  10.090   0.508 -0.3347 -0.0400 -0.0055
    8CHTO  H150 3125   5.355   9.986   0.468  0.7196  0.3687 -1.0160
    8CHTO   C80 3126   5.223  10.112   0.592  0.2962  0.1428  0.4604
    8CHTO  H152 3127   5.230  10.212   0.638  0.3911  1.2125 -1.7995
    8CHTO   O55 3128   5.111  10.095   0.504 -0.1830  0.4945  1.0179
    8CHTO  H134 3129   5.027  10.103   0.545 -1.4205  1.2425 -1.6021
    8CHTO   C84 3130   5.225  10.006   0.718  0.0460 -0.2928  0.7075
    8CHTO  H156 3131   5.229   9.906   0.675  2.1956 -0.1517  0.5346
    8CHTO   N15 3132   5.101  10.006   0.805 -0.0379 -0.0087 -0.1691
    8CHTO  H143 3133   5.121  10.009   0.910 -1.0009 -1.9677  0.0998
    8CHTO  H144 3134   5.026  10.078   0.781  0.8646  0.8057 -0.5637
    8CHTO   C87 3135   5.347  10.021   0.809 -0.1418  0.0439  0.5645
    8CHTO  H159 3136   5.332  10.122   0.847 -0.5620  0.4406 -0.6255
    8CHTO   O53 3137   5.482  10.025   0.715  0.2064 -0.1864  0.1939
    8CHTO   C82 3138   5.471  10.121   0.601  0.5268 -0.3066  0.0445
    8CHTO  H154 3139   5.459  10.220   0.643 -0.5195 -0.0677 -0.7821
    8CHTO   C89 3140   5.609  10.118   0.528  0.1345  0.5003 -0.9874
    8CHTO   O59 3141   5.619  10.219   0.427  0.5467 -0.1912  0.4231
    8CHTO  H137 3142   5.554  10.190   0.367  0.8724  0.3074 -0.1771
    8CHTO   O45 3143   5.359   9.915   0.918 -0.2872  0.4710  0.6335
    8CHTO   C67 3144   5.399   9.781   0.901 -0.2135 -0.5628 -0.3583
    8CHTO  H124 3145   5.356   9.737   0.812  0.2062  2.1870 -1.9634
    8CHTO   C65 3146   5.561   9.769   0.889  0.6501  0.4280 -0.0513
    8CHTO  H122 3147   5.597   9.870   0.904 -2.5274  1.4338  1.1950
    8CHTO   O44 3148   5.584   9.708   0.758  0.0473  0.3321 -0.7152
    8CHTO  H102 3149   5.674   9.683   0.752  0.4406  1.4023  0.3276
    8CHTO   C63 3150   5.626   9.689   1.009  0.3002 -0.9487  1.0767
    8CHTO  H120 3151   5.608   9.741   1.103  0.4982  0.6475  0.2486
    8CHTO   N11 3152   5.779   9.679   1.011  0.0766  0.1453 -0.0023
    8CHTO  H108 3153   5.804   9.620   1.097 -0.3218 -1.0052 -0.6562
    8CHTO  H109 3154   5.815   9.778   0.995 -1.5213  1.5736  4.3759
    8CHTO   C61 3155   5.553   9.543   1.018 -0.3060 -0.3094 -0.1002
    8CHTO  H118 3156   5.591   9.501   1.112  5.2469 -2.9747 -3.2356
    8CHTO   O40 3157   5.407   9.563   1.026  0.3756 -0.3492  0.7588
    8CHTO   C68 3158   5.348   9.699   1.028 -0.0346  0.4768 -0.0913
    8CHTO  H125 3159   5.381   9.744   1.124  0.8635 -1.5437  0.5646
    8CHTO   C72 3160   5.194   9.681   1.026 -0.5504 -0.1289 -0.0707
    8CHTO   O48 3161   5.148   9.606   0.917 -0.2897  0.1847 -0.1245
    8CHTO  H105 3162   5.057   9.588   0.930 -0.1428 -0.3277  0.2110
    8CHTO   O38 3163   5.592   9.457   0.906 -0.2399 -0.2432 -0.3026
    8CHTO   C55 3164   5.553   9.315   0.908  0.2174  0.2521 -0.0315
    8CHTO  H112 3165   5.462   9.301   0.969 -0.7240  1.6069 -1.0890
    8CHTO   C56 3166   5.670   9.220   0.953 -0.4105 -0.1177 -0.4810
    8CHTO  H113 3167   5.754   9.253   0.890 -0.4961  0.1853 -0.4360
    8CHTO   O42 3168   5.717   9.241   1.086 -0.3030  0.4725  0.1653
    8CHTO  H100 3169   5.668   9.315   1.114 -1.4907 -0.2984  0.1589
    8CHTO   C57 3170   5.646   9.070   0.930  0.8467 -0.3020  0.2309
    8CHTO  H114 3171   5.589   9.033   1.015  0.4801 -0.7002 -0.1819
    8CHTO   N10 3172   5.766   8.974   0.935 -0.7678 -0.2704 -0.0763
    8CHTO  H106 3173   5.861   9.008   0.897 -0.5240 -3.6185 -2.6731
    8CHTO  H107 3174   5.776   8.946   1.039 -2.7476 -1.7797 -0.2449
    8CHTO   C58 3175   5.564   9.048   0.800 -0.2415 -0.2976 -0.0231
    8CHTO  H115 3176   5.633   9.023   0.716  0.0938  0.9471 -0.1381
    8CHTO   O37 3177   5.468   9.151   0.764  0.9588 -0.1114 -0.1999
    8CHTO   C59 3178   5.519   9.277   0.766 -0.6050 -0.6546 -0.2412
    8CHTO  H116 3179   5.610   9.286   0.707  0.2061  0.9072  1.2131
    8CHTO   C70 3180   5.407   9.363   0.705  0.3934  0.2069 -0.3051
    8CHTO   O46 3181   5.294   9.379   0.789  0.0868  0.1560 -0.2862
    8CHTO  H103 3182   5.235   9.310   0.767  1.2885 -1.9147  2.6881
    8CHTO   O39 3183   5.465   8.906   0.834  0.2281  0.2696 -0.9133
    8CHTO   C60 3184   5.332   8.914   0.889  0.0225  0.1163 -0.0209
    8CHTO  H117 3185   5.317   9.012   0.935 -2.9166  0.8630 -2.4039
    8CHTO   C62 3186   5.231   8.906   0.770  0.4641  0.7714  0.5882
    8CHTO  H119 3187   5.255   9.002   0.719 -2.9801  1.4506  0.1268
    8CHTO   O43 3188   5.253   8.792   0.685  0.3548 -0.5469 -0.4185
    8CHTO  H101 3189   5.339   8.800   0.646 -0.8561 -1.8628 -3.5549
    8CHTO   C66 3190   5.074   8.906   0.825 -0.2658 -0.2073 -0.3057
    8CHTO  H123 3191   5.059   8.996   0.886  0.6083 -0.3543  0.1279
    8CHTO   N12 3192   4.976   8.903   0.717 -0.2283 -0.5593 -0.1615
    8CHTO  H110 3193   4.877   8.908   0.761 -0.0528 -0.5006  0.2291
    8CHTO  H111 3194   4.988   8.807   0.669  0.0861  0.2097 -1.6740
    8CHTO   C69 3195   5.059   8.790   0.929  0.7036 -0.3135 -0.5032
    8CHTO  H126 3196   5.080   8.690   0.886  2.2800 -1.2125  2.1878
    8CHTO   O41 3197   5.166   8.813   1.038  0.0423 -0.7390 -0.0294
    8CHTO   C64 3198   5.310   8.810   1.000  0.9877  0.1999 -0.0943
    8CHTO  H121 3199   5.334   8.710   0.958  1.8894  0.3840 -0.0207
    8CHTO   C71 3200   5.399   8.838   1.122 -0.2235  0.7427  0.1125
    8CHTO   O47 3201   5.347   8.787   1.246 -0.1931  0.5269  0.4061
    8CHTO  H104 3202   5.394   8.708   1.267 -0.4707 -0.6465 -3.0990
    8CHTO   O34 3203   4.916   8.797   0.997 -0.1941 -0.7026 -0.1972
    8CHTO   C49 3204   4.846   8.848   1.108 -0.2448  0.0019  0.6232
    8CHTO   H91 3205   4.867   8.794   1.200 -1.7264  0.0517  1.0160
    8CHTO   C47 3206   4.696   8.851   1.079 -0.2287  0.4299  0.4600
    8CHTO   H89 3207   4.640   8.874   1.172 -0.3467 -2.0236  1.0163
    8CHTO   O33 3208   4.650   8.722   1.041 -0.5772  0.3045  0.4161
    8CHTO   H70 3209   4.564   8.702   1.071 -0.8614  2.4899  1.1565
    8CHTO   C45 3210   4.663   8.959   0.960 -0.1868  0.3966 -0.9280
    8CHTO   H87 3211   4.728   8.925   0.878  0.0842 -0.6500 -0.2729
    8CHTO    N8 3212   4.524   8.961   0.914 -0.1831 -0.0889 -0.3409
    8CHTO   H75 3213   4.446   8.930   0.983  1.0646 -0.1870  1.0587
    8CHTO   H76 3214   4.504   8.918   0.817  0.2458  0.3969 -0.6447
    8CHTO   C43 3215   4.725   9.102   0.989  0.0157 -0.0955 -0.3184
    8CHTO   H85 3216   4.722   9.153   0.893  3.1864  2.7089  0.9684
    8CHTO   O29 3217   4.860   9.092   1.037 -0.1807  0.0832 -0.3912
    8CHTO   C50 3218   4.888   8.990   1.136 -0.4929 -0.1399 -0.0595
    8CHTO   H92 3219   4.997   8.980   1.145 -0.4702  0.3541  0.2218
    8CHTO   C54 3220   4.856   9.031   1.277 -0.0017  0.0034 -0.1563
    8CHTO   O36 3221   4.964   9.105   1.337  0.1491  0.4353 -0.1139
    8CHTO   H72 3222   4.969   9.185   1.289 -1.0439  1.8061  1.9817
    8CHTO   O27 3223   4.659   9.182   1.089 -0.2280 -0.1326  0.3748
    8CHTO   C37 3224   4.620   9.307   1.149 -0.0489 -0.7177  0.0650
    8CHTO   H79 3225   4.587   9.287   1.252  0.3540  0.2325  0.3796
    8CHTO   C38 3226   4.750   9.391   1.146  0.2198 -0.0575 -0.3090
    8CHTO   H80 3227   4.796   9.388   1.046  2.6329  0.2112  0.7688
    8CHTO   O31 3228   4.841   9.331   1.243  0.1455  0.2480  0.1107
    8CHTO   H68 3229   4.927   9.368   1.245  0.4435 -0.5012  1.5521
    8CHTO   C39 3230   4.714   9.540   1.193 -0.2352  0.3704  1.0636
    8CHTO   H81 3231   4.682   9.534   1.297  1.5244  0.4176  1.6205
    8CHTO    N7 3232   4.836   9.628   1.199  0.3275  0.2224  0.3071
    8CHTO   H73 3233   4.815   9.729   1.231  0.2158  0.6028 -0.9152
    8CHTO   H74 3234   4.917   9.582   1.253  1.3813  1.5319 -0.1239
    8CHTO   C40 3235   4.598   9.595   1.103  0.9022  0.1986  0.2163
    8CHTO   H82 3236   4.640   9.584   1.003 -1.2903 -1.3974 -0.5897
    8CHTO   O26 3237   4.484   9.515   1.126 -0.0879  0.2098 -0.2715
    8CHTO   C41 3238   4.512   9.383   1.065  0.6449 -0.3633  0.9472
    8CHTO   H83 3239   4.552   9.385   0.963  1.9484 -0.0009  1.4589
    8CHTO   C52 3240   4.377   9.313   1.069  0.4244 -0.1303  0.2392
    8CHTO   O35 3241   4.285   9.372   0.997  0.7903  0.1419  0.0605
    8CHTO   H71 3242   4.207   9.319   0.994  1.3212 -0.5872 -1.1085
    8CHTO   O28 3243   4.560   9.735   1.129 -0.2444 -0.1255  0.3317
    8CHTO   C42 3244   4.483   9.814   1.026  0.4303 -0.2825  0.4294
    8CHTO   H84 3245   4.435   9.891   1.087 -1.0282  0.2173 -1.3028
    8CHTO   C44 3246   4.365   9.736   0.954 -0.1560  0.6235  0.0770
    8CHTO   H86 3247   4.406   9.644   0.912  0.6135 -0.6120  3.3801
    8CHTO   O32 3248   4.267   9.684   1.042  0.1218  0.1432 -0.1842
    8CHTO   H69 3249   4.231   9.756   1.090  0.6868  0.5772 -0.3994
    8CHTO   C48 3250   4.301   9.819   0.836 -0.2815 -0.0882  0.7506
    8CHTO   H90 3251   4.237   9.896   0.879 -0.7809 -1.1393  1.9412
    8CHTO    N9 3252   4.199   9.743   0.752 -0.2217  0.5661  0.3918
    8CHTO   H77 3253   4.100   9.781   0.773 -0.8036 -1.8211  2.2305
    8CHTO   H78 3254   4.208   9.640   0.781 -2.8661  0.4524  0.9299
    8CHTO   C51 3255   4.409   9.892   0.736 -0.4017  0.2465 -0.3873
    8CHTO   H93 3256   4.459   9.811   0.684  0.4463  0.7631 -0.3851
    8CHTO   O30 3257   4.497   9.965   0.822  0.1289  0.0372  0.1622
    8CHTO   C46 3258   4.571   9.892   0.926  0.5760  0.1572  0.1179
    8CHTO   H88 3259   4.631   9.817   0.874  1.1059  1.1943 -0.7704
    8CHTO   C53 3260   4.654  10.008   0.997 -0.5443  0.0661  0.2950
    8CHTO   O72 3261   4.738   9.976   1.115 -0.1558  0.0353 -0.6453
    8CHTO  H199 3262   4.713   9.891   1.148  0.7215 -0.7431 -1.9442
    8CHTO   O22 3263   4.365   9.993   0.646 -0.7620  0.1097 -0.2322
    8CHTO   C31 3264   4.423  10.016   0.513 -0.1970 -0.3616 -0.0406
    8CHTO   H59 3265   4.349  10.080   0.460 -2.6654 -3.9250 -1.0908
    8CHTO   C29 3266   4.559  10.086   0.523  0.7825 -0.2254 -0.1030
    8CHTO   H57 3267   4.618  10.013   0.581 -1.2326 -1.6204  0.2344
    8CHTO   O21 3268   4.531  10.215   0.583 -0.4241  0.2263  0.1592
    8CHTO   H37 3269   4.608  10.267   0.598 -0.4907  0.2512  0.4224
    8CHTO   C27 3270   4.630  10.101   0.386  0.2478 -0.0603 -0.5228
    8CHTO   H55 3271   4.570  10.173   0.328  0.6679  1.5838  1.0341
    8CHTO    N5 3272   4.763  10.168   0.404  0.1666  0.2140  0.3047
    8CHTO   H43 3273   4.793  10.209   0.308 -0.5392  0.0116 -0.0017
    8CHTO   H44 3274   4.788  10.222   0.493  1.7264  0.6958 -0.4004
    8CHTO   C25 3275   4.633   9.962   0.316  0.5523 -0.3529 -0.5128
    8CHTO   H53 3276   4.692   9.892   0.378  1.6631  0.3011 -0.8228
    8CHTO   O17 3277   4.501   9.913   0.298  0.1316 -0.2820 -0.0863
    8CHTO   C32 3278   4.435   9.887   0.423  0.2574 -0.2902 -0.0233
    8CHTO   H60 3279   4.476   9.804   0.479  0.0492 -0.5270 -0.2205
    8CHTO   C36 3280   4.286   9.858   0.394  0.6371  0.2744 -0.2560
    8CHTO   O25 3281   4.269   9.733   0.327  0.0384 -0.8937 -0.1400
    8CHTO   H40 3282   4.228   9.675   0.388 -0.8571  1.8599  1.9951
    8CHTO   O15 3283   4.695   9.982   0.183  0.0803  0.3452  0.0378
    8CHTO   C19 3284   4.725   9.955   0.046  0.2565 -0.4274 -0.0265
    8CHTO   H47 3285   4.646   9.895  -0.001  1.6073 -2.1035 -0.2421
    8CHTO   C20 3286   4.745  10.076  -0.044  0.6577 -0.4586 -0.0068
    8CHTO   H48 3287   4.834  10.134  -0.019  0.2812  0.9307 -1.7320
    8CHTO   O19 3288   4.628  10.153  -0.046  0.3820 -0.1784 -0.9840
    8CHTO   H35 3289   4.557  10.099  -0.076  1.3815 -1.0583 -1.8018
    8CHTO   C21 3290   4.783  10.035  -0.194 -0.3994 -0.4698  0.1224
    8CHTO   H49 3291   4.698   9.985  -0.241 -0.1440  0.2808 -1.1558
    8CHTO    N4 3292   4.823  10.153  -0.279  0.2135  0.4229  0.6772
    8CHTO   H41 3293   4.748  10.231  -0.274  0.8673  1.1894 -0.9406
    8CHTO   H42 3294   4.912  10.191  -0.231  2.0424 -2.3916 -0.3994
    8CHTO   C22 3295   4.909   9.939  -0.181 -0.0789  0.1582  0.2562
    8CHTO   H50 3296   4.994   9.990  -0.137  1.7885 -2.8064  0.2269
    8CHTO   O14 3297   4.874   9.823  -0.094 -0.1924 -0.1519  0.0646
    8CHTO   C23 3298   4.857   9.871   0.037  0.2115 -0.5161 -0.4990
    8CHTO   H51 3299   4.945   9.929   0.068  0.1381  0.0320 -1.3019
    8CHTO   C34 3300   4.860   9.746   0.128  0.1519  0.0604 -0.1649
    8CHTO   O23 3301   4.996   9.702   0.155  0.5066 -0.0993 -0.1396
    8CHTO   H38 3302   4.984   9.623   0.203 -0.2879 -0.1270 -0.3832
    8CHTO   O16 3303   4.947   9.883  -0.307 -0.5408 -0.0467 -0.6040
    8CHTO   C24 3304   5.095   9.802  -0.296  0.5034  0.4729 -0.2563
    8CHTO   H52 3305   5.128   9.792  -0.193  0.6469 -2.5098 -0.5628
    8CHTO   C26 3306   5.205   9.876  -0.378  0.0379 -0.0027 -0.7868
    8CHTO   H54 3307   5.173   9.881  -0.484  1.0517 -2.4499 -1.2511
    8CHTO   O20 3308   5.220  10.000  -0.315  0.0981  0.1374  0.2583
    8CHTO   H36 3309   5.232  10.065  -0.381 -0.5919 -2.0615 -2.1409
    8CHTO   C30 3310   5.336   9.797  -0.377  0.0298  0.3662  0.3913
    8CHTO   H58 3311   5.371   9.776  -0.275 -0.4748 -2.1550  0.0889
    8CHTO    N6 3312   5.447   9.865  -0.452  0.0107  0.1902 -0.0534
    8CHTO   H45 3313   5.456   9.816  -0.548 -0.6680 -0.7879  0.3760
    8CHTO   H46 3314   5.542   9.864  -0.400  1.1454  1.5959 -2.0064
    8CHTO   C33 3315   5.298   9.660  -0.436  0.2034 -0.8160 -0.0460
    8CHTO   H61 3316   5.251   9.679  -0.533  0.8828 -2.2015 -0.6621
    8CHTO   O18 3317   5.206   9.590  -0.344  0.4118  0.7037  0.4329
    8CHTO   C28 3318   5.082   9.660  -0.355  0.0919  0.2438 -0.1195
    8CHTO   H56 3319   5.048   9.664  -0.458  0.1624  0.1315 -0.1472
    8CHTO   C35 3320   4.982   9.581  -0.284 -0.0605  0.7510 -0.4606
    8CHTO   O24 3321   5.024   9.539  -0.157  0.0210  0.1029 -0.0483
    8CHTO   H39 3322   5.100   9.486  -0.170 -0.1764 -0.6437  1.7744
    8CHTO    O9 3323   5.412   9.581  -0.470 -0.0656 -0.1402 -0.2564
    8CHTO   C13 3324   5.394   9.473  -0.588  0.2952  0.1559  0.4163
    8CHTO   H26 3325   5.314   9.513  -0.654  2.5322  2.7342 -0.8580
    8CHTO   C11 3326   5.361   9.328  -0.527 -0.1727 -0.1998  0.3098
    8CHTO   H24 3327   5.261   9.316  -0.484 -1.3344 -1.0248 -2.5418
    8CHTO    O8 3328   5.445   9.311  -0.415  0.0298  0.0099  0.0426
    8CHTO    H3 3329   5.402   9.256  -0.352 -0.8257 -1.1533 -1.5315
    8CHTO    C9 3330   5.381   9.227  -0.643 -0.0245  0.1578 -0.3241
    8CHTO   H22 3331   5.333   9.273  -0.731 -1.3763 -0.0573  0.2922
    8CHTO    N2 3332   5.317   9.094  -0.618  0.6449 -0.0604  0.1128
    8CHTO   H10 3333   5.318   9.036  -0.709 -0.1124  0.3784 -0.1823
    8CHTO   H11 3334   5.373   9.052  -0.536  1.0804 -1.1514 -0.7325
    8CHTO    C7 3335   5.542   9.226  -0.678  0.6775 -0.1291  0.6072
    8CHTO   H20 3336   5.554   9.198  -0.785 -0.1830  0.7651  0.2784
    8CHTO    O4 3337   5.604   9.361  -0.666 -0.3438 -0.3472 -0.5178
    8CHTO   C14 3338   5.514   9.473  -0.686 -0.2556  0.2973  0.5937
    8CHTO   H27 3339   5.487   9.453  -0.792 -0.9757 -1.5496  1.1083
    8CHTO   C18 3340   5.589   9.606  -0.676  0.6994 -0.3417 -0.1118
    8CHTO   O13 3341   5.685   9.613  -0.781  0.3964  0.7529 -0.1256
    8CHTO    H7 3342   5.735   9.534  -0.789 -3.3049 -1.5820 -1.8512
    8CHTO    O2 3343   5.635   9.116  -0.599 -0.5187 -0.3966  0.4831
    8CHTO    C1 3344   5.780   9.111  -0.615  0.4294 -0.7704  0.1375
    8CHTO   H14 3345   5.826   9.210  -0.597  2.0107 -1.6336  0.9233
    8CHTO    C2 3346   5.823   9.058  -0.757  0.2148 -0.1185  0.5999
    8CHTO   H15 3347   5.779   8.957  -0.760  1.7893 -0.8967  2.5756
    8CHTO    O6 3348   5.783   9.150  -0.861 -0.6157 -0.3945  0.7171
    8CHTO    H1 3349   5.801   9.120  -0.947 -2.9257 -1.3837  0.5482
    8CHTO    C3 3350   5.975   9.028  -0.766  0.8598 -0.1130 -0.1314
    8CHTO   H16 3351   6.023   9.128  -0.763 -2.4232  1.5328 -0.2133
    8CHTO    N1 3352   6.010   8.957  -0.892  0.8240  0.0131  0.0949
    8CHTO    H8 3353   6.084   8.883  -0.865 -1.7031 -2.9059 -0.8128
    8CHTO    H9 3354   6.061   9.033  -0.949  0.0170  0.5343  0.0616
    8CHTO    C4 3355   6.025   8.946  -0.633  0.2081  0.0205 -0.2530
    8CHTO   H17 3356   5.979   8.847  -0.636  1.1095 -0.4303  0.6421
    8CHTO    O1 3357   5.984   9.013  -0.514  0.0266 -0.3735 -0.0222
    8CHTO    C5 3358   5.840   9.027  -0.502 -0.2279  0.4402 -0.1478
    8CHTO   H18 3359   5.791   8.930  -0.508 -0.2370  0.3895  0.7303
    8CHTO   C16 3360   5.799   9.089  -0.363  0.4917  0.0968  0.2425
    8CHTO   O11 3361   5.837   9.017  -0.245  0.0727 -0.2403 -0.3935
    8CHTO    H5 3362   5.928   9.039  -0.232 -0.1576 -0.1892  1.1579
    8CHTO    O3 3363   6.171   8.929  -0.619 -0.2240 -0.5060 -0.0037
    8CHTO    C6 3364   6.208   8.830  -0.523 -0.4445  0.1397 -0.1343
    8CHTO   H19 3365   6.131   8.810  -0.449 -0.9730 -1.8118 -1.2056
    8CHTO    C8 3366   6.247   8.694  -0.588  0.2653 -0.8937 -0.0459
    8CHTO   H21 3367   6.298   8.720  -0.681  2.0792  1.3842  1.5261
    8CHTO    O7 3368   6.115   8.642  -0.612  0.1548 -0.7193  0.0544
    8CHTO    H2 3369   6.110   8.593  -0.692  1.5551 -0.3501 -0.2647
    8CHTO   C12 3370   6.332   8.610  -0.486  0.6255  0.3378 -0.6277
    8CHTO   H25 3371   6.258   8.578  -0.410  0.9187  1.6943  0.2482
    8CHTO    N3 3372   6.375   8.479  -0.545  0.1893  0.0646 -0.2971
    8CHTO   H12 3373   6.311   8.445  -0.625  1.2984  1.8557 -1.9758
    8CHTO   H13 3374   6.475   8.482  -0.585 -0.1102  2.0565 -0.9341
    8CHTO   C15 3375   6.445   8.683  -0.413 -0.0583 -0.3403  0.7263
    8CHTO   H28 3376   6.517   8.726  -0.484 -1.3740  1.0194  0.1891
    8CHTO   O10 3377   6.497   8.601  -0.282  0.1840 -0.4765 -0.0841
    8CHTO    H4 3378   6.571   8.546  -0.300  0.0265 -0.1719 -1.7001
    8CHTO    O5 3379   6.391   8.801  -0.345  0.0972  0.0939 -0.4703
    8CHTO   C10 3380   6.325   8.892  -0.436  0.1963  0.4363 -0.4688
    8CHTO   H23 3381   6.402   8.926  -0.505  0.8634 -2.4445 -1.2440
    8CHTO   C17 3382   6.282   9.019  -0.357 -0.0540 -0.2286 -0.7754
    8CHTO   O12 3383   6.396   9.098  -0.313 -0.1443  0.2820  0.5358
    8CHTO    H6 3384   6.414   9.080  -0.223 -1.4545 -3.1594  0.1916
    9CHTO  H203 3385   8.147   4.054   3.176  0.8659  1.1750 -0.5416
    9CHTO   O82 3386   8.214   4.004   3.218 -0.3391 -0.0581 -0.0526
    9CHTO  C123 3387   8.328   4.014   3.136  0.7871  0.3748 -0.0968
    9CHTO  H227 3388   8.393   4.095   3.174  1.4923 -1.3649  2.5426
    9CHTO   O77 3389   8.393   3.887   3.161  0.1939  0.1141 -0.1792
    9CHTO  C118 3390   8.522   3.879   3.099 -0.4339  0.1353  0.0487
    9CHTO  H222 3391   8.573   3.965   3.145 -1.1002  0.6636 -0.1906
    9CHTO  C125 3392   8.592   3.755   3.138  0.6538  0.0377 -0.7937
    9CHTO   O84 3393   8.697   3.776   3.234  0.3635 -0.2750 -0.2571
    9CHTO  H205 3394   8.742   3.696   3.254  0.2868 -0.2179  0.1454
    9CHTO  C114 3395   8.516   3.892   2.948  0.2352  0.2407 -0.3068
    9CHTO  H218 3396   8.460   3.807   2.906 -1.0098  0.2906  1.1950
    9CHTO  C116 3397   8.431   4.019   2.913  0.1122  0.2191  0.3231
    9CHTO  H220 3398   8.491   4.109   2.933  0.7471 -0.7215  2.8592
    9CHTO   O79 3399   8.410   4.015   2.769  0.2266 -1.1561 -0.0507
    9CHTO  H201 3400   8.333   4.055   2.734 -0.1566 -1.4660  0.4417
    9CHTO  C120 3401   8.296   4.029   2.984 -0.0381  0.1287 -0.1742
    9CHTO  H224 3402   8.240   3.939   2.951  0.4212 -0.0920 -0.3589
    9CHTO   N21 3403   8.214   4.154   2.953  0.1829  0.3180 -0.2424
    9CHTO  H211 3404   8.280   4.239   2.946  0.3486  0.1701 -0.4609
    9CHTO  H212 3405   8.138   4.170   3.028  0.7843 -2.0019  0.9111
    9CHTO   O75 3406   8.651   3.887   2.895  0.0372 -0.1593  0.2545
    9CHTO  C112 3407   8.654   3.804   2.748  0.1038 -0.1683 -0.4001
    9CHTO  H216 3408   8.552   3.813   2.708 -0.3875 -1.3996  0.5763
    9CHTO   O73 3409   8.683   3.666   2.774 -0.2173 -0.1507  0.2783
    9CHTO  C113 3410   8.665   3.583   2.659 -0.1437  0.9506 -0.1287
    9CHTO  H217 3411   8.568   3.601   2.607 -0.3812 -0.2233 -0.1036
    9CHTO  C124 3412   8.665   3.434   2.698 -0.4040  0.4138  0.1442
    9CHTO   O83 3413   8.546   3.406   2.765  0.4518 -0.2647 -0.0705
    9CHTO  H204 3414   8.496   3.334   2.732 -1.2900  1.0367 -0.3371
    9CHTO  C109 3415   8.775   3.621   2.556 -0.6154  0.0094 -0.1578
    9CHTO  H213 3416   8.869   3.588   2.604 -0.6104 -1.3128 -1.0552
    9CHTO  C110 3417   8.765   3.779   2.524 -0.0127  0.3464  0.4987
    9CHTO  H214 3418   8.677   3.788   2.461  1.7115 -3.1026 -2.6044
    9CHTO   O78 3419   8.873   3.818   2.444 -0.1771  0.0874  0.1158
    9CHTO  H200 3420   8.878   3.761   2.370 -0.4084  1.3307 -0.8879
    9CHTO  C111 3421   8.758   3.868   2.654 -0.0416 -0.1395  0.0647
    9CHTO  H215 3422   8.855   3.864   2.706  0.5110 -0.4025 -0.9822
    9CHTO   N19 3423   8.728   4.009   2.628  0.4066 -0.7864 -0.4650
    9CHTO  H207 3424   8.630   4.009   2.582 -0.3382  0.7935  1.0554
    9CHTO  H208 3425   8.720   4.072   2.715 -2.3353 -0.4549 -0.8853
    9CHTO   O74 3426   8.756   3.543   2.440 -0.3393 -0.4954  0.4478
    9CHTO  C115 3427   8.875   3.448   2.398 -0.5367  0.1071 -0.2431
    9CHTO  H219 3428   8.967   3.471   2.453 -2.0216 -0.2351  2.4649
    9CHTO   O76 3429   8.843   3.296   2.425  0.9273  0.2866  0.6517
    9CHTO  C122 3430   8.736   3.234   2.344 -0.3323  0.3356 -0.0337
    9CHTO  H226 3431   8.642   3.267   2.389  0.4893  1.1551  1.1143
    9CHTO  C126 3432   8.745   3.081   2.385  0.8507  0.0022 -0.2596
    9CHTO   O85 3433   8.712   3.070   2.527 -0.4199 -0.0016 -0.5975
    9CHTO  H206 3434   8.767   3.012   2.576 -0.8302  0.9419  1.0103
    9CHTO  C121 3435   8.758   3.260   2.192  0.6914 -0.2479 -0.6446
    9CHTO  H225 3436   8.849   3.201   2.164  1.0090  0.6318 -1.4946
    9CHTO   O81 3437   8.647   3.222   2.113 -0.0401  0.1480  0.2551
    9CHTO  H202 3438   8.679   3.145   2.070 -1.2491 -0.6461  0.7464
    9CHTO  C119 3439   8.783   3.416   2.156  0.2096 -0.4991 -0.6149
    9CHTO  H223 3440   8.805   3.422   2.050 -1.9474 -0.9283 -1.1130
    9CHTO  C117 3441   8.902   3.482   2.244  0.0016 -0.3222  0.4940
    9CHTO  H221 3442   8.897   3.591   2.245  1.8807 -0.1951 -1.5060
    9CHTO   N20 3443   9.037   3.449   2.194  0.6173  0.0779 -0.0591
    9CHTO  H209 3444   9.053   3.343   2.208  0.2965 -0.1388 -1.2391
    9CHTO  H210 3445   9.121   3.510   2.223 -0.5582  0.9809  1.5515
    9CHTO   O80 3446   8.645   3.504   2.177  0.0357  0.5241  1.0002
    9CHTO  C103 3447   8.611   3.626   2.072 -0.0671 -0.0232 -0.0136
    9CHTO  H190 3448   8.541   3.700   2.109  1.2830  1.5081 -0.4969
    9CHTO  C101 3449   8.726   3.707   2.013  0.6040 -0.6513  0.0372
    9CHTO  H188 3450   8.803   3.640   1.977  2.1479 -0.6090  3.1196
    9CHTO   O68 3451   8.788   3.805   2.132 -0.2095  0.3537  0.1166
    9CHTO  H168 3452   8.740   3.884   2.151  0.2861  0.7837 -0.3868
    9CHTO   C99 3453   8.684   3.790   1.891 -1.0406  0.0036  0.8807
    9CHTO  H186 3454   8.619   3.877   1.913  0.8435  1.7987 -0.5548
    9CHTO   N17 3455   8.797   3.863   1.823 -0.1169  0.2707 -0.4326
    9CHTO  H174 3456   8.756   3.958   1.792  2.3676  0.8527 -1.9819
    9CHTO  H175 3457   8.884   3.875   1.885 -0.0587 -0.6693 -0.3319
    9CHTO   C97 3458   8.606   3.702   1.789  0.5319 -0.3618 -0.3030
    9CHTO  H184 3459   8.673   3.623   1.751  1.8033 -0.8030  2.7029
    9CHTO   O64 3460   8.492   3.645   1.859 -0.6107  0.1641  0.5780
    9CHTO  C104 3461   8.535   3.551   1.958 -0.2462  0.5320 -0.6324
    9CHTO  H191 3462   8.602   3.480   1.909 -0.0884 -0.8113  1.4770
    9CHTO  C108 3463   8.422   3.467   2.024  0.7769  0.2140 -0.6884
    9CHTO   O71 3464   8.387   3.358   1.942 -0.2869 -0.0703  0.5049
    9CHTO  H171 3465   8.319   3.375   1.880  1.8107  1.4908 -1.4546
    9CHTO   O62 3466   8.551   3.775   1.684  0.0015  0.3936  0.2387
    9CHTO   C91 3467   8.545   3.735   1.549  0.4712  1.0848  0.9699
    9CHTO  H178 3468   8.608   3.647   1.538  0.1464  0.6707  2.3257
    9CHTO   C92 3469   8.617   3.848   1.468  0.9113  0.2790 -0.2918
    9CHTO  H179 3470   8.724   3.855   1.488  1.0763 -2.0844 -0.1818
    9CHTO   O66 3471   8.620   3.802   1.328 -0.3832  0.1225 -0.3632
    9CHTO  H166 3472   8.693   3.751   1.300 -0.6396 -0.5554  0.1795
    9CHTO   C93 3473   8.536   3.985   1.471  0.3291 -0.0820 -1.0749
    9CHTO  H180 3474   8.548   4.028   1.371 -0.7819  1.6326 -0.5001
    9CHTO   N16 3475   8.594   4.075   1.570  0.3404  0.1496  0.2413
    9CHTO  H172 3476   8.667   4.030   1.636  0.7833  0.5675  0.0393
    9CHTO  H173 3477   8.520   4.131   1.625 -0.0742  2.4532 -2.5531
    9CHTO   C94 3478   8.381   3.955   1.487 -0.2609 -0.0735  0.5701
    9CHTO  H181 3479   8.350   3.951   1.591 -0.2894  2.6025  0.7057
    9CHTO   O61 3480   8.341   3.828   1.428  0.0950 -0.4323 -0.1429
    9CHTO   C95 3481   8.387   3.718   1.504  0.1126  0.3816 -0.7050
    9CHTO  H182 3482   8.329   3.717   1.596  1.0503  0.7581 -0.0995
    9CHTO  C106 3483   8.355   3.591   1.418  0.6591 -0.3033  0.6090
    9CHTO   O69 3484   8.399   3.477   1.493  0.2622  0.4804  0.0579
    9CHTO  H169 3485   8.474   3.433   1.458  0.3501 -0.1043  0.9474
    9CHTO   O63 3486   8.291   4.087   1.399 -0.1406 -0.1274  0.3275
    9CHTO   C96 3487   8.153   4.095   1.470  0.7243 -0.2965  0.2784
    9CHTO  H183 3488   8.159   4.063   1.574 -0.5047 -0.1632  0.4054
    9CHTO   C98 3489   8.036   4.009   1.403 -0.0112 -0.1562  0.0432
    9CHTO  H185 3490   8.049   4.022   1.295  0.1880  2.6078  0.3647
    9CHTO   O67 3491   8.047   3.870   1.428  0.5782 -0.5317 -0.5283
    9CHTO  H167 3492   8.123   3.835   1.385 -0.4775 -0.9110 -2.1270
    9CHTO  C102 3493   7.881   4.045   1.438 -0.4093  0.1083  0.2319
    9CHTO  H189 3494   7.857   3.998   1.534 -1.2278  1.2691  0.6072
    9CHTO   N18 3495   7.776   3.986   1.348 -0.2848 -0.2525  0.1337
    9CHTO  H176 3496   7.778   4.026   1.248 -0.3604 -1.0023 -0.1696
    9CHTO  H177 3497   7.675   3.995   1.384 -0.2514 -1.6736  0.6151
    9CHTO  C105 3498   7.867   4.201   1.449  0.4311 -0.7984 -0.4370
    9CHTO  H192 3499   7.875   4.247   1.351 -0.5094 -2.6280 -1.3983
    9CHTO   O65 3500   7.973   4.253   1.529 -0.6568  0.4902 -0.0407
    9CHTO  C100 3501   8.109   4.243   1.482  0.4388  0.9311  0.9779
    9CHTO  H187 3502   8.104   4.287   1.381 -1.0265 -1.2507  0.0767
    9CHTO  C107 3503   8.194   4.327   1.573 -0.3677 -0.0818  0.2972
    9CHTO   O70 3504   8.339   4.323   1.548 -0.2079  0.4157  0.6259
    9CHTO  H170 3505   8.383   4.380   1.607 -1.3524  0.5662  1.3518
    9CHTO   O57 3506   7.718   4.222   1.529 -0.1079  0.2089  0.2563
    9CHTO   C85 3507   7.652   4.350   1.533 -0.1030 -0.3524  0.1930
    9CHTO  H157 3508   7.643   4.373   1.425  0.4749 -0.3746  0.1426
    9CHTO   C83 3509   7.738   4.459   1.602 -0.4488  0.0684  0.0955
    9CHTO  H155 3510   7.827   4.460   1.539  0.2042 -2.4027  0.8950
    9CHTO   O56 3511   7.768   4.437   1.742 -0.2667  0.5664  0.1479
    9CHTO  H135 3512   7.691   4.404   1.785 -0.4521  0.8095 -0.0000
    9CHTO   C81 3513   7.658   4.586   1.583  0.1592 -1.0694  0.4933
    9CHTO  H153 3514   7.626   4.597   1.479  2.3502  1.6015  0.0327
    9CHTO   N14 3515   7.733   4.713   1.602 -0.8619 -0.2182  0.4311
    9CHTO  H141 3516   7.816   4.734   1.537 -0.5026 -0.0485  0.9359
    9CHTO  H142 3517   7.660   4.792   1.601 -3.0868 -2.2066  1.4440
    9CHTO   C79 3518   7.525   4.585   1.668 -0.0216  0.2827 -0.0719
    9CHTO  H151 3519   7.457   4.650   1.613  0.3285  0.2294 -0.5768
    9CHTO   O52 3520   7.451   4.461   1.656  0.4652  0.2048 -0.0482
    9CHTO   C86 3521   7.511   4.341   1.598  0.7849 -0.4021 -1.2348
    9CHTO  H158 3522   7.515   4.264   1.679 -0.4304 -0.2440 -1.0129
    9CHTO   C90 3523   7.415   4.289   1.497  0.0337  0.3770  0.2969
    9CHTO   O60 3524   7.283   4.277   1.542  0.1424 -0.8075  0.0103
    9CHTO  H138 3525   7.270   4.190   1.573 -0.1788 -0.6089  0.4496
    9CHTO   O50 3526   7.543   4.616   1.810 -0.3912  0.1851  0.2216
    9CHTO   C73 3527   7.466   4.674   1.912 -0.0576 -0.1644 -1.1581
    9CHTO  H145 3528   7.359   4.654   1.896 -0.3929 -1.0481  1.8426
    9CHTO   C74 3529   7.487   4.834   1.913 -0.1633 -0.2541  0.6066
    9CHTO  H146 3530   7.463   4.860   1.809 -0.9785  1.4628  1.2035
    9CHTO   O54 3531   7.390   4.893   1.999 -0.0480  0.1311 -0.1047
    9CHTO  H133 3532   7.318   4.920   1.945  0.2500 -1.1252 -1.1699
    9CHTO   C75 3533   7.637   4.869   1.947 -0.6346 -0.1595  0.1152
    9CHTO  H147 3534   7.697   4.848   1.857  0.2390 -1.0427  0.8916
    9CHTO   N13 3535   7.672   5.012   1.965 -0.1059 -0.7634 -0.3733
    9CHTO  H139 3536   7.774   5.022   1.999 -0.2877 -1.8427  0.5192
    9CHTO  H140 3537   7.649   5.074   1.880 -1.4090  1.0690  1.2389
    9CHTO   C76 3538   7.697   4.796   2.075  0.1715 -0.2644  0.1727
    9CHTO  H148 3539   7.664   4.844   2.167 -1.0213 -1.3290  0.3122
    9CHTO   O49 3540   7.643   4.655   2.088  0.4315 -0.6714  0.1722
    9CHTO   C77 3541   7.507   4.622   2.052 -1.0079  0.0239 -0.2200
    9CHTO  H149 3542   7.434   4.658   2.125 -1.4110  0.0259 -0.6192
    9CHTO   C88 3543   7.494   4.468   2.047 -0.8037 -0.1190  0.0840
    9CHTO   O58 3544   7.396   4.430   2.159  0.3344 -0.2387 -0.2289
    9CHTO  H136 3545   7.446   4.398   2.231 -0.7244  1.5310  1.3176
    9CHTO   O51 3546   7.855   4.791   2.066  0.5711  0.0591 -0.1677
    9CHTO   C78 3547   7.942   4.674   2.177 -0.6096 -0.2170  0.3635
    9CHTO  H150 3548   7.889   4.578   2.196 -2.2610  0.3015 -1.5137
    9CHTO   C80 3549   7.961   4.745   2.312  0.1936  0.4943 -1.1789
    9CHTO  H152 3550   7.991   4.850   2.290 -0.9950  0.7791 -1.5027
    9CHTO   O55 3551   7.833   4.764   2.381  0.3709 -0.0898 -0.2503
    9CHTO  H134 3552   7.859   4.781   2.469  0.0980 -0.2430 -0.1399
    9CHTO   C84 3553   8.067   4.669   2.399 -0.0280 -0.4281 -0.2423
    9CHTO  H156 3554   8.031   4.574   2.439  1.6526 -0.8752  0.2912
    9CHTO   N15 3555   8.092   4.753   2.520 -0.7064 -0.0980 -0.2436
    9CHTO  H143 3556   8.045   4.726   2.613  1.8563  0.3185  1.2277
    9CHTO  H144 3557   8.193   4.785   2.540  0.4220 -2.4888 -1.7958
    9CHTO   C87 3558   8.197   4.644   2.314  0.5554 -0.0893 -0.0537
    9CHTO  H159 3559   8.235   4.741   2.283  0.7189 -0.3138 -0.5766
    9CHTO   O53 3560   8.150   4.561   2.178 -0.0101 -0.1554 -0.0713
    9CHTO   C82 3561   8.065   4.646   2.094 -0.0540 -0.6307 -0.1637
    9CHTO  H154 3562   8.105   4.741   2.060  0.8686 -0.4688  1.3734
    9CHTO   C89 3563   8.020   4.572   1.966  0.7219 -0.3910 -0.0845
    9CHTO   O59 3564   8.130   4.533   1.888 -0.6059  0.4668  0.2641
    9CHTO  H137 3565   8.120   4.440   1.880  0.3858  0.3900 -0.2989
    9CHTO   O45 3566   8.321   4.559   2.402  0.1939 -0.2777  0.3426
    9CHTO   C67 3567   8.366   4.437   2.357  0.0134 -0.4108  0.4523
    9CHTO  H124 3568   8.278   4.373   2.354  0.1119 -0.4854 -1.4567
    9CHTO   C65 3569   8.436   4.443   2.217  0.1573 -0.5710  0.8267
    9CHTO  H122 3570   8.441   4.551   2.202 -1.4038 -0.5011  0.7051
    9CHTO   O44 3571   8.345   4.382   2.122 -0.3894 -0.0339  0.2515
    9CHTO  H102 3572   8.272   4.433   2.092  2.5258  2.8797 -2.2986
    9CHTO   C63 3573   8.584   4.389   2.220 -0.0676  0.6475  0.3328
    9CHTO  H120 3574   8.643   4.460   2.277  0.7587 -1.2134  1.8244
    9CHTO   N11 3575   8.659   4.385   2.090 -0.1291  0.4025  0.3819
    9CHTO  H108 3576   8.593   4.389   2.005  1.7649  1.5601 -1.0682
    9CHTO  H109 3577   8.717   4.295   2.085  1.0721  1.2120 -0.2970
    9CHTO   C61 3578   8.593   4.249   2.297  0.6767  0.0068 -0.0776
    9CHTO  H118 3579   8.699   4.252   2.328  0.9346  2.6123 -1.0304
    9CHTO   O40 3580   8.513   4.243   2.417  0.8846  1.0437 -0.5803
    9CHTO   C68 3581   8.466   4.371   2.465 -0.3988 -0.3645  0.1476
    9CHTO  H125 3582   8.554   4.436   2.482 -1.7731  0.9251  2.5252
    9CHTO   C72 3583   8.402   4.356   2.601  0.1481 -0.2287  0.8517
    9CHTO   O48 3584   8.502   4.317   2.694 -0.4025  0.5280  0.9190
    9CHTO  H105 3585   8.461   4.265   2.760 -0.3694 -2.7052 -1.5322
    9CHTO   O38 3586   8.563   4.129   2.217 -0.2535 -0.1000 -0.3154
    9CHTO   C55 3587   8.429   4.076   2.196 -0.7193  0.3426  0.8145
    9CHTO  H112 3588   8.354   4.157   2.189  0.3407  1.1996 -1.3075
    9CHTO   C56 3589   8.389   3.961   2.304  0.1213 -0.5050  0.2002
    9CHTO  H113 3590   8.474   3.892   2.292  0.0927 -0.6654  0.9241
    9CHTO   O42 3591   8.400   4.001   2.440 -0.2790 -0.1006  0.1762
    9CHTO  H100 3592   8.354   3.939   2.493  0.8140 -0.4269  0.7442
    9CHTO   C57 3593   8.242   3.904   2.262 -0.0465  0.1104  0.3620
    9CHTO  H114 3594   8.169   3.983   2.279  0.0800  0.2370  0.3197
    9CHTO   N10 3595   8.199   3.786   2.334  0.1200 -0.0706 -0.2863
    9CHTO  H106 3596   8.093   3.769   2.326  0.2092 -0.3735 -0.8095
    9CHTO  H107 3597   8.246   3.701   2.288 -3.5678 -1.4586 -1.6474
    9CHTO   C58 3598   8.230   3.870   2.114 -0.2689 -0.0402  0.3803
    9CHTO  H115 3599   8.291   3.782   2.086  1.3575  0.9387  0.8089
    9CHTO   O37 3600   8.267   3.981   2.036  0.1311  0.5373 -0.3707
    9CHTO   C59 3601   8.408   4.019   2.054 -0.3825 -0.3250 -0.0251
    9CHTO  H116 3602   8.473   3.935   2.031  1.9320  1.3628  0.1496
    9CHTO   C70 3603   8.430   4.113   1.936  0.3901 -1.0309  0.5090
    9CHTO   O46 3604   8.573   4.134   1.919  0.0010 -0.1006  0.3057
    9CHTO  H103 3605   8.580   4.176   1.836 -1.3287  0.8679  0.6597
    9CHTO   O39 3606   8.078   3.838   2.068  0.2824  0.5665  0.2461
    9CHTO   C60 3607   8.041   3.706   2.030 -0.0446  0.0377 -0.2347
    9CHTO  H117 3608   8.129   3.643   2.038  0.0830  0.1177 -0.9433
    9CHTO   C62 3609   7.933   3.653   2.127  0.5071 -0.3687  0.5109
    9CHTO  H119 3610   7.982   3.665   2.226  0.1591  0.5335  0.5863
    9CHTO   O43 3611   7.821   3.751   2.135  0.8788  0.4367  0.2293
    9CHTO  H101 3612   7.836   3.834   2.094  1.1727 -1.0289 -2.7566
    9CHTO   C66 3613   7.903   3.502   2.106 -0.3638 -0.2223  0.0555
    9CHTO  H123 3614   7.996   3.448   2.122 -0.7073 -1.0663 -0.7114
    9CHTO   N12 3615   7.811   3.445   2.207 -0.6352 -0.2597  0.2085
    9CHTO  H110 3616   7.811   3.510   2.294 -0.1350  0.4079 -0.2940
    9CHTO  H111 3617   7.849   3.351   2.244  1.3044  0.7397  0.7989
    9CHTO   C69 3618   7.856   3.482   1.959 -0.1185  0.1487  0.7089
    9CHTO  H126 3619   7.752   3.511   1.933  0.6232  2.7318  0.4557
    9CHTO   O41 3620   7.954   3.560   1.850 -0.5562  0.8451  0.4243
    9CHTO   C64 3621   8.004   3.698   1.880 -0.2649  0.3701  0.2505
    9CHTO  H121 3622   7.927   3.772   1.850  0.4758  0.2814 -1.9179
    9CHTO   C71 3623   8.131   3.717   1.804 -0.5462  0.4976  0.0712
    9CHTO   O47 3624   8.104   3.786   1.685 -0.2103  0.1412  0.4294
    9CHTO  H104 3625   8.183   3.810   1.641 -0.4068 -0.1298 -0.0714
    9CHTO   O34 3626   7.863   3.320   1.931  0.0449 -0.2032  0.7131
    9CHTO   C49 3627   7.938   3.241   1.825  0.1502 -0.4427 -0.5375
    9CHTO   H91 3628   7.921   3.294   1.732 -0.7687  0.1842 -0.0209
    9CHTO   C47 3629   7.885   3.092   1.824 -0.5232 -0.1001  0.1749
    9CHTO   H89 3630   7.936   3.047   1.735 -1.2968  0.9388 -0.7992
    9CHTO   O33 3631   7.744   3.093   1.808  0.1056  0.5359  0.5353
    9CHTO   H70 3632   7.710   3.054   1.886 -1.1038  0.2325 -0.1327
    9CHTO   C45 3633   7.931   3.015   1.965  0.3788  0.1053 -0.9681
    9CHTO   H87 3634   7.844   3.013   2.032  0.3304 -0.1566 -1.0367
    9CHTO    N8 3635   7.966   2.875   1.932 -0.3137  0.1691 -0.1991
    9CHTO   H75 3636   8.023   2.829   2.012 -2.0869 -3.1672 -0.7749
    9CHTO   H76 3637   7.881   2.810   1.916  0.4131 -0.1484 -2.9560
    9CHTO   C43 3638   8.037   3.108   2.040 -1.2251 -0.1155  0.4293
    9CHTO   H85 3639   7.979   3.192   2.079  1.0017  0.8475  1.7771
    9CHTO   O29 3640   8.140   3.148   1.941 -0.1974 -0.0020  0.2267
    9CHTO   C50 3641   8.090   3.243   1.851 -0.7917  0.0231 -0.1718
    9CHTO   H92 3642   8.111   3.343   1.892  2.2652 -0.9950  0.8438
    9CHTO   C54 3643   8.175   3.231   1.724 -0.0562 -0.6945  0.2619
    9CHTO   O36 3644   8.161   3.349   1.638  0.6055  0.5499  0.1135
    9CHTO   H72 3645   8.250   3.378   1.630  0.7812  0.6633  2.0983
    9CHTO   O27 3646   8.099   3.044   2.156 -0.4411  0.2328 -0.0064
    9CHTO   C37 3647   8.148   3.088   2.284  0.0245  0.3374  0.2409
    9CHTO   H79 3648   8.207   3.003   2.320  0.0148  0.2962  0.1612
    9CHTO   C38 3649   8.247   3.212   2.263 -0.1775 -0.6949  0.5165
    9CHTO   H80 3650   8.189   3.285   2.205  2.0365  1.8208  1.3440
    9CHTO   O31 3651   8.364   3.167   2.183 -1.0385 -0.1224  0.1010
    9CHTO   H68 3652   8.335   3.166   2.094 -1.6654 -2.6788  0.2956
    9CHTO   C39 3653   8.296   3.270   2.403  0.0134 -0.3354 -0.5304
    9CHTO   H81 3654   8.363   3.197   2.448  2.0334  0.9281 -1.4099
    9CHTO    N7 3655   8.375   3.400   2.390  0.2974  0.4127 -0.5551
    9CHTO   H73 3656   8.466   3.403   2.332  2.6306  1.2520  3.0117
    9CHTO   H74 3657   8.373   3.459   2.480 -1.3939 -0.8146  0.2430
    9CHTO   C40 3658   8.167   3.299   2.492  0.5806  0.1051 -0.6033
    9CHTO   H82 3659   8.113   3.375   2.437 -1.3300 -3.2024 -3.5011
    9CHTO   O26 3660   8.088   3.179   2.506 -0.0375 -0.7132  0.0884
    9CHTO   C41 3661   8.034   3.127   2.379 -0.3306 -0.0527  0.0510
    9CHTO   H83 3662   7.967   3.203   2.335  1.5321  2.3980  1.3186
    9CHTO   C52 3663   7.934   3.010   2.418 -0.2309 -0.3661  0.4877
    9CHTO   O35 3664   7.830   2.980   2.331  0.2152  0.2771 -0.3339
    9CHTO   H71 3665   7.768   2.917   2.362 -1.3102  0.9493 -1.9269
    9CHTO   O28 3666   8.194   3.319   2.630  0.2300  0.3446  0.1707
    9CHTO   C42 3667   8.115   3.412   2.706  0.0689  0.5749 -0.3848
    9CHTO   H84 3668   8.160   3.407   2.805 -0.1098 -1.8933 -0.4080
    9CHTO   C44 3669   7.963   3.369   2.721 -0.2656 -0.5197  0.0381
    9CHTO   H86 3670   7.917   3.346   2.625 -0.7964 -1.7624  0.5767
    9CHTO   O32 3671   7.965   3.255   2.807 -0.0796  0.3057 -0.2968
    9CHTO   H69 3672   7.988   3.277   2.895 -2.3744  3.0631 -0.3196
    9CHTO   C48 3673   7.880   3.486   2.785  0.0534 -0.4057  0.3335
    9CHTO   H90 3674   7.907   3.490   2.890  0.1983 -0.2864  0.2923
    9CHTO    N9 3675   7.737   3.456   2.792 -0.1699 -0.4154 -0.5770
    9CHTO   H77 3676   7.707   3.352   2.789  0.5299 -0.7339  2.1943
    9CHTO   H78 3677   7.685   3.508   2.871 -1.8007 -1.5019 -0.9026
    9CHTO   C51 3678   7.904   3.614   2.707  0.3808 -0.3657 -0.1697
    9CHTO   H93 3679   7.874   3.593   2.604 -1.6108  0.4181  0.2201
    9CHTO   O30 3680   8.035   3.657   2.717  0.4456 -0.0563  0.4816
    9CHTO   C46 3681   8.142   3.558   2.651  0.6874 -0.2379 -0.2400
    9CHTO   H88 3682   8.136   3.557   2.542 -0.1514  0.0628 -0.1956
    9CHTO   C53 3683   8.275   3.609   2.697 -0.5463 -0.5592  0.1531
    9CHTO   O72 3684   8.294   3.616   2.840  0.2527 -0.0629 -0.2434
    9CHTO  H199 3685   8.309   3.530   2.875  1.5953  0.1477 -0.2741
    9CHTO   O22 3686   7.826   3.726   2.750 -0.2806 -0.2173 -0.7235
    9CHTO   C31 3687   7.810   3.845   2.659 -0.1583  0.0655  0.1061
    9CHTO   H59 3688   7.710   3.887   2.682 -0.5479 -1.7989  1.9734
    9CHTO   C29 3689   7.918   3.957   2.698  0.9529  0.2141  0.9755
    9CHTO   H57 3690   8.021   3.918   2.698  1.2694  1.0018 -0.8604
    9CHTO   O21 3691   7.879   4.002   2.829 -0.1570  0.2750  0.2746
    9CHTO   H37 3692   7.902   3.947   2.901  2.0097 -1.3994 -1.6097
    9CHTO   C27 3693   7.909   4.078   2.596  0.4183  0.4897 -0.3393
    9CHTO   H55 3694   7.813   4.129   2.611 -0.9752 -2.1595  0.0759
    9CHTO    N5 3695   8.012   4.183   2.618 -0.0125  0.2055  0.4640
    9CHTO   H43 3696   8.005   4.227   2.716  2.6835  0.3263  0.6461
    9CHTO   H44 3697   8.110   4.137   2.612 -0.2250 -0.2595  0.4981
    9CHTO   C25 3698   7.922   4.029   2.451  0.2423 -0.3052 -0.5470
    9CHTO   H53 3699   8.016   3.973   2.437 -0.2029 -0.7715 -1.7907
    9CHTO   O17 3700   7.812   3.935   2.422 -0.6895 -0.4609 -0.4688
    9CHTO   C32 3701   7.802   3.816   2.502 -0.2827  0.6900 -0.2814
    9CHTO   H60 3702   7.888   3.756   2.474 -0.1765 -1.2698  3.8581
    9CHTO   C36 3703   7.676   3.747   2.456 -0.2416 -0.5402  0.5992
    9CHTO   O25 3704   7.650   3.618   2.505 -0.4779 -0.4865 -0.2640
    9CHTO   H40 3705   7.576   3.634   2.560 -1.7358 -0.4807 -1.9489
    9CHTO   O15 3706   7.886   4.157   2.349  0.1571 -0.6700  0.0804
    9CHTO   C19 3707   7.854   4.186   2.205  0.0866 -0.0450 -0.3082
    9CHTO   H47 3708   7.846   4.296   2.206  3.1748  0.2268 -1.3909
    9CHTO   C20 3709   7.958   4.149   2.101  0.0253  0.2825  0.2555
    9CHTO   H48 3710   7.996   4.047   2.114 -0.6128 -0.1413 -1.0849
    9CHTO   O19 3711   8.068   4.237   2.116 -0.4158  0.1823  0.7463
    9CHTO   H35 3712   8.122   4.202   2.184  1.1067  0.0545 -0.5153
    9CHTO   C21 3713   7.896   4.162   1.953  0.4683  0.1743  0.8451
    9CHTO   H49 3714   7.867   4.265   1.934 -0.4760 -0.2357  0.0120
    9CHTO    N4 3715   7.988   4.108   1.847  0.1065  0.4307  0.2700
    9CHTO   H41 3716   7.991   4.002   1.869  1.1480  0.9230  2.7550
    9CHTO   H42 3717   7.938   4.122   1.753 -1.8328 -1.1301  1.0344
    9CHTO   C22 3718   7.758   4.086   1.948 -0.2913 -0.1957  0.2321
    9CHTO   H50 3719   7.760   3.982   1.981  1.1462 -0.5292 -0.8328
    9CHTO   O14 3720   7.671   4.146   2.040  0.0778 -0.6795 -0.8793
    9CHTO   C23 3721   7.713   4.130   2.179  0.3345  0.4755 -0.3750
    9CHTO   H51 3722   7.709   4.022   2.197 -1.3099  0.4228 -1.0060
    9CHTO   C34 3723   7.605   4.194   2.258  0.1350 -0.3019  0.2157
    9CHTO   O23 3724   7.629   4.175   2.394  0.1998  0.4550  0.0552
    9CHTO   H38 3725   7.556   4.144   2.444 -0.3246  2.0321  0.3006
    9CHTO   O16 3726   7.680   4.100   1.826  0.2672 -0.6623 -0.0541
    9CHTO   C24 3727   7.543   3.978   1.819 -0.2072 -0.1334  0.4499
    9CHTO   H52 3728   7.533   3.922   1.913  0.7776 -0.5373  0.3215
    9CHTO   C26 3729   7.568   3.881   1.702 -0.2934 -0.3013 -0.2713
    9CHTO   H54 3730   7.601   3.940   1.614  0.7177 -1.0668 -0.4095
    9CHTO   O20 3731   7.683   3.807   1.748 -0.2478  0.7152 -0.2031
    9CHTO   H36 3732   7.703   3.741   1.685 -1.9337 -0.0861  0.0691
    9CHTO   C30 3733   7.440   3.799   1.660 -0.2891 -0.7422  0.1173
    9CHTO   H58 3734   7.416   3.725   1.738 -1.3195 -1.3335 -0.7575
    9CHTO    N6 3735   7.468   3.733   1.529  0.3370 -0.5855  0.0372
    9CHTO   H45 3736   7.463   3.804   1.448 -0.2871 -0.9389 -0.2412
    9CHTO   H46 3737   7.566   3.687   1.529  0.2274 -0.8687  2.0849
    9CHTO   C33 3738   7.304   3.884   1.662  0.2054 -0.0022 -0.0962
    9CHTO   H61 3739   7.312   3.959   1.581 -1.7751  0.5560  0.2035
    9CHTO   O18 3740   7.292   3.962   1.785  0.0572  0.7432  0.0696
    9CHTO   C28 3741   7.404   4.049   1.798 -0.7235  0.2464  0.2315
    9CHTO   H56 3742   7.414   4.104   1.705  0.0910  0.9372  0.7240
    9CHTO   C35 3743   7.382   4.150   1.914 -0.1896  0.0096 -0.9426
    9CHTO   O24 3744   7.289   4.261   1.883 -0.1051 -0.5311  0.0200
    9CHTO   H39 3745   7.197   4.244   1.874 -0.6120  2.0539 -0.1240
    9CHTO    O9 3746   7.181   3.811   1.635  0.2557  0.1436 -0.3148
    9CHTO   C13 3747   7.048   3.891   1.605  0.3268 -0.6069 -0.4065
    9CHTO   H26 3748   7.071   3.947   1.512  1.3696 -0.3538  0.0033
    9CHTO   C11 3749   7.005   3.985   1.723 -0.4310 -0.1271  0.3947
    9CHTO   H24 3750   7.084   4.061   1.736 -1.5506  0.9477  0.9924
    9CHTO    O8 3751   6.993   3.905   1.841  0.1685 -0.1823 -0.1264
    9CHTO    H3 3752   7.082   3.897   1.869  0.2859 -1.4279 -0.8077
    9CHTO    C9 3753   6.877   4.063   1.685  0.8034 -0.2056  0.2641
    9CHTO   H22 3754   6.897   4.110   1.588 -0.5408 -1.1772 -0.4973
    9CHTO    N2 3755   6.843   4.168   1.783 -0.0137  0.4299 -0.1008
    9CHTO   H10 3756   6.843   4.113   1.876 -2.8738  0.8124  0.1689
    9CHTO   H11 3757   6.743   4.206   1.767  0.5198  1.2612 -1.6282
    9CHTO    C7 3758   6.766   3.956   1.660 -0.4373  0.4089  0.9494
    9CHTO   H20 3759   6.684   4.020   1.622  1.3229  1.7578 -0.7183
    9CHTO    O4 3760   6.806   3.862   1.553 -0.0861 -1.0911  0.2452
    9CHTO   C14 3761   6.933   3.797   1.555 -0.0821  0.1271  0.1859
    9CHTO   H27 3762   6.963   3.779   1.449 -0.4133  1.9776 -0.2489
    9CHTO   C18 3763   6.927   3.661   1.625  0.0634  0.2815  0.1891
    9CHTO   O13 3764   7.046   3.581   1.610  0.0792 -0.0439 -0.0945
    9CHTO    H7 3765   7.040   3.512   1.673  0.6792  1.8891  2.1742
    9CHTO    O2 3766   6.720   3.847   1.792 -0.5777  0.3095 -0.1625
    9CHTO    C1 3767   6.582   3.821   1.819 -0.1374 -0.0375  0.2984
    9CHTO   H14 3768   6.577   3.723   1.872  1.9797 -1.0182 -1.2480
    9CHTO    C2 3769   6.492   3.810   1.685  0.7386 -0.2304 -0.1623
    9CHTO   H15 3770   6.498   3.906   1.630  0.9425 -0.7461 -1.0510
    9CHTO    O6 3771   6.542   3.705   1.601  0.9513  0.8593  0.4246
    9CHTO    H1 3772   6.621   3.732   1.559  0.6929 -0.4945 -0.9949
    9CHTO    C3 3773   6.335   3.786   1.730 -0.2397  1.0146 -0.3208
    9CHTO   H16 3774   6.326   3.690   1.783 -0.9095  2.9703  3.2394
    9CHTO    N1 3775   6.248   3.782   1.603 -0.4790 -0.6821 -0.4292
    9CHTO    H8 3776   6.156   3.727   1.615  0.3293 -1.6178  1.7009
    9CHTO    H9 3777   6.219   3.875   1.557 -0.2367  0.0111  0.7725
    9CHTO    C4 3778   6.288   3.893   1.836  0.2947  0.3679 -0.3596
    9CHTO   H17 3779   6.275   3.989   1.785 -1.2691 -0.3491 -1.3361
    9CHTO    O1 3780   6.387   3.912   1.937 -0.1443 -0.1511  0.2647
    9CHTO    C5 3781   6.526   3.937   1.906  0.0949  0.1917 -0.2495
    9CHTO   H18 3782   6.527   4.033   1.854  3.1913 -0.5222 -1.6187
    9CHTO   C16 3783   6.594   3.936   2.045  0.1695 -0.1367  0.3148
    9CHTO   O11 3784   6.729   3.983   2.052  0.6930 -0.0563 -0.1573
    9CHTO    H5 3785   6.749   4.040   2.124  3.1563 -0.7599 -0.2315
    9CHTO    O3 3786   6.176   3.843   1.916 -0.2259 -1.0734 -0.6796
    9CHTO    C6 3787   6.079   3.943   1.922 -0.3172  0.6468 -0.3656
    9CHTO   H19 3788   6.097   4.023   1.850  4.4244  0.5850  0.5729
    9CHTO    C8 3789   5.946   3.870   1.877 -0.2000 -0.0088 -0.5150
    9CHTO   H21 3790   5.929   3.786   1.945 -1.8798  1.0138  0.3713
    9CHTO    O7 3791   5.949   3.822   1.743 -0.4074 -0.6049  0.2866
    9CHTO    H2 3792   6.007   3.749   1.732 -0.0328 -0.5300  1.7135
    9CHTO   C12 3793   5.824   3.966   1.902  0.2799 -0.6431 -0.2118
    9CHTO   H25 3794   5.839   4.047   1.828  0.5811 -2.0482 -1.7334
    9CHTO    N3 3795   5.695   3.903   1.873 -0.3879 -0.4300  0.0904
    9CHTO   H12 3796   5.612   3.967   1.899 -0.2269 -0.3663  0.4461
    9CHTO   H13 3797   5.690   3.874   1.769  0.0565 -0.3730  0.0515
    9CHTO   C15 3798   5.835   4.022   2.047 -0.2661 -0.1462 -0.3936
    9CHTO   H28 3799   5.832   3.950   2.128 -2.3223  0.6828  0.2844
    9CHTO   O10 3800   5.740   4.143   2.080 -0.0050  0.1569  0.2372
    9CHTO    H4 3801   5.731   4.162   2.172 -0.6288 -1.5675  0.5586
    9CHTO    O5 3802   5.955   4.091   2.063  0.1826  0.2616  0.4645
    9CHTO   C10 3803   6.067   4.005   2.067  0.2208 -0.3860  0.1190
    9CHTO   H23 3804   6.058   3.919   2.134 -2.3384 -0.7260 -0.6114
    9CHTO   C17 3805   6.187   4.088   2.111 -0.0630 -0.6526 -0.0307
    9CHTO   O12 3806   6.217   4.202   2.025 -0.3447 -0.1813  1.1557
    9CHTO    H6 3807   6.299   4.199   1.981  0.3938  3.1768  2.0808
   10CHTO  H203 3808   5.450   6.365  -0.882  0.5593 -1.6033  0.2806
   10CHTO   O82 3809   5.380   6.320  -0.838 -0.3271 -0.2133  0.2950
   10CHTO  C123 3810   5.252   6.382  -0.871  0.0068  0.0347  0.1885
   10CHTO  H227 3811   5.236   6.388  -0.979 -0.7531  0.8721  0.3520
   10CHTO   O77 3812   5.154   6.294  -0.804 -1.0035  0.2136 -0.1759
   10CHTO  C118 3813   5.019   6.335  -0.819 -0.5515  0.8578 -0.2156
   10CHTO  H222 3814   4.992   6.345  -0.925  1.1332  1.4698 -0.6001
   10CHTO  C125 3815   4.926   6.226  -0.756 -0.2375 -0.2362  0.1644
   10CHTO   O84 3816   4.924   6.118  -0.853  0.0775 -1.1405 -0.2143
   10CHTO  H205 3817   4.858   6.132  -0.918  0.5192 -2.4911 -0.9665
   10CHTO  C114 3818   4.994   6.465  -0.737 -0.1815  0.3159 -0.1001
   10CHTO  H218 3819   5.018   6.450  -0.632 -1.2583 -2.7236 -0.2364
   10CHTO  C116 3820   5.085   6.570  -0.803 -0.2099  0.9413 -0.1827
   10CHTO  H220 3821   5.042   6.594  -0.903 -2.1454  0.7265  0.5901
   10CHTO   O79 3822   5.074   6.692  -0.729 -0.5598 -0.0105  0.2075
   10CHTO  H201 3823   5.148   6.748  -0.742  1.1353 -2.3164 -0.5272
   10CHTO  C120 3824   5.235   6.526  -0.810 -0.1548  0.1706 -0.0700
   10CHTO  H224 3825   5.275   6.528  -0.707  0.4166  1.5731 -0.3073
   10CHTO   N21 3826   5.320   6.625  -0.873  0.1655  0.4387  0.4010
   10CHTO  H211 3827   5.422   6.615  -0.839  1.0752  0.8002 -2.1316
   10CHTO  H212 3828   5.320   6.629  -0.981  1.3441  1.2136  0.4135
   10CHTO   O75 3829   4.851   6.504  -0.748  0.0410  0.0214  0.4923
   10CHTO  C112 3830   4.763   6.542  -0.608  0.2557 -0.2566  0.3172
   10CHTO  H216 3831   4.831   6.598  -0.542 -0.2716 -1.7458  2.1704
   10CHTO   O73 3832   4.724   6.421  -0.545  0.2893 -0.2172 -0.4185
   10CHTO  C113 3833   4.649   6.441  -0.424 -0.6756  0.3517  0.5814
   10CHTO  H217 3834   4.711   6.495  -0.349 -2.8938  0.3604  2.4643
   10CHTO  C124 3835   4.618   6.303  -0.365  0.1613  0.2126  0.0881
   10CHTO   O83 3836   4.736   6.224  -0.338 -0.3049 -0.3095 -0.5162
   10CHTO  H204 3837   4.710   6.136  -0.319 -0.0659 -0.1867  0.4358
   10CHTO  C109 3838   4.526   6.535  -0.433  0.7378 -0.3922  0.1293
   10CHTO  H213 3839   4.454   6.483  -0.499 -0.0967 -0.0467  0.7549
   10CHTO  C110 3840   4.559   6.663  -0.503  0.1635 -0.3878 -0.0409
   10CHTO  H214 3841   4.610   6.721  -0.426  0.1382  2.9585 -2.4600
   10CHTO   O78 3842   4.431   6.735  -0.529 -0.2748  0.5521 -0.8343
   10CHTO  H200 3843   4.363   6.679  -0.562 -1.0705  1.7151 -1.2085
   10CHTO  C111 3844   4.643   6.641  -0.634  0.0549  0.0591 -0.3303
   10CHTO  H215 3845   4.579   6.603  -0.715  2.1795 -1.2373 -1.4351
   10CHTO   N19 3846   4.699   6.767  -0.692 -0.1563  0.2216  0.1401
   10CHTO  H207 3847   4.680   6.775  -0.798 -0.3136 -2.5913 -0.0742
   10CHTO  H208 3848   4.701   6.856  -0.630 -1.9256 -0.1158  0.7011
   10CHTO   O74 3849   4.462   6.554  -0.308  0.0713  0.1195  0.0786
   10CHTO  C115 3850   4.302   6.535  -0.313 -0.6856  0.2243 -0.7156
   10CHTO  H219 3851   4.257   6.571  -0.405 -1.1389 -1.1476 -1.0398
   10CHTO   O76 3852   4.266   6.376  -0.314 -0.1760  0.0877 -0.0310
   10CHTO  C122 3853   4.274   6.306  -0.194  0.3409 -0.1115 -0.1987
   10CHTO  H226 3854   4.381   6.310  -0.174  0.7121 -2.1049 -1.5982
   10CHTO  C126 3855   4.243   6.151  -0.196 -0.3237 -0.2640 -0.3359
   10CHTO   O85 3856   4.266   6.110  -0.064  0.3006  0.4474  0.2851
   10CHTO  H206 3857   4.274   6.017  -0.057  1.7715  0.6012  0.7981
   10CHTO  C121 3858   4.206   6.384  -0.072  0.0588 -0.2522  0.2469
   10CHTO  H225 3859   4.133   6.320  -0.018 -2.5780  1.4741 -1.1412
   10CHTO   O81 3860   4.298   6.411   0.030  0.5232  0.3109  0.6659
   10CHTO  H202 3861   4.375   6.357   0.027  0.2331 -0.1236  0.8980
   10CHTO  C119 3862   4.131   6.516  -0.113 -0.2720  0.9517  0.5249
   10CHTO  H223 3863   4.047   6.486  -0.175 -1.5461  2.8610  1.2674
   10CHTO  C117 3864   4.238   6.611  -0.186  0.2107 -0.4109 -0.1062
   10CHTO  H221 3865   4.322   6.636  -0.122 -0.0417  1.6778 -0.5695
   10CHTO   N20 3866   4.171   6.741  -0.226 -0.0456  0.2279  0.2203
   10CHTO  H209 3867   4.070   6.719  -0.259  0.4688 -2.7178  0.4649
   10CHTO  H210 3868   4.231   6.783  -0.305  0.2316 -1.0418 -0.2733
   10CHTO   O80 3869   4.047   6.584   0.005  0.2197  0.1796 -0.2041
   10CHTO  C103 3870   3.880   6.548   0.025 -0.7267  0.2916  0.0038
   10CHTO  H190 3871   3.825   6.631   0.070 -2.2712 -0.3996 -0.5592
   10CHTO  C101 3872   3.799   6.510  -0.103 -0.1752  0.0223 -0.4541
   10CHTO  H188 3873   3.847   6.428  -0.155  0.6302  1.2499 -1.6707
   10CHTO   O68 3874   3.797   6.625  -0.198 -0.3150 -0.0081  0.0160
   10CHTO  H168 3875   3.773   6.709  -0.164  0.3726  0.1679  0.0752
   10CHTO   C99 3876   3.646   6.477  -0.053  1.0473  0.2503 -0.2593
   10CHTO  H186 3877   3.599   6.570  -0.013  1.1615 -0.5138  1.7378
   10CHTO   N17 3878   3.553   6.424  -0.166  0.4411  0.5258 -0.1567
   10CHTO  H174 3879   3.599   6.416  -0.263  1.4202 -0.8028  0.4111
   10CHTO  H175 3880   3.458   6.476  -0.166 -0.0675 -0.3792  0.9387
   10CHTO   C97 3881   3.646   6.376   0.071  0.3588 -0.4240  0.3755
   10CHTO  H184 3882   3.669   6.277   0.029 -0.0295  0.0419 -0.9424
   10CHTO   O64 3883   3.740   6.411   0.172 -0.0806  0.1430 -0.3054
   10CHTO  C104 3884   3.880   6.421   0.120  0.0959  0.0407 -0.1177
   10CHTO  H191 3885   3.924   6.338   0.066 -2.6150 -0.7204 -1.2563
   10CHTO  C108 3886   3.969   6.457   0.243  0.2495  0.4837  0.0213
   10CHTO   O71 3887   3.999   6.344   0.323  0.5450 -0.4018 -0.2080
   10CHTO  H171 3888   4.041   6.385   0.396 -0.4500  0.4030 -0.0654
   10CHTO   O62 3889   3.523   6.387   0.138  0.1778 -0.0961  0.0974
   10CHTO   C91 3890   3.435   6.272   0.148  0.0049  0.6874  0.2443
   10CHTO  H178 3891   3.439   6.219   0.053  0.0397  0.8199  0.1727
   10CHTO   C92 3892   3.292   6.322   0.175 -0.6516  0.7788  0.3180
   10CHTO  H179 3893   3.266   6.409   0.113 -0.5552  0.3306 -0.3556
   10CHTO   O66 3894   3.211   6.209   0.129  0.7550 -0.2451  0.2958
   10CHTO  H166 3895   3.121   6.227   0.148  0.8040 -0.9619  1.2289
   10CHTO   C93 3896   3.257   6.346   0.328 -0.1712  0.6605 -0.5136
   10CHTO  H180 3897   3.150   6.319   0.333  0.3907 -1.4774  0.6589
   10CHTO   N16 3898   3.270   6.485   0.375 -0.4870  0.5556 -0.3261
   10CHTO  H172 3899   3.173   6.531   0.389 -0.6922  0.0185  0.0422
   10CHTO  H173 3900   3.322   6.530   0.292 -0.2553  0.6795 -0.1120
   10CHTO   C94 3901   3.341   6.245   0.425 -0.3463 -0.6810 -0.1936
   10CHTO  H181 3902   3.429   6.293   0.468 -0.7088  1.1248 -1.4286
   10CHTO   O61 3903   3.376   6.128   0.350 -0.0919  0.1331  0.1843
   10CHTO   C95 3904   3.473   6.153   0.251 -0.8931 -0.2774 -0.6148
   10CHTO  H182 3905   3.557   6.194   0.308 -2.0459 -0.7280  1.4308
   10CHTO  C106 3906   3.513   6.026   0.180  0.0225  0.2986  0.0575
   10CHTO   O69 3907   3.609   6.028   0.077  0.2495  0.2900 -0.3309
   10CHTO  H169 3908   3.688   6.050   0.123 -0.3922 -0.6257  1.2609
   10CHTO   O63 3909   3.260   6.193   0.546 -0.3926 -0.3288  0.1454
   10CHTO   C96 3910   3.339   6.119   0.657  0.7441  0.0003  0.7755
   10CHTO  H183 3911   3.446   6.110   0.641  0.5186 -1.3928 -0.0633
   10CHTO   C98 3912   3.289   5.973   0.688  0.2410 -0.0408  0.0845
   10CHTO  H185 3913   3.183   5.977   0.716 -0.0406  0.5986 -1.0716
   10CHTO   O67 3914   3.289   5.899   0.572 -0.0093  0.2420  0.0307
   10CHTO  H167 3915   3.340   5.937   0.503 -0.5665  0.0493 -0.4914
   10CHTO  C102 3916   3.373   5.910   0.809  0.1712  0.6831  0.3344
   10CHTO  H189 3917   3.477   5.887   0.779 -0.0045 -0.4886  0.5867
   10CHTO   N18 3918   3.321   5.779   0.856  0.1205 -0.0737 -0.0056
   10CHTO  H176 3919   3.400   5.719   0.898 -1.6733 -2.5916 -0.0727
   10CHTO  H177 3920   3.273   5.728   0.773 -0.7731  0.4209  0.1980
   10CHTO  C105 3921   3.365   6.012   0.925  0.0958  0.4591 -0.5820
   10CHTO  H192 3922   3.264   6.019   0.965  0.7007 -2.1002  1.4927
   10CHTO   O65 3923   3.401   6.141   0.891  0.4024 -0.4168  0.1200
   10CHTO  C100 3924   3.323   6.200   0.790 -0.4079  0.2119  0.3244
   10CHTO  H187 3925   3.215   6.211   0.807 -0.5164  0.4323 -0.4995
   10CHTO  C107 3926   3.369   6.349   0.795  0.1581  0.6281  0.1133
   10CHTO   O70 3927   3.511   6.363   0.780 -0.1550 -0.4728  0.1139
   10CHTO  H170 3928   3.541   6.451   0.791  0.3508 -0.6105 -0.1788
   10CHTO   O57 3929   3.472   5.964   1.035  0.1389 -0.4360  0.4656
   10CHTO   C85 3930   3.444   6.006   1.169 -0.0044 -1.1710 -0.0340
   10CHTO  H157 3931   3.335   5.990   1.183 -0.8527  3.8857  0.0717
   10CHTO   C83 3932   3.463   6.158   1.191  0.4926  0.0005 -0.3042
   10CHTO  H155 3933   3.398   6.212   1.122  0.2876 -1.6353 -1.4332
   10CHTO   O56 3934   3.599   6.189   1.143  0.1637 -0.3248  0.0840
   10CHTO  H135 3935   3.646   6.124   1.094  0.0030 -2.6386  2.8143
   10CHTO   C81 3936   3.421   6.201   1.339 -0.4376 -0.0480  0.0119
   10CHTO  H153 3937   3.314   6.182   1.346 -0.6829  0.1196 -2.6715
   10CHTO   N14 3938   3.430   6.351   1.361 -0.6569 -0.2195  0.1104
   10CHTO  H141 3939   3.379   6.409   1.287 -1.2965 -1.1059 -0.1524
   10CHTO  H142 3940   3.532   6.382   1.360 -0.7651  0.1210 -1.2398
   10CHTO   C79 3941   3.498   6.105   1.441 -0.1565  0.4773  0.2761
   10CHTO  H151 3942   3.446   6.115   1.537 -1.5499  0.1977 -0.4329
   10CHTO   O52 3943   3.484   5.962   1.402 -0.1471  0.0834  0.3216
   10CHTO   C86 3944   3.531   5.923   1.272  0.2803  1.1474 -0.4841
   10CHTO  H158 3945   3.637   5.955   1.285  0.3813 -0.3264  2.6988
   10CHTO   C90 3946   3.526   5.766   1.249 -0.2030  0.1315  0.9467
   10CHTO   O60 3947   3.643   5.699   1.305  0.5672 -0.3383 -0.0243
   10CHTO  H138 3948   3.632   5.607   1.319 -2.4424 -0.0772 -0.2368
   10CHTO   O50 3949   3.640   6.129   1.447 -0.3734 -0.3444 -0.7273
   10CHTO   C73 3950   3.739   6.087   1.539 -0.1167  0.6635  0.8182
   10CHTO  H145 3951   3.735   5.981   1.568  1.4590  0.2094 -0.6088
   10CHTO   C74 3952   3.716   6.156   1.681 -0.2205  0.1861 -0.1747
   10CHTO  H146 3953   3.610   6.136   1.705 -0.0809  0.8026  1.0239
   10CHTO   O54 3954   3.795   6.095   1.786  0.0048 -0.0856 -0.4250
   10CHTO  H133 3955   3.768   6.006   1.798 -0.1370 -0.1061 -0.9019
   10CHTO   C75 3956   3.741   6.313   1.665 -0.2151 -0.4126  0.3335
   10CHTO  H147 3957   3.658   6.355   1.606 -1.8825 -2.0194  1.4465
   10CHTO   N13 3958   3.713   6.395   1.790  0.1104  0.2808  0.3382
   10CHTO  H139 3959   3.713   6.335   1.880 -0.3896 -1.4156 -0.7593
   10CHTO  H140 3960   3.613   6.436   1.781 -0.0955  0.3188  2.3699
   10CHTO   C76 3961   3.889   6.346   1.608  0.1807  0.6035 -0.3238
   10CHTO  H148 3962   3.959   6.308   1.682 -0.1791 -1.6409 -1.0736
   10CHTO   O49 3963   3.905   6.270   1.484 -0.1293 -0.2951 -0.0131
   10CHTO   C77 3964   3.885   6.122   1.489  0.0228 -0.5767 -0.3141
   10CHTO  H149 3965   3.961   6.075   1.550 -1.2739 -0.2986  1.5580
   10CHTO   C88 3966   3.914   6.072   1.350  0.3970  1.1608 -0.4171
   10CHTO   O58 3967   3.942   5.923   1.334  0.5404 -0.6750  0.3992
   10CHTO  H136 3968   3.874   5.876   1.378  0.9771 -0.4672  1.2989
   10CHTO   O51 3969   3.901   6.514   1.576 -0.1030  0.5706 -0.5330
   10CHTO   C78 3970   4.030   6.578   1.618  0.0006 -0.0154 -0.3629
   10CHTO  H150 3971   4.115   6.508   1.605 -0.8997 -1.7212  2.5059
   10CHTO   C80 3972   4.027   6.621   1.766 -0.5303 -0.3302 -0.1533
   10CHTO  H152 3973   3.936   6.679   1.788 -0.3419 -0.4569  1.0077
   10CHTO   O55 3974   4.008   6.502   1.842 -0.2791  0.3478 -0.5604
   10CHTO  H134 3975   3.998   6.521   1.933  0.3996  0.3278 -0.4759
   10CHTO   C84 3976   4.159   6.694   1.815 -0.4113 -0.3600  0.2343
   10CHTO  H156 3977   4.235   6.618   1.833  1.2343  1.4004  0.9832
   10CHTO   N15 3978   4.153   6.751   1.950 -0.1090 -0.0049 -0.6342
   10CHTO  H143 3979   4.218   6.834   1.968 -0.0447 -0.0751 -0.5364
   10CHTO  H144 3980   4.157   6.685   2.034  0.7429  1.5732  0.5943
   10CHTO   C87 3981   4.211   6.803   1.712 -0.4322  0.0355 -0.7248
   10CHTO  H159 3982   4.151   6.893   1.721 -0.4400 -0.0902  0.5555
   10CHTO   O53 3983   4.200   6.748   1.571  0.4193 -0.2252 -0.0369
   10CHTO   C82 3984   4.079   6.695   1.533  0.1540  0.3157 -0.0820
   10CHTO  H154 3985   4.007   6.777   1.541 -0.7918 -0.2664 -2.3334
   10CHTO   C89 3986   4.075   6.644   1.385  0.3683  0.0766  1.0445
   10CHTO   O59 3987   4.094   6.748   1.285  0.4146  0.3317 -0.2985
   10CHTO  H137 3988   4.010   6.770   1.250 -0.3287 -1.6232  0.2040
   10CHTO   O45 3989   4.371   6.822   1.733 -0.5982 -0.3083 -0.7419
   10CHTO   C67 3990   4.414   6.956   1.699  0.7760  0.1070  0.1709
   10CHTO  H124 3991   4.348   6.999   1.624 -0.5240 -1.1296  0.5829
   10CHTO   C65 3992   4.401   7.047   1.824 -0.1357  0.2985  0.7569
   10CHTO  H122 3993   4.423   6.993   1.915  1.7552  2.8419  1.8645
   10CHTO   O44 3994   4.260   7.089   1.820  0.4869  0.4602  0.5741
   10CHTO  H102 3995   4.203   7.035   1.872  0.2245 -0.6624 -0.8580
   10CHTO   C63 3996   4.512   7.157   1.835  0.2099  1.1939 -0.4191
   10CHTO  H120 3997   4.605   7.106   1.863 -1.7957 -2.2785  0.2276
   10CHTO   N11 3998   4.495   7.260   1.948  1.0504 -0.3244 -0.1964
   10CHTO  H108 3999   4.491   7.359   1.908  0.3457  0.0628  0.8382
   10CHTO  H109 4000   4.418   7.228   2.015  0.4311  1.2559 -0.1442
   10CHTO   C61 4001   4.536   7.209   1.694  0.4572 -0.1047 -0.1450
   10CHTO  H118 4002   4.618   7.283   1.701  1.0207 -0.5792 -1.5769
   10CHTO   O40 4003   4.579   7.102   1.590 -0.9656  0.0244  0.1489
   10CHTO   C68 4004   4.556   6.965   1.634 -0.3946 -0.2493 -0.0400
   10CHTO  H125 4005   4.638   6.938   1.704 -0.3948 -1.0152 -0.3306
   10CHTO   C72 4006   4.566   6.873   1.510  0.4355 -0.4005  0.8058
   10CHTO   O48 4007   4.702   6.856   1.476 -0.2925 -0.5296  0.4179
   10CHTO  H105 4008   4.713   6.775   1.429 -1.0493  0.1653 -1.0025
   10CHTO   O38 4009   4.421   7.273   1.645  0.1361 -0.5115 -0.2411
   10CHTO   C55 4010   4.420   7.382   1.547  0.0539 -0.3624 -0.4943
   10CHTO  H112 4011   4.331   7.362   1.486 -0.0455 -0.4415 -0.3248
   10CHTO   C56 4012   4.551   7.390   1.457  0.3417 -0.9230 -0.4266
   10CHTO  H113 4013   4.638   7.364   1.518  0.0769  0.7861  0.7140
   10CHTO   O42 4014   4.550   7.278   1.371 -0.2892 -0.3043 -0.9439
   10CHTO  H100 4015   4.467   7.277   1.327 -1.6875  0.6117  1.5958
   10CHTO   C57 4016   4.565   7.525   1.374  0.1309  0.5707 -0.3806
   10CHTO  H114 4017   4.501   7.525   1.286  1.1352  0.3697 -1.1139
   10CHTO   N10 4018   4.699   7.540   1.316  0.0932 -1.1329 -0.7342
   10CHTO  H106 4019   4.696   7.529   1.209 -1.3347 -0.4019 -0.7820
   10CHTO  H107 4020   4.749   7.634   1.337 -1.1667 -0.3231 -1.3125
   10CHTO   C58 4021   4.531   7.642   1.463 -0.1222 -0.3093  0.2556
   10CHTO  H115 4022   4.610   7.660   1.539  0.5977 -0.0593 -0.5382
   10CHTO   O37 4023   4.400   7.627   1.518  0.1418  0.1657  0.1679
   10CHTO   C59 4024   4.395   7.522   1.619 -0.4499  1.0317 -0.3562
   10CHTO  H116 4025   4.472   7.536   1.695  1.6538  0.7467 -2.3738
   10CHTO   C70 4026   4.259   7.530   1.680  0.6113 -0.0522 -0.9069
   10CHTO   O46 4027   4.236   7.655   1.746  0.0286 -0.3178 -0.1719
   10CHTO  H103 4028   4.292   7.680   1.818 -1.1154  0.1574  0.5607
   10CHTO   O39 4029   4.531   7.782   1.376  0.3397  0.8380  0.4578
   10CHTO   C60 4030   4.550   7.907   1.443  1.0349  0.3334  0.1512
   10CHTO  H117 4031   4.524   7.977   1.364  0.4024  0.8049  0.7724
   10CHTO   C62 4032   4.461   7.922   1.572  0.1890 -0.3707 -0.5069
   10CHTO  H119 4033   4.360   7.881   1.549 -0.1322 -0.7908  1.5863
   10CHTO   O43 4034   4.488   7.852   1.688  0.4682  0.1382  0.0156
   10CHTO  H101 4035   4.479   7.759   1.692 -4.1074  0.3896 -2.0477
   10CHTO   C66 4036   4.447   8.079   1.598  0.1151 -0.1443 -0.3877
   10CHTO  H123 4037   4.427   8.136   1.507 -0.6063  0.1641 -0.0365
   10CHTO   N12 4038   4.339   8.116   1.686  0.6682  0.3823  0.4011
   10CHTO  H110 4039   4.246   8.093   1.636 -0.2496 -2.2945  3.1952
   10CHTO  H111 4040   4.352   8.067   1.781 -0.0476 -0.3155  0.1435
   10CHTO   C69 4041   4.592   8.123   1.646 -0.3961 -0.0818 -0.1819
   10CHTO  H126 4042   4.613   8.075   1.744  1.6069 -0.0984 -0.6137
   10CHTO   O41 4043   4.703   8.089   1.546 -0.4879  0.3368 -0.9869
   10CHTO   C64 4044   4.697   7.943   1.487  0.6380 -0.5729  0.5554
   10CHTO  H121 4045   4.731   7.866   1.560 -1.6173 -0.3702  1.8561
   10CHTO   C71 4046   4.806   7.927   1.378 -0.3907  0.7682 -0.4545
   10CHTO   O47 4047   4.935   7.917   1.430 -0.3194 -0.0316  0.1713
   10CHTO  H104 4048   4.964   8.006   1.437 -0.0524  0.1544 -2.6103
   10CHTO   O34 4049   4.595   8.268   1.670 -0.2529 -1.2007  0.2303
   10CHTO   C49 4050   4.647   8.409   1.597  0.0975  0.0738  0.1760
   10CHTO   H91 4051   4.754   8.398   1.580  0.2595  1.0188  0.5438
   10CHTO   C47 4052   4.633   8.531   1.690  0.3087 -0.3048  0.1871
   10CHTO   H89 4053   4.676   8.619   1.637  0.8208 -0.9475 -0.4787
   10CHTO   O33 4054   4.711   8.508   1.807  0.8499  0.1846  0.1881
   10CHTO   H70 4055   4.739   8.591   1.841  1.2219  0.8354 -1.6394
   10CHTO   C45 4056   4.483   8.563   1.711  0.1168 -0.0564  0.1142
   10CHTO   H87 4057   4.435   8.469   1.741 -2.2271  0.6096 -1.3356
   10CHTO    N8 4058   4.449   8.664   1.813  0.6087 -0.1092 -0.6957
   10CHTO   H75 4059   4.511   8.752   1.806  2.9848 -1.7212 -0.2915
   10CHTO   H76 4060   4.457   8.626   1.913 -2.1748 -1.0098 -0.7524
   10CHTO   C43 4061   4.426   8.606   1.571 -0.6915 -0.0086  0.0871
   10CHTO   H85 4062   4.319   8.629   1.575 -0.2741  1.9649 -0.0155
   10CHTO   O29 4063   4.449   8.490   1.481  0.0038 -0.1820 -0.2775
   10CHTO   C50 4064   4.578   8.433   1.461 -0.2996 -0.0605  0.2988
   10CHTO   H92 4065   4.557   8.336   1.414 -1.4042  0.2034  0.2208
   10CHTO   C54 4066   4.658   8.516   1.357  0.0510 -1.0718 -0.0509
   10CHTO   O36 4067   4.590   8.490   1.236 -0.6473 -0.3294 -0.0818
   10CHTO   H72 4068   4.635   8.427   1.184 -0.6666 -0.5829  0.2115
   10CHTO   O27 4069   4.488   8.719   1.512 -0.5338 -0.3838 -0.2080
   10CHTO   C37 4070   4.465   8.845   1.453 -0.3143  0.4743 -0.0639
   10CHTO   H79 4071   4.538   8.854   1.372 -0.2842  0.3576 -0.0493
   10CHTO   C38 4072   4.322   8.849   1.395 -0.1003  0.7050  0.0288
   10CHTO   H80 4073   4.257   8.824   1.479 -0.6307 -1.7117 -1.0435
   10CHTO   O31 4074   4.303   8.748   1.294  0.2525 -0.1254 -0.2638
   10CHTO   H68 4075   4.269   8.671   1.336 -1.9309  1.2467  0.5206
   10CHTO   C39 4076   4.302   8.998   1.333 -0.3990 -0.2986 -0.0338
   10CHTO   H81 4077   4.365   9.010   1.246 -0.5859 -0.7204 -0.2270
   10CHTO    N7 4078   4.163   9.023   1.277  0.5243  0.1130 -0.2132
   10CHTO   H73 4079   4.094   9.024   1.360 -1.2412  0.2956 -1.6574
   10CHTO   H74 4080   4.137   8.948   1.203 -0.2465 -0.8736  1.0399
   10CHTO   C40 4081   4.342   9.110   1.426 -0.4420  0.2647  0.2478
   10CHTO   H82 4082   4.273   9.122   1.510  0.0314  1.3194  0.5013
   10CHTO   O26 4083   4.479   9.085   1.471 -0.0419 -0.5348 -0.4976
   10CHTO   C41 4084   4.493   8.965   1.553 -0.3398 -0.0391  0.1192
   10CHTO   H83 4085   4.422   8.967   1.636  0.3468  2.5780  0.7056
   10CHTO   C52 4086   4.633   8.964   1.603 -0.2924 -0.1047  0.0139
   10CHTO   O35 4087   4.668   9.070   1.700  0.1192 -0.2750 -0.7409
   10CHTO   H71 4088   4.671   9.037   1.788 -0.4149 -1.1850 -1.0522
   10CHTO   O28 4089   4.360   9.241   1.371  0.0498 -0.0231 -0.1716
   10CHTO   C42 4090   4.323   9.369   1.430 -0.8716 -0.4306 -0.2850
   10CHTO   H84 4091   4.287   9.350   1.531  3.2792 -3.6042  0.7563
   10CHTO   C44 4092   4.206   9.452   1.356  0.4220 -0.3321  0.9887
   10CHTO   H86 4093   4.248   9.492   1.264 -3.7051  0.9189 -0.4728
   10CHTO   O32 4094   4.093   9.367   1.334  0.2659  0.4355 -0.3176
   10CHTO   H69 4095   4.046   9.359   1.415  2.4914  1.3017  1.1294
   10CHTO   C48 4096   4.167   9.585   1.431  0.0669 -1.2224 -0.5088
   10CHTO   H90 4097   4.118   9.562   1.526  1.3400  0.5952  0.6164
   10CHTO    N9 4098   4.054   9.671   1.364 -0.3808  0.9896  0.1431
   10CHTO   H77 4099   4.002   9.611   1.290  1.7719 -1.0393  0.2057
   10CHTO   H78 4100   4.072   9.769   1.322  1.5628  0.1971 -0.9214
   10CHTO   C51 4101   4.291   9.680   1.453 -0.2191  0.1380 -0.1343
   10CHTO   H93 4102   4.329   9.715   1.357 -0.2756 -0.1468 -0.2606
   10CHTO   O30 4103   4.383   9.599   1.521  0.4471 -0.0149 -0.0334
   10CHTO   C46 4104   4.440   9.468   1.449 -0.5025 -0.3811 -0.2616
   10CHTO   H88 4105   4.483   9.486   1.351  0.1753  0.2461  0.1488
   10CHTO   C53 4106   4.543   9.410   1.547  0.3951 -0.0890 -0.3440
   10CHTO   O72 4107   4.659   9.493   1.566 -0.1460 -0.3871  0.7002
   10CHTO  H199 4108   4.694   9.493   1.653  0.5433  0.9887  0.4357
   10CHTO   O22 4109   4.259   9.792   1.535 -0.1415  0.1433  0.4085
   10CHTO   C31 4110   4.336   9.916   1.538  0.5332 -0.1093  0.0974
   10CHTO   H59 4111   4.278   9.987   1.602  0.7088  1.1148 -1.0753
   10CHTO   C29 4112   4.477   9.901   1.602  0.6832  0.6529 -0.4651
   10CHTO   H57 4113   4.534   9.827   1.544 -0.8968 -1.4513  0.5515
   10CHTO   O21 4114   4.459   9.834   1.731  0.0713  0.1983 -0.3541
   10CHTO   H37 4115   4.540   9.792   1.755  0.2215  1.2214  0.9972
   10CHTO   C27 4116   4.558  10.038   1.610  0.5341  0.7775  0.7696
   10CHTO   H55 4117   4.507  10.103   1.682 -1.4900  0.3912 -0.2767
   10CHTO    N5 4118   4.694  10.009   1.668  0.2934  0.1450  0.4637
   10CHTO   H43 4119   4.732   9.928   1.607  0.3245  0.3760  0.1729
   10CHTO   H44 4120   4.753  10.099   1.662  0.9882 -0.3430 -0.2670
   10CHTO   C25 4121   4.562  10.106   1.466  0.1162 -0.3400  0.1425
   10CHTO   H53 4122   4.639  10.046   1.415 -1.8178 -2.1340 -0.6875
   10CHTO   O17 4123   4.434  10.112   1.396  0.0571 -0.4027  0.0394
   10CHTO   C32 4124   4.353   9.993   1.400 -0.2001 -0.1378  0.5821
   10CHTO   H60 4125   4.407   9.923   1.337 -1.8162 -0.9965  0.1367
   10CHTO   C36 4126   4.211  10.017   1.336 -0.5610  0.1715  0.5476
   10CHTO   O25 4127   4.232  10.070   1.199  0.2811  0.1443 -0.9216
   10CHTO   H40 4128   4.248  10.001   1.138 -1.2396 -0.2783 -0.8761
   10CHTO   O15 4129   4.616  10.268   1.469 -0.1310 -0.1548  0.2021
   10CHTO   C19 4130   4.662  10.340   1.348  0.3438 -0.0613 -0.3720
   10CHTO   H47 4131   4.615  10.287   1.265 -0.7263  1.1283 -0.5385
   10CHTO   C20 4132   4.622  10.488   1.356  0.3175  0.3699  0.1340
   10CHTO   H48 4133   4.643  10.533   1.454  0.7970 -0.5332  0.4527
   10CHTO   O19 4134   4.479  10.490   1.348 -0.1672 -0.0656  0.0889
   10CHTO   H35 4135   4.433  10.572   1.349 -0.8586 -0.4406  2.7934
   10CHTO   C21 4136   4.673  10.583   1.235 -0.5162 -0.6081  0.6347
   10CHTO   H49 4137   4.614  10.574   1.144  0.0924  0.2695  0.1557
   10CHTO    N4 4138   4.663  10.732   1.258  0.1787 -0.0662 -0.3775
   10CHTO   H41 4139   4.718  10.780   1.178  0.4506  1.2389  0.5620
   10CHTO   H42 4140   4.707  10.764   1.352 -0.0926  1.3382 -0.7188
   10CHTO   C22 4141   4.821  10.536   1.198 -0.2981  0.7034 -0.0746
   10CHTO   H50 4142   4.891  10.597   1.255 -0.4057  2.8196 -2.1293
   10CHTO   O14 4143   4.848  10.393   1.208  0.2244  0.1426 -0.5710
   10CHTO   C23 4144   4.814  10.328   1.327  0.2064  0.0117  0.6745
   10CHTO   H51 4145   4.873  10.372   1.409  0.3456  1.0478  0.0206
   10CHTO   C34 4146   4.858  10.184   1.313 -0.0230  0.4217  0.0028
   10CHTO   O23 4147   4.997  10.182   1.277  0.3654  0.2150  0.3130
   10CHTO   H38 4148   5.032  10.095   1.285  1.9017  0.8240  0.4076
   10CHTO   O16 4149   4.836  10.563   1.055 -0.0898 -0.1111 -0.2995
   10CHTO   C24 4150   5.000  10.617   1.028  0.7453 -0.4828 -0.4115
   10CHTO   H52 4151   5.056  10.630   1.121  0.4944  0.1990 -0.3533
   10CHTO   C26 4152   5.001  10.750   0.971 -0.1687 -0.2777 -0.8129
   10CHTO   H54 4153   4.942  10.750   0.877 -0.2716  0.5667 -0.7515
   10CHTO   O20 4154   4.932  10.837   1.065  0.0633  0.0593 -0.2205
   10CHTO   H36 4155   4.840  10.837   1.046 -0.2972  0.3037  1.4235
   10CHTO   C30 4156   5.143  10.812   0.945  0.9965  0.2661 -0.4320
   10CHTO   H58 4157   5.199  10.832   1.038  0.4952  1.0404 -0.3007
   10CHTO    N6 4158   5.132  10.943   0.870  0.1518 -0.4621 -0.1913
   10CHTO   H45 4159   5.209  11.013   0.898  0.8001 -0.6992 -1.3366
   10CHTO   H46 4160   5.141  10.921   0.765  1.8540 -2.6632  0.3806
   10CHTO   C33 4161   5.219  10.700   0.869 -0.3894  0.4664 -0.0874
   10CHTO   H61 4162   5.179  10.690   0.767 -0.2409  0.8875 -0.1884
   10CHTO   O18 4163   5.215  10.572   0.936  0.2798  0.4202  0.1328
   10CHTO   C28 4164   5.082  10.519   0.945  0.3846 -0.2485  0.0508
   10CHTO   H56 4165   5.038  10.507   0.846  0.7332 -0.8571 -0.0386
   10CHTO   C35 4166   5.085  10.379   1.003 -0.3519 -0.2712  0.0077
   10CHTO   O24 4167   5.211  10.314   0.978 -0.0900  0.1324  0.4888
   10CHTO   H39 4168   5.274  10.380   0.999 -0.7481  0.7147  0.6611
   10CHTO    O9 4169   5.353  10.742   0.857  0.2388 -0.0136 -0.4629
   10CHTO   C13 4170   5.402  10.755   0.705  0.5991 -0.3675 -0.3831
   10CHTO   H26 4171   5.330  10.819   0.650  1.1613 -0.9038 -1.7808
   10CHTO   C11 4172   5.411  10.609   0.638  0.4800 -0.2476 -0.0970
   10CHTO   H24 4173   5.307  10.576   0.628  0.2863  0.4858 -0.5567
   10CHTO    O8 4174   5.470  10.511   0.727 -0.0991 -0.1110 -0.2067
   10CHTO    H3 4175   5.558  10.539   0.740 -1.2588  3.7063 -0.1093
   10CHTO    C9 4176   5.492  10.631   0.508 -0.0648 -0.0485  0.0370
   10CHTO   H22 4177   5.451  10.725   0.467 -2.9846 -0.6632  1.3636
   10CHTO    N2 4178   5.482  10.529   0.400  0.0097 -0.2123  0.1847
   10CHTO   H10 4179   5.536  10.556   0.310 -0.0675 -0.6708  0.0010
   10CHTO   H11 4180   5.385  10.485   0.388  0.7429 -1.3483 -1.8913
   10CHTO    C7 4181   5.639  10.663   0.554  0.7535  0.0022  0.1592
   10CHTO   H20 4182   5.682  10.705   0.460  0.5458 -0.1762 -0.0142
   10CHTO    O4 4183   5.653  10.749   0.666 -0.5477 -0.2297  0.1563
   10CHTO   C14 4184   5.540  10.835   0.693  0.2999  0.2409  0.3052
   10CHTO   H27 4185   5.528  10.902   0.605 -0.6541  0.0311  0.2711
   10CHTO   C18 4186   5.578  10.925   0.815 -0.6386 -0.3776  0.4879
   10CHTO   O13 4187   5.508  11.052   0.805  0.1543 -0.5809  0.1026
   10CHTO    H7 4188   5.536  11.108   0.735 -0.2644 -0.1512  0.2748
   10CHTO    O2 4189   5.714  10.534   0.575 -0.4526  0.7663  0.2193
   10CHTO    C1 4190   5.854  10.532   0.610 -0.8198 -0.4399 -0.2504
   10CHTO   H14 4191   5.884  10.611   0.682  0.3123 -0.5340 -0.6166
   10CHTO    C2 4192   5.937  10.554   0.484 -0.0383  1.3901  0.1837
   10CHTO   H15 4193   5.886  10.491   0.409  1.5259  0.8834 -0.4871
   10CHTO    O6 4194   5.931  10.693   0.458 -0.0775 -0.0637  0.5587
   10CHTO    H1 4195   6.010  10.741   0.472  0.6220 -1.2724  0.9066
   10CHTO    C3 4196   6.082  10.498   0.505  0.3700  0.1432 -0.3600
   10CHTO   H16 4197   6.128  10.568   0.575 -3.0984  2.8446 -0.6322
   10CHTO    N1 4198   6.166  10.518   0.381  0.1463  0.3176 -0.1383
   10CHTO    H8 4199   6.191  10.421   0.342 -0.1736 -0.3848  1.3575
   10CHTO    H9 4200   6.128  10.583   0.304  1.2972  1.6757  0.4155
   10CHTO    C4 4201   6.086  10.361   0.570 -0.8593  0.2690 -0.2435
   10CHTO   H17 4202   6.046  10.283   0.504 -0.9509  0.2418 -0.1565
   10CHTO    O1 4203   6.007  10.362   0.692 -0.3670 -0.6536 -0.5021
   10CHTO    C5 4204   5.870  10.390   0.676  0.0359 -0.1059 -0.1508
   10CHTO   H18 4205   5.821  10.317   0.611  0.5649  0.8911 -1.6947
   10CHTO   C16 4206   5.806  10.385   0.813  0.2911 -0.1228 -0.1485
   10CHTO   O11 4207   5.821  10.256   0.875  0.0125  0.0586  0.5755
   10CHTO    H5 4208   5.742  10.208   0.856 -0.2004  0.4789  0.4123
   10CHTO    O3 4209   6.219  10.337   0.621 -0.3672 -0.3314  0.9292
   10CHTO    C6 4210   6.250  10.198   0.612  0.4272 -0.1634  0.3539
   10CHTO   H19 4211   6.157  10.142   0.605  0.4035 -0.1662  0.7222
   10CHTO    C8 4212   6.341  10.181   0.484  0.4925 -1.3674  0.0695
   10CHTO   H21 4213   6.418  10.258   0.485 -0.1574 -0.7170 -0.5453
   10CHTO    O7 4214   6.271  10.207   0.364  0.3338 -0.2528 -0.8490
   10CHTO    H2 4215   6.205  10.145   0.340  0.2930 -0.0364 -1.3111
   10CHTO   C12 4216   6.410  10.038   0.478 -0.4223  0.0130 -0.3682
   10CHTO   H25 4217   6.325   9.969   0.464 -0.9595  0.6214 -0.1147
   10CHTO    N3 4218   6.514  10.027   0.359 -0.8358  0.3496 -0.3653
   10CHTO   H12 4219   6.607  10.072   0.391 -1.1861  1.1945 -0.5430
   10CHTO   H13 4220   6.469  10.064   0.269 -0.1207  2.5384  0.1459
   10CHTO   C15 4221   6.468  10.003   0.616  0.2270  0.0082  0.1504
   10CHTO   H28 4222   6.551  10.067   0.647  0.5136 -0.0267 -0.5440
   10CHTO   O10 4223   6.508   9.855   0.636 -0.4814 -0.0709  0.3904
   10CHTO    H4 4224   6.589   9.829   0.596  0.7696 -0.1296  2.8926
   10CHTO    O5 4225   6.366  10.012   0.718  0.0106 -0.0387  0.1147
   10CHTO   C10 4226   6.314  10.148   0.737  0.0462  0.1720 -0.0422
   10CHTO   H23 4227   6.395  10.217   0.758  0.6255 -0.5256  0.0109
   10CHTO   C17 4228   6.217  10.152   0.864  1.0464 -0.0507 -0.6175
   10CHTO   O12 4229   6.282  10.130   0.992 -0.1000 -0.4813  0.0703
   10CHTO    H6 4230   6.223  10.145   1.063  1.9630 -0.4967  1.8330
   11CHTO  H203 4231   7.632   4.938  -0.371 -0.4127 -0.6425 -1.5891
   11CHTO   O82 4232   7.549   4.960  -0.333  0.5931 -0.1381  0.3512
   11CHTO  C123 4233   7.556   5.094  -0.282  0.0459  0.2945 -0.4810
   11CHTO  H227 4234   7.642   5.143  -0.329  2.0683 -3.5391 -0.9012
   11CHTO   O77 4235   7.426   5.154  -0.327  0.0302 -0.0571 -0.3004
   11CHTO  C118 4236   7.408   5.292  -0.286 -0.1460 -0.1705 -0.6685
   11CHTO  H222 4237   7.479   5.352  -0.346 -0.7324 -1.4958 -2.7505
   11CHTO  C125 4238   7.261   5.322  -0.341 -0.5691 -0.2294  0.0497
   11CHTO   O84 4239   7.261   5.335  -0.488  0.2053 -0.1759  0.2010
   11CHTO  H205 4240   7.193   5.396  -0.512 -0.5436 -0.8410  0.6076
   11CHTO  C114 4241   7.432   5.315  -0.134 -0.2423  0.2523 -0.5135
   11CHTO  H218 4242   7.351   5.272  -0.076  1.6050 -0.9101  1.2532
   11CHTO  C116 4243   7.565   5.244  -0.080 -0.2552  0.6620  0.0274
   11CHTO  H220 4244   7.654   5.293  -0.124 -0.2487  0.2684 -0.4003
   11CHTO   O79 4245   7.563   5.258   0.061  0.1072  0.1973 -0.5755
   11CHTO  H201 4246   7.530   5.180   0.102  0.3044  1.1920  1.5038
   11CHTO  C120 4247   7.563   5.096  -0.128  0.0408  0.0872 -1.0115
   11CHTO  H224 4248   7.474   5.049  -0.082  0.3012  0.4516 -0.1192
   11CHTO   N21 4249   7.691   5.028  -0.085  0.5004 -0.2269  0.2367
   11CHTO  H211 4250   7.688   4.921  -0.069  1.0454 -0.4771 -1.2386
   11CHTO  H212 4251   7.749   5.082  -0.012 -3.9408  1.6416  2.5587
   11CHTO   O75 4252   7.436   5.458  -0.127  0.1957  0.4438 -0.4491
   11CHTO  C112 4253   7.336   5.528  -0.015 -0.5892  0.2162  0.5572
   11CHTO  H216 4254   7.373   5.500   0.085 -0.3894 -0.4640  0.2951
   11CHTO   O73 4255   7.200   5.491  -0.041 -0.3618  0.1511  0.1498
   11CHTO  C113 4256   7.086   5.539   0.032 -0.5357 -0.0745 -0.4328
   11CHTO  H217 4257   7.088   5.497   0.135 -0.8774  1.3982  0.1844
   11CHTO  C124 4258   6.957   5.474  -0.031 -0.4165 -0.6296  0.5907
   11CHTO   O83 4259   6.941   5.503  -0.175  0.1666  0.5404 -0.1778
   11CHTO  H204 4260   6.981   5.586  -0.194 -1.2782  0.8684 -1.9533
   11CHTO  C109 4261   7.089   5.695   0.028 -0.4755 -0.1030 -0.2353
   11CHTO  H213 4262   7.069   5.719  -0.077 -0.8519 -2.3546 -0.7027
   11CHTO  C110 4263   7.230   5.751   0.065 -0.2415  0.0384 -0.0727
   11CHTO  H214 4264   7.248   5.725   0.169  1.5735  1.9185  0.1240
   11CHTO   O78 4265   7.224   5.889   0.055 -0.3285 -0.2454  0.3284
   11CHTO  H200 4266   7.199   5.934   0.134  2.1569  2.0931 -0.1078
   11CHTO  C111 4267   7.337   5.688  -0.031  0.3612  1.0519  0.1172
   11CHTO  H215 4268   7.317   5.717  -0.135 -0.5965  0.6985  0.1960
   11CHTO   N19 4269   7.473   5.740   0.002  0.7906  0.5935  0.7890
   11CHTO  H207 4270   7.515   5.712   0.098  0.6301 -0.1510  0.6441
   11CHTO  H208 4271   7.549   5.698  -0.062 -0.4574 -1.6361  0.7219
   11CHTO   O74 4272   6.982   5.742   0.117 -0.1842 -0.5497 -0.9693
   11CHTO  C115 4273   6.898   5.859   0.012  0.4674  0.0405 -0.1426
   11CHTO  H219 4274   6.954   5.877  -0.079  1.4779 -1.4557  0.1564
   11CHTO   O76 4275   6.770   5.801  -0.041 -0.1706 -0.1968 -0.8658
   11CHTO  C122 4276   6.682   5.771   0.071  0.1102  0.9329  0.4598
   11CHTO  H226 4277   6.720   5.687   0.129 -0.8658 -0.7016 -1.2161
   11CHTO  C126 4278   6.548   5.712   0.014 -1.1443  1.0177 -0.3724
   11CHTO   O85 4279   6.474   5.803  -0.068 -0.3999  0.3613  0.2566
   11CHTO  H206 4280   6.406   5.847  -0.021 -0.3035  2.5223 -1.5145
   11CHTO  C121 4281   6.646   5.894   0.171  0.5497 -0.6864 -0.8479
   11CHTO  H225 4282   6.536   5.902   0.168  0.4957 -0.6219  0.7456
   11CHTO   O81 4283   6.696   5.870   0.305 -0.0525 -0.1076 -0.2915
   11CHTO  H202 4284   6.712   5.950   0.352 -1.0902 -0.0666  0.0239
   11CHTO  C119 4285   6.713   6.018   0.110 -0.3876  0.4908  0.3864
   11CHTO  H223 4286   6.667   6.033   0.012 -0.6554 -1.3642  0.2120
   11CHTO  C117 4287   6.871   5.989   0.095  0.7053  0.2392 -0.1842
   11CHTO  H221 4288   6.934   5.986   0.184 -0.2139  1.7682  0.5520
   11CHTO   N20 4289   6.928   6.103   0.010 -0.5696  0.0342  0.0400
   11CHTO  H209 4290   6.883   6.110  -0.088  1.1295  0.1583 -0.7499
   11CHTO  H210 4291   7.029   6.080  -0.022  0.0218 -0.8757  2.4726
   11CHTO   O80 4292   6.661   6.151   0.191 -0.4003 -0.2432  0.2911
   11CHTO  C103 4293   6.716   6.180   0.340 -0.2307 -0.2661 -0.3432
   11CHTO  H190 4294   6.731   6.086   0.394 -2.0184  0.2285  1.0900
   11CHTO  C101 4295   6.850   6.272   0.354 -0.1153 -0.0833 -0.3515
   11CHTO  H188 4296   6.836   6.342   0.272  1.2682 -2.7845 -2.9735
   11CHTO   O68 4297   6.960   6.184   0.345  0.1601  0.2835  0.3107
   11CHTO  H168 4298   6.942   6.113   0.287  0.2759  0.1447  0.4452
   11CHTO   C99 4299   6.854   6.357   0.499 -0.0747 -1.1717 -0.4738
   11CHTO  H186 4300   6.872   6.270   0.567 -0.0131 -0.8512 -0.0764
   11CHTO   N17 4301   6.965   6.454   0.513  0.0733  0.7041  0.6112
   11CHTO  H174 4302   7.047   6.394   0.476  0.4998  2.0750 -0.6866
   11CHTO  H175 4303   6.951   6.532   0.440  0.0379 -2.1073 -2.5423
   11CHTO   C97 4304   6.715   6.411   0.526  0.1176  0.0408 -0.6088
   11CHTO  H184 4305   6.681   6.486   0.453  3.3839  1.2832 -0.9381
   11CHTO   O64 4306   6.628   6.302   0.529  0.0086  0.3071 -0.1936
   11CHTO  C104 4307   6.592   6.248   0.398 -0.5739  0.6442 -0.3069
   11CHTO  H191 4308   6.557   6.325   0.328 -2.5897  0.1297  0.1125
   11CHTO  C108 4309   6.476   6.152   0.422  0.3920 -0.0022  0.0057
   11CHTO   O71 4310   6.402   6.121   0.308 -0.0405 -0.7627 -0.0491
   11CHTO  H171 4311   6.357   6.043   0.336  1.1125 -0.3083  3.2294
   11CHTO   O62 4312   6.712   6.472   0.657  0.2664  0.2885 -0.2854
   11CHTO   C91 4313   6.604   6.564   0.677  0.4180 -0.0622  0.1804
   11CHTO  H178 4314   6.527   6.538   0.604  0.4777  0.7482 -0.1768
   11CHTO   C92 4315   6.656   6.704   0.652 -0.2487 -0.1454  0.1090
   11CHTO  H179 4316   6.752   6.711   0.706 -0.8710  3.4569  0.8947
   11CHTO   O66 4317   6.685   6.721   0.513  0.6909 -0.0222  0.1440
   11CHTO  H166 4318   6.630   6.659   0.470 -1.5792  1.3095  1.0704
   11CHTO   C93 4319   6.553   6.810   0.711  0.1202  0.5013  0.2389
   11CHTO  H180 4320   6.463   6.787   0.651 -0.4927 -1.6670  1.9150
   11CHTO   N16 4321   6.582   6.955   0.684 -0.2685  0.0118  0.5765
   11CHTO  H172 4322   6.684   6.983   0.705  0.2305 -2.2056  1.2595
   11CHTO  H173 4323   6.521   7.019   0.746 -1.6408  2.5287 -3.2245
   11CHTO   C94 4324   6.523   6.769   0.862 -0.4808 -0.7390  0.0548
   11CHTO  H181 4325   6.614   6.747   0.918 -1.4636 -0.4572  1.8125
   11CHTO   O61 4326   6.456   6.643   0.863  0.3700  0.5346 -0.1495
   11CHTO   C95 4327   6.542   6.537   0.823  0.1486 -0.8787 -0.4551
   11CHTO  H182 4328   6.621   6.529   0.898 -0.4002 -0.8729  0.1303
   11CHTO  C106 4329   6.456   6.406   0.841 -0.0083  0.0863  0.3584
   11CHTO   O69 4330   6.541   6.290   0.816 -0.2495  0.1729 -0.2076
   11CHTO  H169 4331   6.571   6.302   0.728  0.1092  3.2530  0.2944
   11CHTO   O63 4332   6.434   6.883   0.943  0.2818 -0.3816  0.0233
   11CHTO   C96 4333   6.445   6.873   1.084 -0.7297  0.2796  0.2409
   11CHTO  H183 4334   6.543   6.832   1.107 -0.4244  0.6120 -0.4540
   11CHTO   C98 4335   6.345   6.776   1.162  0.3231  0.1960 -0.1293
   11CHTO  H185 4336   6.243   6.813   1.149  0.4774  0.6256 -0.1184
   11CHTO   O67 4337   6.347   6.642   1.107  0.3606 -0.0954 -0.4760
   11CHTO  H167 4338   6.427   6.598   1.088 -0.5273 -0.8014 -2.7762
   11CHTO  C102 4339   6.385   6.777   1.324  0.0480 -0.7282  0.2561
   11CHTO  H189 4340   6.477   6.716   1.333  1.3323  1.1994  0.3764
   11CHTO   N18 4341   6.281   6.719   1.421 -0.1000  0.1254 -0.2288
   11CHTO  H176 4342   6.245   6.774   1.507  1.2193 -2.4919  2.0724
   11CHTO  H177 4343   6.306   6.621   1.457 -1.6085 -0.6688 -1.2988
   11CHTO  C105 4344   6.432   6.919   1.363 -0.3663  0.1181 -0.0344
   11CHTO  H192 4345   6.390   6.952   1.458  0.0451  1.3327 -0.2659
   11CHTO   O65 4346   6.400   7.026   1.277 -0.4435 -0.7323  0.0651
   11CHTO  C100 4347   6.439   7.022   1.139 -0.0196  0.1616 -0.0227
   11CHTO  H187 4348   6.358   7.082   1.094  0.0906  0.1219 -0.2711
   11CHTO  C107 4349   6.574   7.096   1.109 -0.9521 -0.5111  0.2219
   11CHTO   O70 4350   6.571   7.239   1.142 -0.2394  0.1170 -0.2226
   11CHTO  H170 4351   6.494   7.256   1.193 -0.1361 -3.0553  1.1211
   11CHTO   O57 4352   6.592   6.897   1.396  0.5658  0.3686 -0.2572
   11CHTO   C85 4353   6.645   6.956   1.520 -0.3982  0.5311 -1.0028
   11CHTO  H157 4354   6.557   6.967   1.586  0.5696 -1.8568  0.7776
   11CHTO   C83 4355   6.706   7.102   1.487  0.2758 -0.3898  0.0555
   11CHTO  H155 4356   6.619   7.157   1.453  0.1753 -2.1240 -2.7266
   11CHTO   O56 4357   6.795   7.098   1.367 -0.3287 -0.6334  0.3594
   11CHTO  H135 4358   6.881   7.075   1.396 -1.2744 -3.5043  1.1076
   11CHTO   C81 4359   6.753   7.164   1.622  0.3528  0.2010 -0.4167
   11CHTO  H153 4360   6.669   7.159   1.691 -0.0400  0.3195 -0.8790
   11CHTO   N14 4361   6.777   7.309   1.612  0.0764  0.0358  0.2339
   11CHTO  H141 4362   6.702   7.356   1.673  1.8256  1.2164  1.5361
   11CHTO  H142 4363   6.771   7.338   1.510 -2.1630 -0.7106  0.1237
   11CHTO   C79 4364   6.872   7.080   1.681  0.2550  0.0942 -0.1319
   11CHTO  H151 4365   6.886   7.117   1.783 -0.7308 -2.4207  0.9501
   11CHTO   O52 4366   6.835   6.933   1.691 -0.1933 -0.2353 -0.0812
   11CHTO   C86 4367   6.756   6.873   1.589 -0.6366 -0.1188  1.1146
   11CHTO  H158 4368   6.835   6.859   1.512 -2.5731  2.2885 -1.4236
   11CHTO   C90 4369   6.707   6.733   1.626  0.2709  0.1784  0.3371
   11CHTO   O60 4370   6.823   6.650   1.641  0.1284  0.2947  0.0356
   11CHTO  H138 4371   6.890   6.691   1.694  1.2074  0.7989 -1.6579
   11CHTO   O50 4372   6.991   7.101   1.604  0.7998 -0.5515 -0.2251
   11CHTO   C73 4373   7.129   7.068   1.634 -0.0600 -0.1891  0.6910
   11CHTO  H145 4374   7.129   6.977   1.696  2.2902  2.0346  4.0942
   11CHTO   C74 4375   7.210   7.183   1.712 -0.6454  0.3401  0.5364
   11CHTO  H146 4376   7.157   7.207   1.805  1.2553  1.8676  1.2710
   11CHTO   O54 4377   7.328   7.118   1.759 -0.2253  0.0643 -0.1683
   11CHTO  H133 4378   7.303   7.037   1.800  0.4639 -1.0327 -1.8776
   11CHTO   C75 4379   7.226   7.307   1.618 -0.2840  0.2832  0.5100
   11CHTO  H147 4380   7.130   7.359   1.612  0.4937  1.6828  0.1385
   11CHTO   N13 4381   7.325   7.410   1.662  0.6739 -0.6817  0.0360
   11CHTO  H139 4382   7.278   7.501   1.697  0.7020 -0.8332  0.4656
   11CHTO  H140 4383   7.373   7.368   1.749  1.4102 -1.4486 -0.7295
   11CHTO   C76 4384   7.252   7.271   1.466  0.5470  0.2200 -0.8328
   11CHTO  H148 4385   7.359   7.259   1.452  0.2361 -1.7226 -1.7246
   11CHTO   O49 4386   7.178   7.154   1.421  0.4629 -0.4153  0.6555
   11CHTO   C77 4387   7.202   7.040   1.502  0.0108 -0.2104  0.1329
   11CHTO  H149 4388   7.301   7.001   1.528 -0.6391 -2.0253 -0.0408
   11CHTO   C88 4389   7.144   6.919   1.423  0.1410  0.1399 -0.2531
   11CHTO   O58 4390   7.214   6.908   1.276 -0.3167  0.2372  0.0518
   11CHTO  H136 4391   7.214   6.818   1.250 -0.7437  0.1910  0.2115
   11CHTO   O51 4392   7.185   7.384   1.369 -0.3018 -0.3628 -0.3446
   11CHTO   C78 4393   7.309   7.490   1.291 -0.6269 -0.1510 -0.1485
   11CHTO  H150 4394   7.406   7.467   1.339 -1.1622 -0.7598  0.6479
   11CHTO   C80 4395   7.280   7.638   1.319 -0.2195  0.0837 -0.4105
   11CHTO  H152 4396   7.185   7.664   1.269  1.3106  1.0654 -2.9495
   11CHTO   O55 4397   7.280   7.673   1.461  0.1175 -0.0782  0.1484
   11CHTO  H134 4398   7.198   7.660   1.504  0.6724 -0.6858  1.0227
   11CHTO   C84 4399   7.391   7.728   1.243  0.1613  0.0954 -0.0006
   11CHTO  H156 4400   7.487   7.701   1.286  0.3584  2.4524  1.1143
   11CHTO   N15 4401   7.366   7.879   1.257  0.3094 -0.3108  0.7037
   11CHTO  H143 4402   7.295   7.897   1.334  1.2397 -1.2603  1.7988
   11CHTO  H144 4403   7.326   7.917   1.164  1.2952  1.7012  1.0588
   11CHTO   C87 4404   7.403   7.679   1.095 -0.5182  0.5174  0.0023
   11CHTO  H159 4405   7.308   7.703   1.049 -0.3375  2.1855  0.4610
   11CHTO   O53 4406   7.427   7.532   1.092 -0.2727  0.1552 -0.0046
   11CHTO   C82 4407   7.316   7.458   1.142  0.6862 -0.1492 -0.4336
   11CHTO  H154 4408   7.223   7.492   1.097  0.7274  1.9664  1.0000
   11CHTO   C89 4409   7.337   7.309   1.103 -0.0773 -0.5311  0.3809
   11CHTO   O59 4410   7.224   7.230   1.143  0.9699  0.3059 -0.1319
   11CHTO  H137 4411   7.245   7.145   1.177 -0.1449  0.5234  1.1751
   11CHTO   O45 4412   7.529   7.753   1.006 -0.0364 -0.6770 -0.0634
   11CHTO   C67 4413   7.500   7.746   0.867 -0.2513 -0.4902  0.3340
   11CHTO  H124 4414   7.436   7.659   0.849 -0.9396 -0.2368  1.4485
   11CHTO   C65 4415   7.431   7.875   0.803 -0.0180  0.5488 -0.5694
   11CHTO  H122 4416   7.469   7.954   0.868  1.1763  0.7769 -1.5223
   11CHTO   O44 4417   7.290   7.880   0.812  0.2891  0.8839 -0.0492
   11CHTO  H102 4418   7.245   7.913   0.736 -1.6360  0.6276  0.9412
   11CHTO   C63 4419   7.486   7.905   0.648  0.2739  0.0303  0.8206
   11CHTO  H120 4420   7.585   7.950   0.649  1.5692 -2.7604  3.2287
   11CHTO   N11 4421   7.414   8.015   0.580 -0.0261 -0.1193  0.1996
   11CHTO  H108 4422   7.310   7.994   0.571 -0.1714  1.6298 -2.8919
   11CHTO  H109 4423   7.449   8.115   0.595 -1.4495  0.8585 -2.6400
   11CHTO   C61 4424   7.508   7.778   0.569 -0.0581  0.4851  0.3002
   11CHTO  H118 4425   7.567   7.798   0.479  2.2623 -0.2965  1.6192
   11CHTO   O40 4426   7.587   7.688   0.651  0.1698  0.1515 -0.0981
   11CHTO   C68 4427   7.627   7.719   0.787  0.2480 -0.3634 -0.4103
   11CHTO  H125 4428   7.688   7.812   0.789 -0.9371  0.4195  0.8618
   11CHTO   C72 4429   7.705   7.602   0.848  0.8449 -0.2937 -0.0184
   11CHTO   O48 4430   7.621   7.486   0.866  0.7864  0.3677  0.2479
   11CHTO  H105 4431   7.680   7.414   0.874 -1.0777 -1.0534  1.5185
   11CHTO   O38 4432   7.389   7.703   0.554 -0.3573 -0.2167 -0.4871
   11CHTO   C55 4433   7.366   7.631   0.435 -0.4738 -1.4671  0.4723
   11CHTO  H112 4434   7.467   7.629   0.390 -0.4059  1.8177  0.3841
   11CHTO   C56 4435   7.258   7.708   0.339  0.1392 -0.9862 -0.2523
   11CHTO  H113 4436   7.171   7.722   0.405  0.7584 -0.3515  0.4389
   11CHTO   O42 4437   7.307   7.838   0.298 -0.7806 -0.2018  0.1922
   11CHTO  H100 4438   7.255   7.905   0.338  1.3626  1.0238  1.0129
   11CHTO   C57 4439   7.233   7.627   0.207 -0.4949 -0.2444 -0.0288
   11CHTO  H114 4440   7.326   7.636   0.151 -0.6943  0.3404 -0.2748
   11CHTO   N10 4441   7.118   7.679   0.129 -0.4066 -0.9835 -0.2734
   11CHTO  H106 4442   7.145   7.766   0.070  0.4535 -1.3252 -0.3855
   11CHTO  H107 4443   7.040   7.712   0.196  2.3643  2.0969  1.5997
   11CHTO   C58 4444   7.208   7.477   0.243 -0.2369  0.1744 -0.1974
   11CHTO  H115 4445   7.114   7.462   0.300 -1.4150  2.7868 -1.3825
   11CHTO   O37 4446   7.314   7.430   0.324 -0.5196  0.6723  0.6355
   11CHTO   C59 4447   7.336   7.485   0.453  0.0038 -0.4412  0.3618
   11CHTO  H116 4448   7.244   7.472   0.509 -1.0593  2.1731 -0.6660
   11CHTO   C70 4449   7.442   7.414   0.544 -0.1142 -0.4217  1.0793
   11CHTO   O46 4450   7.406   7.282   0.592 -0.3699  0.0430  0.3276
   11CHTO  H103 4451   7.486   7.240   0.617 -0.2357  0.2094  0.1755
   11CHTO   O39 4452   7.216   7.386   0.125 -0.2706 -0.2487  0.0778
   11CHTO   C60 4453   7.102   7.313   0.091  0.4808  0.1960  0.0815
   11CHTO  H117 4454   7.024   7.333   0.164 -0.8284 -0.3765 -1.1405
   11CHTO   C62 4455   7.045   7.368  -0.045  0.2331 -0.8019  0.7639
   11CHTO  H119 4456   7.036   7.476  -0.021  1.5570 -0.7833  1.1698
   11CHTO   O43 4457   7.150   7.357  -0.148  0.1024  0.3094  0.3866
   11CHTO  H101 4458   7.131   7.274  -0.185  2.2773 -0.2630  0.4560
   11CHTO   C66 4459   6.905   7.305  -0.082 -0.8581  0.1083 -0.0404
   11CHTO  H123 4460   6.837   7.302   0.003 -1.1575 -0.9380 -0.3059
   11CHTO   N12 4461   6.836   7.380  -0.188  0.3872  0.5464  0.1321
   11CHTO  H110 4462   6.729   7.363  -0.180  0.3945  0.5882  0.3214
   11CHTO  H111 4463   6.878   7.339  -0.278  0.1346  0.4492  0.0572
   11CHTO   C69 4464   6.931   7.153  -0.095 -0.3046 -0.4358  0.1233
   11CHTO  H126 4465   6.991   7.140  -0.187  1.9174 -0.4098  1.5503
   11CHTO   O41 4466   7.005   7.089   0.039  0.6796 -0.2313 -0.0600
   11CHTO   C64 4467   7.128   7.160   0.087  0.0431  0.3274  0.9173
   11CHTO  H121 4468   7.209   7.142   0.013 -0.4141  0.9373  0.2601
   11CHTO   C71 4469   7.163   7.094   0.219 -0.5726  0.3894 -0.2360
   11CHTO   O47 4470   7.287   7.144   0.270  0.2114 -0.0230  0.4361
   11CHTO  H104 4471   7.330   7.195   0.204 -1.3311 -2.2121 -2.3835
   11CHTO   O34 4472   6.804   7.073  -0.125 -0.0372  0.4688  0.4111
   11CHTO   C49 4473   6.647   7.036  -0.090  0.4874  0.3711 -0.5105
   11CHTO   H91 4474   6.588   7.128  -0.079 -0.4768 -0.2038 -0.8085
   11CHTO   C47 4475   6.651   6.948   0.034  0.3558  0.9740  0.3833
   11CHTO   H89 4476   6.545   6.926   0.058 -0.0818  0.9857 -1.4867
   11CHTO   O33 4477   6.698   7.031   0.140  0.2661 -0.1978 -0.6795
   11CHTO   H70 4478   6.780   7.006   0.179 -0.3181 -1.4487 -0.2066
   11CHTO   C45 4479   6.724   6.812  -0.001 -0.3537  0.4757 -0.2838
   11CHTO   H87 4480   6.821   6.828  -0.049  0.5788 -0.2985  1.3137
   11CHTO    N8 4481   6.744   6.726   0.120 -0.1081 -0.2633  0.7854
   11CHTO   H75 4482   6.701   6.630   0.093  2.3236 -1.9054  2.4929
   11CHTO   H76 4483   6.849   6.724   0.144  0.0759  4.5835  0.7708
   11CHTO   C43 4484   6.653   6.727  -0.113  0.6931 -0.1149  0.2013
   11CHTO   H85 4485   6.717   6.642  -0.137  0.4025 -0.3669  0.3178
   11CHTO   O29 4486   6.644   6.812  -0.227  0.8440 -0.0674 -0.1319
   11CHTO   C50 4487   6.589   6.949  -0.198  0.4136 -0.2062  0.3373
   11CHTO   H92 4488   6.614   7.007  -0.288  0.2647  2.9771  2.2564
   11CHTO   C54 4489   6.434   6.959  -0.208  0.4598  0.0608  0.6057
   11CHTO   O36 4490   6.389   6.944  -0.341  0.0463 -0.3573  0.4071
   11CHTO   H72 4491   6.300   6.963  -0.360  1.3621  2.1795 -3.9855
   11CHTO   O27 4492   6.519   6.680  -0.081 -0.1039  0.1436  0.5920
   11CHTO   C37 4493   6.478   6.574   0.007  0.6947  0.8668  0.4008
   11CHTO   H79 4494   6.546   6.534   0.083  0.3479 -0.9812 -0.2317
   11CHTO   C38 4495   6.357   6.633   0.088 -0.1516 -0.2970  0.0774
   11CHTO   H80 4496   6.289   6.684   0.018  1.5834 -0.2607 -1.5928
   11CHTO   O31 4497   6.403   6.727   0.188  0.1100  0.6374 -0.1716
   11CHTO   H68 4498   6.325   6.771   0.218 -0.2528 -0.3422  0.3592
   11CHTO   C39 4499   6.284   6.507   0.149 -0.8806 -0.2667 -0.5482
   11CHTO   H81 4500   6.349   6.454   0.218 -1.5422 -0.8326 -0.3532
   11CHTO    N7 4501   6.158   6.550   0.235  0.1732 -0.2762 -1.1554
   11CHTO   H73 4502   6.072   6.593   0.186 -0.3357 -0.6360 -0.5863
   11CHTO   H74 4503   6.123   6.474   0.303 -1.6026  2.4862  1.1084
   11CHTO   C40 4504   6.258   6.395   0.051  0.2609  0.2917 -0.5652
   11CHTO   H82 4505   6.189   6.428  -0.027  0.0142 -1.2913 -1.0323
   11CHTO   O26 4506   6.383   6.352  -0.004 -0.4331  0.1883 -0.0286
   11CHTO   C41 4507   6.445   6.454  -0.083  0.7832 -0.0961 -0.1232
   11CHTO   H83 4508   6.377   6.483  -0.164 -0.1429 -0.0633  0.6635
   11CHTO   C52 4509   6.564   6.397  -0.158 -0.3724 -0.1399 -0.1291
   11CHTO   O35 4510   6.684   6.349  -0.061 -0.8869 -0.0765 -0.4269
   11CHTO   H71 4511   6.750   6.317  -0.119  0.4369 -0.3295  1.1774
   11CHTO   O28 4512   6.224   6.267   0.101  0.4839  0.5820 -0.4315
   11CHTO   C42 4513   6.090   6.208   0.082  0.4912  0.1828  0.1268
   11CHTO   H84 4514   6.066   6.217  -0.024  0.1979 -2.1973 -0.0461
   11CHTO   C44 4515   5.956   6.257   0.153 -0.5205 -0.3369 -0.1653
   11CHTO   H86 4516   5.969   6.254   0.261  1.0443 -0.3144 -0.3497
   11CHTO   O32 4517   5.941   6.392   0.117 -0.2050 -0.2253  0.3407
   11CHTO   H69 4518   5.871   6.433   0.163 -0.5819 -0.7113  0.2052
   11CHTO   C48 4519   5.826   6.173   0.108 -0.1637 -0.8741  0.4471
   11CHTO   H90 4520   5.817   6.172  -0.001  0.8371 -1.0432  0.3658
   11CHTO    N9 4521   5.696   6.234   0.154 -0.1256 -0.1298  0.3252
   11CHTO   H77 4522   5.695   6.232   0.262 -1.6947 -3.2264  0.3085
   11CHTO   H78 4523   5.680   6.331   0.110 -0.9769  0.9543  2.9023
   11CHTO   C51 4524   5.857   6.030   0.151  0.1050  0.0060 -0.2228
   11CHTO   H93 4525   5.870   6.033   0.259 -1.2823  2.5257 -0.0869
   11CHTO   O30 4526   5.976   5.983   0.076  0.7838 -0.2845 -0.0922
   11CHTO   C46 4527   6.099   6.053   0.113  0.5219 -0.3660  0.1284
   11CHTO   H88 4528   6.130   6.046   0.217 -1.3858  1.8774  0.8818
   11CHTO   C53 4529   6.211   5.982   0.031 -0.0549  0.1665 -0.2196
   11CHTO   O72 4530   6.204   5.841   0.037  0.1216 -0.2179  0.0347
   11CHTO  H199 4531   6.289   5.800   0.037  0.5144  0.5362  1.7560
   11CHTO   O22 4532   5.752   5.939   0.106  0.2450  0.0736 -0.3581
   11CHTO   C31 4533   5.712   5.828   0.195  1.0233  0.2265  0.4667
   11CHTO   H59 4534   5.758   5.845   0.294 -0.2255  2.6318  0.6881
   11CHTO   C29 4535   5.562   5.830   0.225  0.4891 -0.1218 -0.3583
   11CHTO   H57 4536   5.506   5.806   0.133  0.6717  0.1481 -0.5423
   11CHTO   O21 4537   5.518   5.967   0.252 -0.4729 -0.4104  0.1121
   11CHTO   H37 4538   5.446   5.980   0.193  0.3344  0.6338 -0.6709
   11CHTO   C27 4539   5.536   5.728   0.341 -0.3945  0.6244 -0.0073
   11CHTO   H55 4540   5.584   5.765   0.434 -1.7618  0.3630  0.8174
   11CHTO    N5 4541   5.388   5.710   0.365  0.4934 -0.8012  0.1553
   11CHTO   H43 4542   5.356   5.810   0.391  1.6241 -0.6649  1.0573
   11CHTO   H44 4543   5.339   5.688   0.271 -1.5601  0.6886  0.8383
   11CHTO   C25 4544   5.602   5.585   0.316 -0.3014  0.4114 -0.5743
   11CHTO   H53 4545   5.548   5.534   0.234  0.0153  2.2286 -1.9479
   11CHTO   O17 4546   5.737   5.592   0.262  0.6117 -0.0221  0.2441
   11CHTO   C32 4547   5.747   5.683   0.150 -0.4650 -0.0556  0.2097
   11CHTO   H60 4548   5.678   5.655   0.071 -1.4773  1.2257  0.6227
   11CHTO   C36 4549   5.884   5.675   0.094 -0.8996  0.3622 -0.3284
   11CHTO   O25 4550   5.986   5.698   0.186 -0.2048  0.3717 -0.3162
   11CHTO   H40 4551   5.996   5.629   0.249 -0.1825 -0.0496 -0.7809
   11CHTO   O15 4552   5.603   5.497   0.441 -0.5578  0.5219 -0.0022
   11CHTO   C19 4553   5.590   5.352   0.450  0.4974 -0.0326 -0.3819
   11CHTO   H47 4554   5.688   5.309   0.475  0.2316 -0.4112  0.0168
   11CHTO   C20 4555   5.488   5.322   0.566 -0.5275  0.5087  0.9477
   11CHTO   H48 4556   5.393   5.377   0.555  0.2379  1.8022  0.7349
   11CHTO   O19 4557   5.550   5.367   0.690  0.2106 -0.4763  0.0210
   11CHTO   H35 4558   5.586   5.307   0.752  1.8123  1.4644  1.0343
   11CHTO   C21 4559   5.450   5.168   0.575 -0.3139  0.5094 -0.0290
   11CHTO   H49 4560   5.541   5.112   0.599  1.0322  1.7478 -2.0070
   11CHTO    N4 4561   5.352   5.125   0.683 -0.2191  0.4218  0.4800
   11CHTO   H41 4562   5.282   5.205   0.702 -1.8814 -0.9767  0.2692
   11CHTO   H42 4563   5.297   5.040   0.647  0.9661  1.0323 -2.9531
   11CHTO   C22 4564   5.402   5.119   0.431  0.5626 -0.3186  0.0630
   11CHTO   H50 4565   5.310   5.175   0.412  1.3484  0.3598 -1.8621
   11CHTO   O14 4566   5.502   5.149   0.324 -0.1693  0.4348 -0.2688
   11CHTO   C23 4567   5.546   5.285   0.312 -0.0787 -0.6143  0.6095
   11CHTO   H51 4568   5.467   5.342   0.260 -0.7049 -1.0489  1.0907
   11CHTO   C34 4569   5.669   5.278   0.214 -0.4659 -0.5565 -0.4329
   11CHTO   O23 4570   5.660   5.206   0.095  0.4911 -0.3056 -0.0117
   11CHTO   H38 4571   5.639   5.116   0.111 -1.7170  0.1859 -0.1108
   11CHTO   O16 4572   5.373   4.975   0.422  0.3207  0.1131  0.3894
   11CHTO   C24 4573   5.276   4.935   0.308 -0.4470  0.7261  0.0951
   11CHTO   H52 4574   5.276   4.998   0.219  2.8229 -0.9539 -1.1914
   11CHTO   C26 4575   5.137   4.921   0.368 -0.3004 -0.0415 -0.5164
   11CHTO   H54 4576   5.138   4.842   0.447 -0.4610  0.5366  0.0739
   11CHTO   O20 4577   5.112   5.040   0.446  0.4015 -0.2263  0.0208
   11CHTO   H36 4578   5.024   5.067   0.425  1.1905  0.0805 -3.1064
   11CHTO   C30 4579   5.040   4.887   0.253 -0.5635 -0.7764 -0.6880
   11CHTO   H58 4580   5.032   4.980   0.194 -1.7742 -0.4615 -0.0530
   11CHTO    N6 4581   4.899   4.859   0.290 -0.6554 -0.1853  0.5636
   11CHTO   H45 4582   4.891   4.760   0.332  3.8932 -2.1593 -2.8989
   11CHTO   H46 4583   4.880   4.938   0.363  0.6025  2.7154 -2.1416
   11CHTO   C33 4584   5.084   4.767   0.158 -0.7433  0.2533  0.2620
   11CHTO   H61 4585   5.058   4.671   0.206 -2.1074 -0.3471 -1.6391
   11CHTO   O18 4586   5.231   4.765   0.143  0.4232  0.5252 -0.2059
   11CHTO   C28 4587   5.322   4.794   0.254 -0.0171 -0.2564 -0.8907
   11CHTO   H56 4588   5.320   4.724   0.338 -0.3034  1.7638  0.8247
   11CHTO   C35 4589   5.462   4.798   0.202  0.4193  0.0939  0.0895
   11CHTO   O24 4590   5.514   4.667   0.175 -0.4765  0.2344 -0.0308
   11CHTO   H39 4591   5.474   4.624   0.102 -2.1821  1.7225 -0.0242
   11CHTO    O9 4592   5.024   4.758   0.031 -0.5379  0.2119 -0.0321
   11CHTO   C13 4593   5.068   4.873  -0.075 -0.4464 -0.3896 -0.1693
   11CHTO   H26 4594   5.123   4.952  -0.020  0.3415 -1.8543  1.1770
   11CHTO   C11 4595   4.952   4.928  -0.161 -0.2210  0.0906 -0.4539
   11CHTO   H24 4596   4.886   4.987  -0.095  2.3440  1.3134  1.1093
   11CHTO    O8 4597   4.877   4.818  -0.214 -0.9623  0.2974 -0.7396
   11CHTO    H3 4598   4.921   4.763  -0.275  0.8419 -0.6949  1.3628
   11CHTO    C9 4599   4.999   5.039  -0.264  0.9227  0.1379 -0.2998
   11CHTO   H22 4600   4.991   5.133  -0.207 -0.9334 -1.0048  1.3798
   11CHTO    N2 4601   4.898   5.072  -0.367 -0.4888 -0.6024 -0.0372
   11CHTO   H10 4602   4.880   5.178  -0.359  0.1026 -0.6069  1.5890
   11CHTO   H11 4603   4.806   5.016  -0.363 -0.9306  0.1240 -0.0081
   11CHTO    C7 4604   5.145   5.019  -0.311 -0.3839 -0.3894  0.4368
   11CHTO   H20 4605   5.214   5.071  -0.242  0.5545 -1.6574  0.4840
   11CHTO    O4 4606   5.174   4.875  -0.303  0.8552  0.1453  0.3202
   11CHTO   C14 4607   5.180   4.815  -0.173  0.3645  0.0277  0.4296
   11CHTO   H27 4608   5.276   4.847  -0.128  0.1106 -0.6657  1.4664
   11CHTO   C18 4609   5.184   4.661  -0.179 -0.2464 -0.4759 -0.0635
   11CHTO   O13 4610   5.306   4.610  -0.227  0.2992 -0.0039  0.3531
   11CHTO    H7 4611   5.327   4.540  -0.169  1.3327 -0.8305 -0.9699
   11CHTO    O2 4612   5.183   5.063  -0.473 -0.2755  0.4155 -0.3751
   11CHTO    C1 4613   5.282   5.171  -0.491 -0.1041  0.4481  0.9904
   11CHTO   H14 4614   5.369   5.169  -0.422  2.1856 -1.0093 -1.8193
   11CHTO    C2 4615   5.227   5.318  -0.486  0.1129  0.0818 -0.7419
   11CHTO   H15 4616   5.141   5.336  -0.552 -1.0710  1.9201  1.2349
   11CHTO    O6 4617   5.182   5.339  -0.352  0.4382 -0.2047 -0.1342
   11CHTO    H1 4618   5.149   5.424  -0.330  1.6185  0.4767 -1.0070
   11CHTO    C3 4619   5.345   5.422  -0.508 -0.3342  0.7669 -0.2154
   11CHTO   H16 4620   5.428   5.398  -0.439 -1.4602 -1.0632  0.5192
   11CHTO    N1 4621   5.315   5.568  -0.485  0.2871 -0.1247  0.8266
   11CHTO    H8 4622   5.232   5.581  -0.416 -1.6145 -0.9498 -1.2278
   11CHTO    H9 4623   5.410   5.617  -0.471  0.8459 -0.9034 -0.1404
   11CHTO    C4 4624   5.407   5.396  -0.652 -0.4736  0.0018  0.4341
   11CHTO   H17 4625   5.336   5.428  -0.728  0.4516  0.1496 -0.3592
   11CHTO    O1 4626   5.447   5.256  -0.659  0.3410  0.3366  0.0309
   11CHTO    C5 4627   5.341   5.161  -0.636  0.0184 -0.0378 -0.2817
   11CHTO   H18 4628   5.265   5.172  -0.713 -0.9388  1.3232  0.8446
   11CHTO   C16 4629   5.406   5.020  -0.650 -0.3809  0.1401  0.3666
   11CHTO   O11 4630   5.525   4.996  -0.567 -0.0131 -0.1510 -0.2374
   11CHTO    H5 4631   5.534   5.072  -0.513  0.2003 -0.1389 -0.2907
   11CHTO    O3 4632   5.529   5.473  -0.657 -0.6040 -0.0761  0.0105
   11CHTO    C6 4633   5.598   5.469  -0.778  0.0704  0.5336 -0.2945
   11CHTO   H19 4634   5.553   5.398  -0.847 -0.4622  1.5134 -0.9542
   11CHTO    C8 4635   5.598   5.605  -0.853 -0.0615  0.0904  0.7951
   11CHTO   H21 4636   5.626   5.682  -0.782  2.7871 -0.6632  0.5587
   11CHTO    O7 4637   5.458   5.625  -0.888  0.2258  0.7787 -0.3848
   11CHTO    H2 4638   5.432   5.715  -0.883 -2.8733 -0.1110  0.4271
   11CHTO   C12 4639   5.685   5.581  -0.987  0.1849  0.5345  0.2971
   11CHTO   H25 4640   5.629   5.507  -1.048 -0.0889 -2.0674  3.5531
   11CHTO    N3 4641   5.691   5.708  -1.069  0.0854 -0.3169 -0.5362
   11CHTO   H12 4642   5.632   5.792  -1.036  0.6496 -0.8902  2.0370
   11CHTO   H13 4643   5.794   5.739  -1.079  0.0453 -0.5750 -1.8759
   11CHTO   C15 4644   5.824   5.527  -0.948 -0.2304 -0.0258  0.2270
   11CHTO   H28 4645   5.883   5.603  -0.897 -1.7387  0.9562  0.5381
   11CHTO   O10 4646   5.909   5.470  -1.089  0.2767 -0.1706 -0.6762
   11CHTO    H4 4647   5.982   5.413  -1.077  1.1708  0.4918 -2.7838
   11CHTO    O5 4648   5.812   5.399  -0.878  0.2527 -0.2701 -0.4340
   11CHTO   C10 4649   5.744   5.417  -0.756  0.4183 -0.3009 -0.0139
   11CHTO   H23 4650   5.790   5.494  -0.693 -0.4237 -0.7982  1.2440
   11CHTO   C17 4651   5.750   5.275  -0.691 -0.6479  0.3927 -0.7587
   11CHTO   O12 4652   5.863   5.250  -0.612 -0.0047 -0.3840  0.7336
   11CHTO    H6 4653   5.933   5.208  -0.658  1.0259  0.0938  1.8249
   12CHTO  H203 4654   5.515  12.011   1.662  0.1731  1.3237 -0.2075
   12CHTO   O82 4655   5.473  12.058   1.731 -0.2751 -0.0934  0.4963
   12CHTO  C123 4656   5.460  11.971   1.847 -0.1979  0.4478  0.1012
   12CHTO  H227 4657   5.477  12.033   1.936  1.6251  0.3604 -0.1708
   12CHTO   O77 4658   5.321  11.943   1.847  0.3767 -0.4383  0.0726
   12CHTO  C118 4659   5.275  11.860   1.954 -0.3627 -0.0178 -1.0107
   12CHTO  H222 4660   5.301  11.909   2.049 -0.6659 -1.6014 -0.1094
   12CHTO  C125 4661   5.123  11.845   1.943 -0.4319  0.1193 -0.2478
   12CHTO   O84 4662   5.090  11.791   1.815  0.1848 -0.1471 -0.1271
   12CHTO  H205 4663   5.003  11.813   1.787 -0.8622 -3.0070  0.6807
   12CHTO  C114 4664   5.351  11.721   1.941  0.3378 -0.1396  0.0084
   12CHTO  H218 4665   5.321  11.671   1.849 -0.9191 -2.8655  1.8229
   12CHTO  C116 4666   5.498  11.743   1.940 -0.3982  0.3456  0.0267
   12CHTO  H220 4667   5.518  11.769   2.046 -0.4983  2.3885 -0.4516
   12CHTO   O79 4668   5.565  11.621   1.920  0.3897  0.4463  0.2297
   12CHTO  H201 4669   5.657  11.619   1.937  0.6132 -0.2348 -0.9747
   12CHTO  C120 4670   5.553  11.847   1.840 -0.3041 -0.1691  0.4672
   12CHTO  H224 4671   5.557  11.806   1.737  1.5277  1.8543 -0.2903
   12CHTO   N21 4672   5.694  11.886   1.869  0.8306  0.1856  0.1795
   12CHTO  H211 4673   5.759  11.811   1.913  0.1396 -1.0346 -0.8520
   12CHTO  H212 4674   5.740  11.923   1.779 -0.4373  0.0800 -0.5116
   12CHTO   O75 4675   5.310  11.649   2.057  0.3288  0.9099  0.1797
   12CHTO  C112 4676   5.269  11.496   2.026  0.1503  0.0300  0.2019
   12CHTO  H216 4677   5.323  11.464   1.936  0.6148  5.7597 -1.7491
   12CHTO   O73 4678   5.124  11.492   2.004  0.4212 -0.1829 -0.2150
   12CHTO  C113 4679   5.085  11.357   1.976 -0.2702 -0.4116  0.0471
   12CHTO  H217 4680   5.154  11.308   1.904 -0.4479 -0.4129 -0.1217
   12CHTO  C124 4681   4.949  11.351   1.908  0.2389 -0.0298 -0.2907
   12CHTO   O83 4682   4.851  11.417   1.979  0.0395  0.1701 -0.7813
   12CHTO  H204 4683   4.833  11.498   1.935  0.2754  0.0788 -1.0446
   12CHTO  C109 4684   5.088  11.271   2.102 -0.8382  0.1725  0.9113
   12CHTO  H213 4685   5.017  11.319   2.172 -0.6935  0.8192  0.6202
   12CHTO  C110 4686   5.237  11.272   2.158  0.6516  0.2594  0.3471
   12CHTO  H214 4687   5.291  11.201   2.096 -1.7635 -0.4776 -0.9737
   12CHTO   O78 4688   5.224  11.214   2.291  0.1332  0.4238 -0.0960
   12CHTO  H200 4689   5.180  11.273   2.349 -1.4095 -0.2383 -0.5704
   12CHTO  C111 4690   5.305  11.412   2.154 -0.8957  0.3631  0.3022
   12CHTO  H215 4691   5.270  11.471   2.239 -0.5303  1.3694 -0.2444
   12CHTO   N19 4692   5.453  11.406   2.179  0.2457  0.5150  0.5255
   12CHTO  H207 4693   5.476  11.316   2.235 -0.5520 -0.8098 -1.2207
   12CHTO  H208 4694   5.489  11.488   2.239  0.5926  1.1479 -0.5389
   12CHTO   O74 4695   5.032  11.139   2.070  0.3336  0.1021  0.0859
   12CHTO  C115 4696   4.935  11.077   2.183 -0.1163 -0.8350  0.0435
   12CHTO  H219 4697   4.981  11.074   2.282 -0.2266  2.2062  0.2371
   12CHTO   O76 4698   4.805  11.156   2.197  0.3460  0.6288 -0.5690
   12CHTO  C122 4699   4.718  11.098   2.300 -0.8288 -0.3985  0.1166
   12CHTO  H226 4700   4.615  11.131   2.286 -0.6508 -0.0644 -0.4107
   12CHTO  C126 4701   4.761  11.146   2.456 -0.4574 -0.3072 -0.2360
   12CHTO   O85 4702   4.735  11.284   2.465  0.0259 -0.0423 -0.2069
   12CHTO  H206 4703   4.735  11.304   2.557  1.4447  2.2027 -0.6569
   12CHTO  C121 4704   4.686  10.941   2.280 -0.4136  0.2875  0.1619
   12CHTO  H225 4705   4.636  10.910   2.374 -0.8696 -2.4553 -0.9284
   12CHTO   O81 4706   4.603  10.928   2.161 -0.2096 -0.1353  0.0075
   12CHTO  H202 4707   4.655  10.962   2.091  0.5754 -0.7672  0.2753
   12CHTO  C119 4708   4.820  10.862   2.262 -0.1338 -0.5203  0.2743
   12CHTO  H223 4709   4.894  10.876   2.340 -0.8196  0.2317  0.7846
   12CHTO  C117 4710   4.906  10.924   2.146  0.4651  0.2148  0.2703
   12CHTO  H221 4711   4.856  10.944   2.051 -0.9411  1.3053  1.2090
   12CHTO   N20 4712   5.035  10.841   2.120 -0.1567 -0.2598  0.0929
   12CHTO  H209 4713   5.004  10.739   2.107 -0.1116 -0.1195 -1.2395
   12CHTO  H210 4714   5.098  10.879   2.041 -0.4708 -2.5670 -1.3203
   12CHTO   O80 4715   4.799  10.703   2.271  0.9334  0.5714 -0.7958
   12CHTO  C103 4716   4.665  10.623   2.205 -0.2417  0.0745  0.4161
   12CHTO  H190 4717   4.578  10.685   2.185 -0.7956  0.3989  3.5210
   12CHTO  C101 4718   4.698  10.542   2.080  0.4486 -0.0197 -0.3985
   12CHTO  H188 4719   4.792  10.492   2.103  1.4220  1.1016 -1.8522
   12CHTO   O68 4720   4.726  10.633   1.966 -0.1247 -0.2495 -0.3885
   12CHTO  H168 4721   4.721  10.585   1.886 -1.1584 -2.8389  1.1663
   12CHTO   C99 4722   4.579  10.443   2.039 -0.2405 -0.5082  0.5763
   12CHTO  H186 4723   4.483  10.493   2.017 -0.6940 -1.7784 -0.4712
   12CHTO   N17 4724   4.607  10.355   1.924  0.1173  0.0831  0.6549
   12CHTO  H174 4725   4.675  10.402   1.855  0.9402 -1.6550  0.2499
   12CHTO  H175 4726   4.515  10.330   1.873 -0.2554  2.9142 -0.1689
   12CHTO   C97 4727   4.556  10.354   2.160  0.4756 -0.0017 -0.0027
   12CHTO  H184 4728   4.646  10.293   2.177  0.7975  0.8497  1.3894
   12CHTO   O64 4729   4.524  10.434   2.270 -0.1815  0.6425 -0.7424
   12CHTO  C104 4730   4.623  10.522   2.317  0.2880  0.5919 -0.2349
   12CHTO  H191 4731   4.711  10.476   2.361 -0.3346  0.7170  1.1786
   12CHTO  C108 4732   4.553  10.587   2.436 -1.2369  0.3427 -0.0835
   12CHTO   O71 4733   4.552  10.515   2.558 -0.2917  0.0982  0.2378
   12CHTO  H171 4734   4.473  10.465   2.569 -1.5017  2.1199  1.0654
   12CHTO   O62 4735   4.439  10.275   2.148  0.1296 -0.6317  0.0571
   12CHTO   C91 4736   4.430  10.145   2.212  0.5079 -0.3069 -0.6460
   12CHTO  H178 4737   4.527  10.126   2.259  0.4881 -1.0133 -0.8936
   12CHTO   C92 4738   4.404  10.040   2.112 -0.3108  0.1417  0.0260
   12CHTO  H179 4739   4.306  10.068   2.069  0.3945  2.4158 -0.1329
   12CHTO   O66 4740   4.504  10.051   2.009 -0.3682 -0.1720 -0.0116
   12CHTO  H166 4741   4.580  10.003   2.037  0.4823  0.1110 -1.7315
   12CHTO   C93 4742   4.397   9.892   2.178 -0.0150  0.2119  0.2596
   12CHTO  H180 4743   4.494   9.852   2.211  0.1890  1.3724  1.1147
   12CHTO   N16 4744   4.342   9.794   2.082 -0.8531 -0.5701 -0.2664
   12CHTO  H172 4745   4.348   9.824   1.979 -0.1942 -0.1998 -0.1259
   12CHTO  H173 4746   4.382   9.696   2.099  0.9989 -0.1002 -1.7398
   12CHTO   C94 4747   4.295   9.897   2.298  0.2931 -0.7399 -0.6400
   12CHTO  H181 4748   4.193   9.917   2.264  0.2135  0.7257  0.3970
   12CHTO   O61 4749   4.321  10.005   2.389  0.2208 -0.5095  0.2284
   12CHTO   C95 4750   4.328  10.138   2.332  0.1016 -0.6239 -0.2416
   12CHTO  H182 4751   4.228  10.165   2.299 -0.8255 -1.4703  1.8359
   12CHTO  C106 4752   4.373  10.225   2.456 -0.2360 -0.1743 -0.3884
   12CHTO   O69 4753   4.272  10.231   2.565 -0.7534  0.3474  0.0201
   12CHTO  H169 4754   4.199  10.272   2.523  0.3828 -0.0162 -2.3348
   12CHTO   O63 4755   4.297   9.771   2.384  0.2443 -0.0512 -0.6968
   12CHTO   C96 4756   4.413   9.724   2.488  0.3672  0.1544  0.3583
   12CHTO  H183 4757   4.492   9.799   2.486  1.2998 -0.8171  0.3451
   12CHTO   C98 4758   4.476   9.590   2.438 -0.2860  0.2573  0.0962
   12CHTO  H185 4759   4.403   9.508   2.434  0.7263 -0.5986 -1.4824
   12CHTO   O67 4760   4.531   9.611   2.299 -0.0385  0.2182 -0.0360
   12CHTO  H167 4761   4.587   9.686   2.304 -0.2169  0.3459  0.0839
   12CHTO  C102 4762   4.593   9.537   2.545 -0.3226 -0.3496  0.4981
   12CHTO  H189 4763   4.678   9.606   2.532 -0.8736  0.2430  0.0262
   12CHTO   N18 4764   4.635   9.395   2.527  0.2246  0.0730  0.5173
   12CHTO  H176 4765   4.728   9.389   2.581  0.5896 -0.0097 -0.1072
   12CHTO  H177 4766   4.567   9.326   2.574  2.6169 -1.7560  1.4006
   12CHTO  C105 4767   4.518   9.537   2.684  0.2216  0.0216 -0.4964
   12CHTO  H192 4768   4.438   9.463   2.677  1.4419 -1.9479  4.0319
   12CHTO   O65 4769   4.462   9.666   2.714 -0.4196 -0.6598  0.5739
   12CHTO  C100 4770   4.349   9.698   2.630 -0.0974 -0.6241  0.2848
   12CHTO  H187 4771   4.276   9.617   2.639 -1.9644  1.0763  0.7898
   12CHTO  C107 4772   4.281   9.825   2.684  0.0954 -0.7843 -0.3741
   12CHTO   O70 4773   4.369   9.939   2.700 -0.1142 -0.2963  0.3687
   12CHTO  H170 4774   4.345  10.014   2.752 -0.2506 -0.7977  1.0337
   12CHTO   O57 4775   4.630   9.493   2.807  0.2558 -0.0828 -0.1004
   12CHTO   C85 4776   4.591   9.415   2.921  0.4546  0.1093 -0.4068
   12CHTO  H157 4777   4.515   9.343   2.885 -0.0307  0.3348  0.1591
   12CHTO   C83 4778   4.511   9.504   3.026  1.1944 -0.4714 -0.0798
   12CHTO  H155 4779   4.418   9.542   2.984  1.3426 -1.0556 -0.9411
   12CHTO   O56 4780   4.596   9.615   3.066  0.2016 -0.4339  0.2567
   12CHTO  H135 4781   4.581   9.643   3.154  1.1097  0.2035  0.2113
   12CHTO   C81 4782   4.480   9.415   3.147  0.0170 -0.0336 -0.0460
   12CHTO  H153 4783   4.414   9.338   3.106 -2.4556  1.5633  0.7804
   12CHTO   N14 4784   4.398   9.490   3.246  0.1665  0.5826  0.0487
   12CHTO  H141 4785   4.295   9.490   3.218 -0.3316 -1.2560  1.7500
   12CHTO  H142 4786   4.408   9.455   3.347  1.9998  3.5102  0.9404
   12CHTO   C79 4787   4.608   9.348   3.214  0.3128 -0.1749  0.3579
   12CHTO  H151 4788   4.577   9.293   3.303  2.5134  1.5401  2.2516
   12CHTO   O52 4789   4.674   9.264   3.112  0.4606  0.1083  0.6857
   12CHTO   C86 4790   4.711   9.338   2.995 -0.0493 -0.0642 -0.2328
   12CHTO  H158 4791   4.789   9.409   3.029  2.0978 -1.8607 -1.2480
   12CHTO   C90 4792   4.781   9.237   2.913 -0.7043 -0.6677  0.0716
   12CHTO   O60 4793   4.856   9.278   2.802 -0.0037 -0.2136  0.0256
   12CHTO  H138 4794   4.926   9.324   2.846  0.7247 -1.1078 -0.1811
   12CHTO   O50 4795   4.706   9.438   3.260 -0.4179  0.5721  0.8719
   12CHTO   C73 4796   4.796   9.478   3.363 -0.5492 -0.1003  0.2459
   12CHTO  H145 4797   4.752   9.445   3.458  0.2837 -0.2027  0.5952
   12CHTO   C74 4798   4.813   9.629   3.365  0.2610 -0.9619  0.3906
   12CHTO  H146 4799   4.710   9.667   3.360  1.1622  1.2918 -5.7006
   12CHTO   O54 4800   4.868   9.673   3.493  0.2778  0.0377  0.2615
   12CHTO  H133 4801   4.910   9.756   3.482 -0.7176  0.4162 -0.7467
   12CHTO   C75 4802   4.892   9.672   3.235  0.2219 -0.4860  0.5255
   12CHTO  H147 4803   4.834   9.638   3.148  0.7526  0.1580 -0.0824
   12CHTO   N13 4804   4.912   9.820   3.232 -0.0546  0.2085  0.7817
   12CHTO  H139 4805   4.824   9.867   3.191 -0.5344 -1.4472 -0.1744
   12CHTO  H140 4806   4.991   9.839   3.161  0.1778 -0.3982  0.8736
   12CHTO   C76 4807   5.031   9.595   3.226 -0.8693 -0.5220 -0.6072
   12CHTO  H148 4808   5.085   9.619   3.318 -1.2725 -1.9279  0.0038
   12CHTO   O49 4809   4.997   9.456   3.218 -0.2231  0.3066 -0.0608
   12CHTO   C77 4810   4.932   9.408   3.338  0.2559  0.2630  0.8082
   12CHTO  H149 4811   4.999   9.435   3.419  0.6702  0.9486  0.2485
   12CHTO   C88 4812   4.932   9.254   3.328 -0.6048 -0.6442 -0.0029
   12CHTO   O58 4813   5.065   9.204   3.338  0.1253 -0.1989 -0.1134
   12CHTO  H136 4814   5.114   9.229   3.262 -0.1207  0.5598 -0.0200
   12CHTO   O51 4815   5.116   9.619   3.087  0.6784  0.2145  0.2122
   12CHTO   C78 4816   5.247   9.547   3.076 -0.2388  0.0954 -0.0362
   12CHTO  H150 4817   5.254   9.452   3.133  2.3383  1.1869  1.5408
   12CHTO   C80 4818   5.369   9.632   3.110  0.1443 -0.7393 -0.2830
   12CHTO  H152 4819   5.357   9.724   3.049 -1.4517  0.2224  1.4250
   12CHTO   O55 4820   5.350   9.671   3.253  0.7771 -0.2221  0.4178
   12CHTO  H134 4821   5.433   9.644   3.287  1.7412  0.7976 -1.0794
   12CHTO   C84 4822   5.507   9.560   3.078  0.2427 -0.1812 -0.0039
   12CHTO  H156 4823   5.541   9.479   3.142 -2.0226 -0.9946  0.2007
   12CHTO   N15 4824   5.619   9.655   3.089  0.5017  0.1646 -0.0770
   12CHTO  H143 4825   5.613   9.743   3.028  1.0812 -0.0366 -0.4228
   12CHTO  H144 4826   5.617   9.687   3.191 -0.6233  0.3612 -0.1479
   12CHTO   C87 4827   5.503   9.495   2.937  0.3222 -0.2569  0.0437
   12CHTO  H159 4828   5.519   9.559   2.850  1.4174 -0.2123  0.2705
   12CHTO   O53 4829   5.379   9.426   2.920  0.6917 -0.1307  0.6868
   12CHTO   C82 4830   5.265   9.511   2.930 -0.5611 -0.0762  0.4758
   12CHTO  H154 4831   5.281   9.599   2.867  2.0172 -0.6157  0.2955
   12CHTO   C89 4832   5.140   9.443   2.872 -0.8526  0.4935 -0.5049
   12CHTO   O59 4833   5.129   9.308   2.927 -0.0776  0.0165  0.9109
   12CHTO  H137 4834   5.169   9.239   2.877  1.5621 -0.4462  2.7629
   12CHTO   O45 4835   5.613   9.376   2.929  0.5322  0.1005 -0.2199
   12CHTO   C67 4836   5.704   9.371   2.825 -0.1782  0.9557 -0.4763
   12CHTO  H124 4837   5.755   9.276   2.839 -0.4272  1.0990  1.6021
   12CHTO   C65 4838   5.642   9.374   2.681  0.0714 -0.5646  0.9841
   12CHTO  H122 4839   5.535   9.393   2.687  0.2142  0.7740 -0.2970
   12CHTO   O44 4840   5.659   9.251   2.617  0.0355  0.1116  0.0820
   12CHTO  H102 4841   5.749   9.227   2.624  0.2193  1.1613  1.4229
   12CHTO   C63 4842   5.694   9.498   2.606  0.0513 -0.5079 -0.8311
   12CHTO  H120 4843   5.665   9.587   2.662 -0.4086 -0.6240 -0.8847
   12CHTO   N11 4844   5.614   9.528   2.480  0.0282 -0.4900 -0.0434
   12CHTO  H108 4845   5.669   9.585   2.407 -1.2624 -0.3233 -0.8879
   12CHTO  H109 4846   5.597   9.432   2.436 -2.7195 -0.2717  0.4887
   12CHTO   C61 4847   5.849   9.498   2.602 -0.4484 -0.7250  0.2060
   12CHTO  H118 4848   5.881   9.598   2.569 -0.1772 -1.6351 -2.4044
   12CHTO   O40 4849   5.905   9.475   2.734  0.1024  0.2032  0.4492
   12CHTO   C68 4850   5.819   9.472   2.852 -0.2952  0.3425  0.0658
   12CHTO  H125 4851   5.787   9.577   2.866 -0.0991  0.4063  0.0283
   12CHTO   C72 4852   5.921   9.437   2.967  0.0844  1.1165  0.6583
   12CHTO   O48 4853   5.861   9.473   3.095  0.1751  0.1020  0.0540
   12CHTO  H105 4854   5.929   9.479   3.160  1.7150 -2.0141 -1.3020
   12CHTO   O38 4855   5.898   9.395   2.511  0.4402 -0.6133  0.2116
   12CHTO   C55 4856   5.997   9.436   2.411 -0.2389  0.4748 -0.7663
   12CHTO  H112 4857   6.055   9.520   2.451 -0.6562 -0.2042  1.3434
   12CHTO   C56 4858   5.929   9.472   2.269  0.1834 -0.2738  0.3330
   12CHTO  H113 4859   5.856   9.394   2.241  1.4783 -1.2393 -0.3780
   12CHTO   O42 4860   5.852   9.589   2.282  0.4756  0.1143  0.3016
   12CHTO  H100 4861   5.760   9.578   2.268 -0.0398  2.7556  1.2697
   12CHTO   C57 4862   6.043   9.497   2.160  0.1672  0.1215 -0.0817
   12CHTO  H114 4863   6.086   9.596   2.173 -0.0633  0.2050  0.0462
   12CHTO   N10 4864   5.988   9.499   2.025  0.7982 -0.0119 -0.2062
   12CHTO  H106 4865   5.939   9.595   2.017  0.6352  0.1155  1.9987
   12CHTO  H107 4866   5.921   9.416   2.007 -1.7441  1.9233  0.1517
   12CHTO   C58 4867   6.152   9.392   2.165 -0.2363  0.4240  0.4038
   12CHTO  H115 4868   6.115   9.299   2.116  0.4444 -0.7508  2.0810
   12CHTO   O37 4869   6.195   9.361   2.298 -0.6754 -0.0055 -0.1625
   12CHTO   C59 4870   6.105   9.333   2.405 -0.0490  0.3453 -0.2901
   12CHTO  H116 4871   6.076   9.228   2.395  0.5411 -0.1871  3.0311
   12CHTO   C70 4872   6.199   9.340   2.529 -0.9833 -0.5757 -0.1070
   12CHTO   O46 4873   6.138   9.268   2.633 -0.0326 -0.2628 -0.5315
   12CHTO  H103 4874   6.191   9.241   2.706 -0.7285  1.4910  0.6357
   12CHTO   O39 4875   6.273   9.454   2.078 -0.0115  0.0675 -0.3946
   12CHTO   C60 4876   6.391   9.382   2.054  0.1332  0.6480  0.1966
   12CHTO  H117 4877   6.428   9.336   2.146 -2.8941 -2.5263 -0.0553
   12CHTO   C62 4878   6.366   9.254   1.973 -0.5904 -0.4606 -0.3559
   12CHTO  H119 4879   6.296   9.188   2.029 -1.4489 -1.2143 -2.2434
   12CHTO   O43 4880   6.303   9.299   1.846  0.0052  0.1369  0.0762
   12CHTO  H101 4881   6.372   9.331   1.790  1.7142  1.9131  3.0630
   12CHTO   C66 4882   6.502   9.180   1.958  0.2410 -0.3795 -0.1317
   12CHTO  H123 4883   6.552   9.158   2.053  3.1485 -0.2468 -1.5717
   12CHTO   N12 4884   6.485   9.049   1.896  0.0974 -0.2708  0.7139
   12CHTO  H110 4885   6.379   9.032   1.888  0.0235  1.2831 -2.8162
   12CHTO  H111 4886   6.524   8.971   1.959  2.8979  0.4365 -0.0929
   12CHTO   C69 4887   6.614   9.264   1.890  0.0447 -0.1628 -0.3032
   12CHTO  H126 4888   6.592   9.266   1.782  0.9115  4.1727 -0.4753
   12CHTO   O41 4889   6.615   9.408   1.954 -0.4228 -0.3836  0.6418
   12CHTO   C64 4890   6.498   9.481   1.997 -0.6566 -0.2561  0.3043
   12CHTO  H121 4891   6.463   9.534   1.906 -2.1113 -0.7176  0.5781
   12CHTO   C71 4892   6.540   9.587   2.106  0.0996  0.0436  0.3202
   12CHTO   O47 4893   6.529   9.541   2.237  0.7621  0.0589  0.3553
   12CHTO  H104 4894   6.579   9.463   2.246 -2.6871 -2.2847  0.4365
   12CHTO   O34 4895   6.753   9.199   1.913  0.1636  0.1989 -0.0014
   12CHTO   C49 4896   6.872   9.201   2.028 -0.4159  0.1948  0.2871
   12CHTO   H91 4897   6.948   9.266   1.985  1.4058 -1.6157  0.7356
   12CHTO   C47 4898   6.921   9.053   2.040 -0.1017 -0.0193 -0.0488
   12CHTO   H89 4899   7.003   9.060   2.114  2.4070  0.5976 -2.8077
   12CHTO   O33 4900   6.975   9.005   1.922 -0.3750 -0.1985  0.4905
   12CHTO   H70 4901   6.945   9.046   1.843 -0.3901 -0.7463  0.2106
   12CHTO   C45 4902   6.801   8.969   2.099 -0.1179  0.1256  0.1007
   12CHTO   H87 4903   6.715   8.980   2.031  1.0777  0.0512 -1.4602
   12CHTO    N8 4904   6.824   8.826   2.110  1.0458  0.1564 -1.1228
   12CHTO   H75 4905   6.866   8.782   2.021  0.3628 -0.1609 -1.2916
   12CHTO   H76 4906   6.886   8.817   2.198 -1.0579 -0.5824  0.3141
   12CHTO   C43 4907   6.751   9.035   2.243 -0.6650  0.3404 -0.1588
   12CHTO   H85 4908   6.655   8.986   2.262 -1.2743  0.9360 -1.6741
   12CHTO   O29 4909   6.734   9.178   2.233  0.4973  0.4366 -0.0532
   12CHTO   C50 4910   6.826   9.258   2.162 -0.0801  0.3315  0.1926
   12CHTO   H92 4911   6.770   9.351   2.143  1.1461  1.3179  1.2472
   12CHTO   C54 4912   6.942   9.291   2.252 -0.4985  0.4094  0.2333
   12CHTO   O36 4913   6.924   9.409   2.339 -0.4322  0.2309 -0.0932
   12CHTO   H72 4914   6.973   9.486   2.317  0.6674 -0.3224  0.3979
   12CHTO   O27 4915   6.836   9.001   2.359  0.1706 -0.0668 -0.1527
   12CHTO   C37 4916   6.808   9.019   2.501 -0.4344 -0.1383  0.6720
   12CHTO   H79 4917   6.907   9.013   2.549  0.6220  0.4457 -1.3541
   12CHTO   C38 4918   6.736   9.157   2.542  0.0840  0.5110 -0.0833
   12CHTO   H80 4919   6.681   9.192   2.453  0.6582 -0.1296 -0.6942
   12CHTO   O31 4920   6.830   9.262   2.567  0.0408 -0.2413  0.3943
   12CHTO   H68 4921   6.872   9.314   2.502  0.0249 -0.8924 -0.1421
   12CHTO   C39 4922   6.629   9.148   2.655  0.5043 -0.0618  0.1155
   12CHTO   H81 4923   6.684   9.177   2.745 -2.4513 -0.6430  2.1697
   12CHTO    N7 4924   6.533   9.263   2.656 -0.0726 -0.2875  0.0421
   12CHTO   H73 4925   6.585   9.358   2.652  2.5236 -1.6606  0.1957
   12CHTO   H74 4926   6.468   9.260   2.741 -0.2517 -0.4024 -0.0994
   12CHTO   C40 4927   6.561   9.007   2.661 -0.4381  0.7383  0.3368
   12CHTO   H82 4928   6.503   8.989   2.570  0.6115 -2.2607  0.2049
   12CHTO   O26 4929   6.663   8.909   2.680 -0.6104  0.0956  0.0843
   12CHTO   C41 4930   6.731   8.887   2.540  0.2490  1.2044  0.3008
   12CHTO   H83 4931   6.649   8.867   2.469  1.1281 -2.3267  0.1596
   12CHTO   C52 4932   6.828   8.767   2.544  0.0644 -0.2328 -0.3706
   12CHTO   O35 4933   6.757   8.641   2.599 -0.5465 -0.0538  0.5897
   12CHTO   H71 4934   6.724   8.651   2.686  0.2016 -1.9035  1.1037
   12CHTO   O28 4935   6.485   8.985   2.776  0.0155  0.5663  0.0494
   12CHTO   C42 4936   6.356   8.925   2.794 -0.1496  0.1101  0.4552
   12CHTO   H84 4937   6.377   8.854   2.874  0.5363 -0.6976 -0.4350
   12CHTO   C44 4938   6.311   8.830   2.672  0.0057 -0.6643 -0.1303
   12CHTO   H86 4939   6.314   8.892   2.583 -0.4802  2.2502  1.8225
   12CHTO   O32 4940   6.404   8.719   2.669  0.0320  0.0862 -1.0296
   12CHTO   H69 4941   6.393   8.661   2.595 -0.8421 -1.3327  0.1863
   12CHTO   C48 4942   6.164   8.770   2.697 -0.4603  0.2044  0.0332
   12CHTO   H90 4943   6.168   8.685   2.765 -1.3946  0.5410  0.5119
   12CHTO    N9 4944   6.106   8.707   2.567 -0.0046  0.4670 -0.0892
   12CHTO   H77 4945   6.163   8.757   2.489 -2.6641 -0.2685 -2.5751
   12CHTO   H78 4946   6.003   8.735   2.555 -0.1018  0.8157  1.4521
   12CHTO   C51 4947   6.061   8.874   2.747  0.3604 -0.1379 -0.1630
   12CHTO   H93 4948   6.042   8.949   2.670  1.6229 -0.0383 -0.3825
   12CHTO   O30 4949   6.115   8.935   2.870 -0.2264 -0.1416  0.2389
   12CHTO   C46 4950   6.246   9.016   2.849  0.2303 -0.2812 -0.5919
   12CHTO   H88 4951   6.232   9.086   2.766  0.0067 -1.0663 -1.2285
   12CHTO   C53 4952   6.278   9.088   2.987 -0.2500  0.0486 -0.5054
   12CHTO   O72 4953   6.310   9.007   3.101 -0.0534  0.3223 -0.0709
   12CHTO  H199 4954   6.379   8.945   3.094 -0.9346 -0.7165  0.3850
   12CHTO   O22 4955   5.938   8.797   2.790 -0.2532  0.6770 -0.6661
   12CHTO   C31 4956   5.803   8.841   2.841 -0.4801 -0.2635  0.8840
   12CHTO   H59 4957   5.760   8.750   2.887 -2.8689 -0.8095 -2.2967
   12CHTO   C29 4958   5.796   8.958   2.942 -0.2923 -0.2915 -0.0926
   12CHTO   H57 4959   5.843   9.051   2.907 -1.3946 -0.0420 -0.9045
   12CHTO   O21 4960   5.888   8.912   3.041 -0.1470  0.0950  0.2315
   12CHTO   H37 4961   5.881   8.957   3.123 -0.9049  2.1446 -0.9193
   12CHTO   C27 4962   5.652   8.980   2.995 -0.0041  0.4565 -0.7856
   12CHTO   H55 4963   5.622   8.889   3.048 -0.0147 -0.0855 -1.7076
   12CHTO    N5 4964   5.654   9.096   3.090 -0.0037 -0.2278  0.0919
   12CHTO   H43 4965   5.677   9.179   3.026  1.5961 -1.4931 -1.0141
   12CHTO   H44 4966   5.555   9.101   3.134  0.0544  0.7014  0.1232
   12CHTO   C25 4967   5.559   9.005   2.874  0.0142 -0.5728 -0.9528
   12CHTO   H53 4968   5.595   9.094   2.820  0.4669 -1.3964 -2.0607
   12CHTO   O17 4969   5.572   8.890   2.784  0.6829 -0.5363  0.4206
   12CHTO   C32 4970   5.704   8.868   2.726  0.2230 -0.0963 -0.5990
   12CHTO   H60 4971   5.735   8.955   2.668  2.9764 -2.9475 -3.5489
   12CHTO   C36 4972   5.689   8.750   2.635  0.3268 -0.5826  0.1287
   12CHTO   O25 4973   5.797   8.747   2.541 -0.2461  0.3489  0.2464
   12CHTO   H40 4974   5.865   8.687   2.563  0.0826  0.2831 -0.8833
   12CHTO   O15 4975   5.400   9.033   2.914 -0.1396  0.4388 -0.5877
   12CHTO   C19 4976   5.284   9.036   2.826  0.8270  0.1451  0.4407
   12CHTO   H47 4977   5.219   9.103   2.885  0.5545 -0.5802  0.9644
   12CHTO   C20 4978   5.301   9.086   2.676 -0.3002  0.6575 -0.4283
   12CHTO   H48 4979   5.368   9.024   2.616 -0.9649 -1.1541  0.6768
   12CHTO   O19 4980   5.355   9.214   2.693 -0.6515 -0.2027  0.5815
   12CHTO   H35 4981   5.362   9.257   2.610  2.0580 -1.5579  0.0359
   12CHTO   C21 4982   5.167   9.097   2.592  0.4555 -0.6510  0.2238
   12CHTO   H49 4983   5.102   9.175   2.633  0.3731  0.0071 -1.1299
   12CHTO    N4 4984   5.191   9.136   2.450  0.3992  1.1172  0.3912
   12CHTO   H41 4985   5.200   9.244   2.452  3.1643  0.9108  1.0876
   12CHTO   H42 4986   5.116   9.107   2.378  0.1908 -0.1353  1.1081
   12CHTO   C22 4987   5.092   8.962   2.615 -0.4751 -0.4689  0.3741
   12CHTO   H50 4988   5.145   8.883   2.562  1.6700  1.2208 -0.0758
   12CHTO   O14 4989   5.083   8.918   2.753 -0.1051 -0.2519  0.6807
   12CHTO   C23 4990   5.210   8.903   2.819 -0.1528 -0.1379  0.0883
   12CHTO   H51 4991   5.270   8.825   2.771  0.4950 -0.8192  1.9525
   12CHTO   C34 4992   5.185   8.852   2.961 -0.0938  0.2972 -0.0369
   12CHTO   O23 4993   5.303   8.833   3.049  0.0863 -0.4165  0.5370
   12CHTO   H38 4994   5.286   8.772   3.119  2.8103  0.1847  1.7742
   12CHTO   O16 4995   4.956   8.976   2.581 -0.1511 -0.7637 -0.2185
   12CHTO   C24 4996   4.890   8.845   2.510 -0.1046  0.3574 -0.0182
   12CHTO   H52 4997   4.955   8.758   2.512  0.5319  0.8541  0.7135
   12CHTO   C26 4998   4.857   8.885   2.363  0.1481 -0.0645  0.3533
   12CHTO   H54 4999   4.805   8.983   2.363  2.0311  0.9568 -0.5251
   12CHTO   O20 5000   4.982   8.895   2.285  0.7717 -0.0603  0.5646
   12CHTO   H36 5001   5.025   8.976   2.307  1.6712  0.0963 -1.6005
   12CHTO   C30 5002   4.770   8.780   2.292 -0.3459  0.1366 -0.4081
   12CHTO   H58 5003   4.831   8.691   2.272  1.7873  1.0662  1.7963
   12CHTO    N6 5004   4.718   8.828   2.156  0.2636 -0.2997  0.1480
   12CHTO   H45 5005   4.658   8.749   2.113  1.8879 -1.5903  0.2180
   12CHTO   H46 5006   4.799   8.858   2.092 -0.0142  0.5383  0.1854
   12CHTO   C33 5007   4.647   8.734   2.383  0.0704  0.1340 -0.5065
   12CHTO   H61 5008   4.587   8.825   2.399  1.0907  1.1363 -2.2053
   12CHTO   O18 5009   4.705   8.687   2.512 -0.0125 -0.7995 -0.8012
   12CHTO   C28 5010   4.760   8.798   2.583  0.1068 -0.2990 -0.0217
   12CHTO   H56 5011   4.690   8.881   2.590  0.8224  0.4425 -1.3991
   12CHTO   C35 5012   4.790   8.734   2.722  0.0312 -0.1584 -0.2173
   12CHTO   O24 5013   4.762   8.820   2.828  0.2450  0.1006 -0.4962
   12CHTO   H39 5014   4.780   8.774   2.907  2.1727  0.7435 -0.5327
   12CHTO    O9 5015   4.559   8.635   2.322  0.2245  0.1875  0.0608
   12CHTO   C13 5016   4.610   8.489   2.322  0.5637 -0.3494  0.8742
   12CHTO   H26 5017   4.702   8.484   2.384  0.3390  0.0973  1.2485
   12CHTO   C11 5018   4.632   8.439   2.170 -0.3276 -0.3615  0.0970
   12CHTO   H24 5019   4.713   8.502   2.130 -0.2617  0.7126  1.8598
   12CHTO    O8 5020   4.506   8.458   2.097 -0.3825 -1.1226  0.7203
   12CHTO    H3 5021   4.458   8.378   2.087 -0.7072 -0.7175 -1.1900
   12CHTO    C9 5022   4.688   8.294   2.175  0.1566 -0.1506 -0.4723
   12CHTO   H22 5023   4.784   8.295   2.228 -0.3721  1.2459  0.4918
   12CHTO    N2 5024   4.728   8.245   2.044  0.3893  0.2270 -0.2752
   12CHTO   H10 5025   4.649   8.247   1.971  0.2529  2.2994 -0.0974
   12CHTO   H11 5026   4.823   8.283   2.008  0.8291 -0.1022  0.5212
   12CHTO    C7 5027   4.588   8.197   2.248  0.0053 -0.5288 -0.7255
   12CHTO   H20 5028   4.646   8.107   2.275  1.1811  0.2139 -0.7327
   12CHTO    O4 5029   4.536   8.257   2.378 -0.3344  0.3048  0.2378
   12CHTO   C14 5030   4.505   8.397   2.400 -0.5241 -0.2681  0.9357
   12CHTO   H27 5031   4.520   8.430   2.505 -0.9661  2.0405  0.3050
   12CHTO   C18 5032   4.354   8.420   2.369 -0.3673 -0.6965  0.6203
   12CHTO   O13 5033   4.281   8.333   2.457 -0.2178 -0.4566  0.1653
   12CHTO    H7 5034   4.261   8.252   2.414 -0.7161 -0.0257 -0.4240
   12CHTO    O2 5035   4.445   8.143   2.145  0.2550  0.4743 -0.9317
   12CHTO    C1 5036   4.430   8.004   2.177 -0.3263  0.0426  0.4800
   12CHTO   H14 5037   4.474   7.989   2.278  0.1275 -0.1502  0.2526
   12CHTO    C2 5038   4.503   7.914   2.082 -0.1120  0.6065  0.2213
   12CHTO   H15 5039   4.470   7.940   1.980  0.6833 -0.0168 -0.2035
   12CHTO    O6 5040   4.643   7.939   2.093 -0.4422  0.1721 -0.6785
   12CHTO    H1 5041   4.691   7.891   2.029 -1.9009 -3.0541  0.5297
   12CHTO    C3 5042   4.475   7.760   2.106  0.3954 -0.4590 -0.3932
   12CHTO   H16 5043   4.526   7.741   2.202 -1.1728  2.3951  1.0761
   12CHTO    N1 5044   4.531   7.674   1.990 -0.1134  0.0348 -0.9041
   12CHTO    H8 5045   4.492   7.717   1.898  0.7316 -0.8300 -1.6759
   12CHTO    H9 5046   4.495   7.574   2.007  0.9491  0.2157  2.8876
   12CHTO    C4 5047   4.320   7.724   2.135 -0.0666 -0.3746  0.6489
   12CHTO   H17 5048   4.272   7.725   2.037  1.8951 -1.5643 -0.3614
   12CHTO    O1 5049   4.271   7.820   2.231 -0.8678 -0.2722 -0.2795
   12CHTO    C5 5050   4.285   7.957   2.183  0.3456 -1.0584 -0.0787
   12CHTO   H18 5051   4.247   7.961   2.081  0.6452  1.5747 -0.1167
   12CHTO   C16 5052   4.186   8.036   2.285 -0.0079 -0.4042  0.3335
   12CHTO   O11 5053   4.151   8.172   2.255 -0.6329  0.2006  0.0255
   12CHTO    H5 5054   4.111   8.210   2.331  0.6356  0.4680  0.5598
   12CHTO    O3 5055   4.301   7.593   2.202  0.4661  0.2365 -0.2188
   12CHTO    C6 5056   4.161   7.548   2.223 -0.0226 -0.1604  0.1488
   12CHTO   H19 5057   4.096   7.635   2.215  0.2179  0.0666  0.6347
   12CHTO    C8 5058   4.129   7.448   2.109 -0.0505 -0.3781  0.2219
   12CHTO   H21 5059   4.196   7.362   2.111  1.3614  0.6066 -2.3909
   12CHTO    O7 5060   4.141   7.531   1.993 -0.3386 -0.5320 -0.2646
   12CHTO    H2 5061   4.232   7.541   1.973  0.0329 -0.3930  1.4015
   12CHTO   C12 5062   3.986   7.386   2.115 -0.3563 -0.1722  0.0328
   12CHTO   H25 5063   3.913   7.469   2.107 -1.6568 -1.2956  0.1025
   12CHTO    N3 5064   3.959   7.292   2.011  0.3572 -0.4770  0.3783
   12CHTO   H12 5065   3.854   7.269   2.010 -0.0827  1.5051  0.1374
   12CHTO   H13 5066   3.992   7.332   1.916  1.5185 -2.9797 -0.3220
   12CHTO   C15 5067   3.970   7.323   2.256 -0.2350 -0.1439 -0.3897
   12CHTO   H28 5068   4.051   7.251   2.268  1.1189  1.2320 -1.0920
   12CHTO   O10 5069   3.821   7.266   2.285  0.2147 -0.7045  0.2831
   12CHTO    H4 5070   3.796   7.208   2.215 -1.4694  1.8105 -1.2493
   12CHTO    O5 5071   3.991   7.429   2.351  0.0491 -0.4821  0.0077
   12CHTO   C10 5072   4.130   7.475   2.359 -0.9192 -0.5119 -1.1072
   12CHTO   H23 5073   4.207   7.399   2.376 -3.0441 -2.4868 -0.1122
   12CHTO   C17 5074   4.138   7.573   2.479 -0.3297 -0.4953 -1.1384
   12CHTO   O12 5075   4.036   7.672   2.473 -0.0790  0.4726 -0.2100
   12CHTO    H6 5076   4.062   7.730   2.404 -0.4157  0.0701 -0.6787
   13CHTO  H203 5077   8.659   4.597   1.188  0.0744 -1.7640  0.3469
   13CHTO   O82 5078   8.577   4.612   1.232  0.1409  0.5978 -0.2533
   13CHTO  C123 5079   8.486   4.654   1.129  0.8253  0.1790 -0.5683
   13CHTO  H227 5080   8.487   4.586   1.042 -0.7422  1.5039 -1.6465
   13CHTO   O77 5081   8.360   4.635   1.196 -0.1166 -0.1857  0.3371
   13CHTO  C118 5082   8.238   4.661   1.141  0.9877 -0.2027 -0.2725
   13CHTO  H222 5083   8.220   4.593   1.057 -1.3781 -1.8808  1.5360
   13CHTO  C125 5084   8.123   4.646   1.248  0.0552  0.3322 -0.1012
   13CHTO   O84 5085   8.118   4.510   1.298 -0.5756 -0.7905  0.3770
   13CHTO  H205 5086   8.049   4.505   1.362  0.0282 -1.0023  1.0090
   13CHTO  C114 5087   8.232   4.807   1.093 -0.2984 -0.0195 -0.5171
   13CHTO  H218 5088   8.222   4.870   1.181 -1.4860 -2.0065  0.8127
   13CHTO  C116 5089   8.361   4.847   1.015 -0.2409 -0.2157 -0.4912
   13CHTO  H220 5090   8.363   4.815   0.909  2.1681 -0.1864 -0.4806
   13CHTO   O79 5091   8.364   4.991   1.002 -0.1726 -0.1577 -0.6822
   13CHTO  H201 5092   8.303   5.019   0.937 -2.1531 -0.1097  1.1545
   13CHTO  C120 5093   8.500   4.798   1.078  0.2731  0.5090  0.2710
   13CHTO  H224 5094   8.513   4.863   1.167 -0.2722  1.1439 -0.1078
   13CHTO   N21 5095   8.617   4.813   0.985  0.0971 -0.4978 -0.3797
   13CHTO  H211 5096   8.702   4.848   1.042 -1.4783  0.2593  1.6035
   13CHTO  H212 5097   8.641   4.727   0.924  0.7683  0.0020 -0.8315
   13CHTO   O75 5098   8.114   4.811   1.010  0.1502 -0.0471  0.4100
   13CHTO  C112 5099   8.002   4.944   1.042 -0.1117 -0.3751 -0.0182
   13CHTO  H216 5100   8.060   5.027   1.085  0.8353 -0.3008 -1.4214
   13CHTO   O73 5101   7.906   4.890   1.140  0.8308  0.1075  0.1265
   13CHTO  C113 5102   7.813   4.988   1.187 -0.3765 -0.5488 -0.1415
   13CHTO  H217 5103   7.864   5.072   1.240  0.5504 -0.3635 -1.3094
   13CHTO  C124 5104   7.727   4.923   1.295  0.7141 -0.1981  0.8674
   13CHTO   O83 5105   7.658   5.016   1.381  0.2328  0.0761 -0.5494
   13CHTO  H204 5106   7.598   5.058   1.323 -1.1142 -1.5067 -0.3278
   13CHTO  C109 5107   7.724   5.039   1.067 -0.6321  1.5794  0.2077
   13CHTO  H213 5108   7.677   4.949   1.025  0.7690  1.0989 -0.3629
   13CHTO  C110 5109   7.821   5.095   0.954 -0.0860  1.1852 -0.0874
   13CHTO  H214 5110   7.866   5.187   0.992  0.5862  0.8216  0.0032
   13CHTO   O78 5111   7.731   5.133   0.848  0.1237  0.4744 -0.0624
   13CHTO  H200 5112   7.694   5.218   0.861 -0.8780 -0.2819  2.3711
   13CHTO  C111 5113   7.929   4.990   0.911  0.1068 -0.2370 -0.1723
   13CHTO  H215 5114   7.881   4.897   0.877  0.3813 -0.6682  0.6027
   13CHTO   N19 5115   8.036   5.014   0.811 -0.1032  0.0917 -0.1903
   13CHTO  H207 5116   7.993   5.033   0.713  0.5195  0.0818 -0.4633
   13CHTO  H208 5117   8.097   4.925   0.813  1.1590  0.9710  1.2391
   13CHTO   O74 5118   7.626   5.136   1.109  0.2275  0.4578  0.1342
   13CHTO  C115 5119   7.480   5.121   1.066 -0.6398 -0.0128  0.3643
   13CHTO  H219 5120   7.461   5.156   0.965 -0.6006  0.3165  0.4676
   13CHTO   O76 5121   7.442   4.968   1.059  0.2166 -0.4340 -0.3919
   13CHTO  C122 5122   7.303   4.950   1.021 -0.2737 -0.2726  0.3442
   13CHTO  H226 5123   7.276   4.845   1.025 -2.5355  0.3082  1.0413
   13CHTO  C126 5124   7.268   5.002   0.879  0.0889  0.7932 -0.4045
   13CHTO   O85 5125   7.355   4.965   0.778 -0.0974  0.7801  0.0860
   13CHTO  H206 5126   7.320   5.000   0.698 -2.9043 -4.0480 -1.0094
   13CHTO  C121 5127   7.206   5.017   1.127 -0.0748  0.0567  0.5582
   13CHTO  H225 5128   7.107   5.007   1.079  0.4311  0.6130 -0.6164
   13CHTO   O81 5129   7.208   4.950   1.254  0.1749 -0.0853 -0.3712
   13CHTO  H202 5130   7.291   4.944   1.298  0.4701  2.4473 -0.5401
   13CHTO  C119 5131   7.235   5.168   1.147  0.6410  0.2107 -0.7457
   13CHTO  H223 5132   7.209   5.216   1.053 -0.3497 -0.9472 -1.0860
   13CHTO  C117 5133   7.388   5.197   1.170  0.0919  0.2004  0.1647
   13CHTO  H221 5134   7.437   5.165   1.263 -0.7055  0.1430  0.5669
   13CHTO   N20 5135   7.415   5.345   1.166 -0.1609 -0.0849 -0.1056
   13CHTO  H209 5136   7.417   5.378   1.064 -2.7126  0.4592 -0.0215
   13CHTO  H210 5137   7.508   5.367   1.217 -0.6789 -0.1426  0.8755
   13CHTO   O80 5138   7.119   5.235   1.252  0.2458 -0.1914 -0.1293
   13CHTO  C103 5139   6.994   5.289   1.190 -0.0380 -0.4734 -0.5060
   13CHTO  H190 5140   6.946   5.344   1.271 -1.3075 -0.7936 -1.0312
   13CHTO  C101 5141   7.001   5.384   1.067  0.3617 -0.4630  0.0807
   13CHTO  H188 5142   7.067   5.341   0.992  1.8986  1.7746  0.1291
   13CHTO   O68 5143   7.076   5.525   1.128  0.0035  0.1168  0.4517
   13CHTO  H168 5144   7.163   5.495   1.149  0.0342  0.1075  0.3144
   13CHTO   C99 5145   6.855   5.422   1.007  0.2737 -0.0091  0.1514
   13CHTO  H186 5146   6.803   5.470   1.093  0.3777  0.2741  0.0593
   13CHTO   N17 5147   6.862   5.517   0.892  0.2313  0.0197 -0.4515
   13CHTO  H174 5148   6.828   5.616   0.919  0.8246  0.1633 -0.2287
   13CHTO  H175 5149   6.961   5.522   0.850  0.5835 -0.2327  0.3569
   13CHTO   C97 5150   6.771   5.293   0.986 -0.6356  0.1871 -0.5445
   13CHTO  H184 5151   6.811   5.235   0.902 -0.5090 -1.5728  0.7051
   13CHTO   O64 5152   6.770   5.218   1.111 -0.0855 -0.1509 -0.3507
   13CHTO  C104 5153   6.895   5.172   1.157 -0.1225  0.1305  0.9846
   13CHTO  H191 5154   6.931   5.115   1.072 -0.1935  0.3225  0.8256
   13CHTO  C108 5155   6.881   5.067   1.265 -0.1878 -0.3005  0.0882
   13CHTO   O71 5156   6.783   4.965   1.232  0.0846 -0.6606  0.4394
   13CHTO  H171 5157   6.790   4.940   1.141 -0.8398 -0.7158  0.3856
   13CHTO   O62 5158   6.636   5.325   0.952 -0.0140 -0.6067 -0.3030
   13CHTO   C91 5159   6.551   5.217   0.924  0.1085  0.0617  0.1163
   13CHTO  H178 5160   6.597   5.124   0.955 -1.6321 -0.5902  0.7666
   13CHTO   C92 5161   6.543   5.215   0.771  0.2760 -0.6579  0.1586
   13CHTO  H179 5162   6.530   5.319   0.738 -3.3508 -0.4701  1.9168
   13CHTO   O66 5163   6.678   5.186   0.723 -0.3219  0.5059  0.2983
   13CHTO  H166 5164   6.676   5.153   0.635 -0.9855  1.5548 -0.0933
   13CHTO   C93 5165   6.439   5.116   0.710 -0.5917  0.0441  0.6603
   13CHTO  H180 5166   6.498   5.023   0.718  1.0340  1.0373  0.5371
   13CHTO   N16 5167   6.404   5.140   0.568 -0.1535 -0.6687  0.0496
   13CHTO  H172 5168   6.482   5.187   0.509 -1.1447  0.2424 -0.5707
   13CHTO  H173 5169   6.357   5.062   0.509  0.3518 -0.1300 -1.0865
   13CHTO   C94 5170   6.305   5.102   0.793 -0.2329  0.3662 -0.5033
   13CHTO  H181 5171   6.239   5.187   0.778  0.6588  1.1635  0.0933
   13CHTO   O61 5172   6.332   5.102   0.933 -0.2741 -0.2002 -0.1738
   13CHTO   C95 5173   6.404   5.218   0.987  0.6548 -0.5345 -0.0310
   13CHTO  H182 5174   6.344   5.307   0.967  1.7007  0.7519  2.3175
   13CHTO  C106 5175   6.420   5.202   1.144 -0.5885  0.1793 -0.3028
   13CHTO   O69 5176   6.460   5.331   1.197  0.2804  0.2971  0.5726
   13CHTO  H169 5177   6.412   5.340   1.277  0.5091  1.7895  0.5636
   13CHTO   O63 5178   6.207   4.964   0.739  0.3810 -0.1783  0.0639
   13CHTO   C96 5179   6.063   4.942   0.804 -0.5833 -0.1667  0.1696
   13CHTO  H183 5180   6.008   4.859   0.759 -1.0842 -0.3800  1.1437
   13CHTO   C98 5181   5.976   5.065   0.795 -0.3767 -0.7125  0.1381
   13CHTO  H185 5182   6.030   5.154   0.831 -0.6771 -0.5613  0.2168
   13CHTO   O67 5183   5.956   5.086   0.654 -0.0862  0.6648  0.4323
   13CHTO  H167 5184   5.878   5.136   0.641 -2.6360 -3.5170 -1.3785
   13CHTO  C102 5185   5.834   5.040   0.874 -0.6793  0.6261 -0.4071
   13CHTO  H189 5186   5.783   4.962   0.815  0.1850  0.3313 -0.7678
   13CHTO   N18 5187   5.738   5.155   0.870  0.1289  0.1008  0.1821
   13CHTO  H176 5188   5.757   5.227   0.948  1.2436  0.9868 -0.8896
   13CHTO  H177 5189   5.732   5.199   0.772 -1.6323 -0.0825  0.2002
   13CHTO  C105 5190   5.871   4.999   1.020 -0.4994 -0.0677  0.3505
   13CHTO  H192 5191   5.926   5.080   1.068  1.0763 -0.8451 -0.1036
   13CHTO   O65 5192   5.965   4.889   1.035 -0.3010  0.8207  0.0218
   13CHTO  C100 5193   6.086   4.901   0.956 -0.1259  0.3975  0.5352
   13CHTO  H187 5194   6.145   4.977   1.010 -0.8145  0.9567  0.5114
   13CHTO  C107 5195   6.155   4.769   0.979 -0.5021 -0.2001  0.7055
   13CHTO   O70 5196   6.297   4.766   0.956 -0.1133 -0.0463 -0.5945
   13CHTO  H170 5197   6.313   4.767   0.864 -0.5890  1.7998 -0.6778
   13CHTO   O57 5198   5.727   4.962   1.099 -0.5793  0.1030  0.0780
   13CHTO   C85 5199   5.649   4.835   1.101 -0.3196  0.4239  0.1336
   13CHTO  H157 5200   5.708   4.749   1.063  0.6867  0.8571  0.6693
   13CHTO   C83 5201   5.531   4.835   0.998  0.0476 -0.0315 -0.6507
   13CHTO  H155 5202   5.586   4.834   0.904  0.8897  1.8346 -0.2037
   13CHTO   O56 5203   5.452   4.954   0.993 -0.8576  0.7368  0.5068
   13CHTO  H135 5204   5.499   5.034   0.977 -0.8789  0.8436  0.9629
   13CHTO   C81 5205   5.454   4.703   1.019  0.3804  0.1678  0.4900
   13CHTO  H153 5206   5.523   4.619   1.009 -0.4696 -0.5911  0.8626
   13CHTO   N14 5207   5.351   4.674   0.912 -0.0385  0.5476  0.7514
   13CHTO  H141 5208   5.277   4.751   0.915 -0.0093  0.6112  0.0292
   13CHTO  H142 5209   5.399   4.670   0.816  0.9445 -1.1071  1.2914
   13CHTO   C79 5210   5.391   4.695   1.164 -0.2628 -0.2238 -0.5222
   13CHTO  H151 5211   5.331   4.604   1.165 -0.0814 -0.3414 -0.2732
   13CHTO   O52 5212   5.511   4.686   1.261  0.0035  0.5418  0.3244
   13CHTO   C86 5213   5.596   4.810   1.247  0.1177  0.3997  0.2820
   13CHTO  H158 5214   5.532   4.896   1.274 -1.1200 -0.3329 -0.2941
   13CHTO   C90 5215   5.717   4.818   1.340 -0.2846  0.5130  0.6494
   13CHTO   O60 5216   5.692   4.833   1.480 -0.6184  0.2664  0.0951
   13CHTO  H138 5217   5.609   4.795   1.501 -1.0136 -0.7004 -2.8942
   13CHTO   O50 5218   5.310   4.804   1.200  0.0203 -0.2919  0.6271
   13CHTO   C73 5219   5.176   4.842   1.241 -0.5030 -0.1566  0.0563
   13CHTO  H145 5220   5.105   4.763   1.213  0.4096 -0.8459 -0.3680
   13CHTO   C74 5221   5.136   4.972   1.166 -0.1947  0.0800 -0.4461
   13CHTO  H146 5222   5.140   4.959   1.057 -1.0526  1.8570 -0.7079
   13CHTO   O54 5223   5.000   4.999   1.207 -0.7620  0.3475  0.0237
   13CHTO  H133 5224   4.993   5.031   1.295 -2.2489  2.2725 -0.7614
   13CHTO   C75 5225   5.243   5.083   1.219 -0.1221 -0.1234 -0.0264
   13CHTO  H147 5226   5.345   5.046   1.209  1.0442  2.3085  2.2046
   13CHTO   N13 5227   5.244   5.202   1.130 -0.2417  0.1023  0.1284
   13CHTO  H139 5228   5.300   5.188   1.038  0.9313 -1.0878  1.0085
   13CHTO  H140 5229   5.148   5.250   1.121  0.0081  0.7003  0.6262
   13CHTO   C76 5230   5.220   5.100   1.376  0.7729 -0.1643  0.3410
   13CHTO  H148 5231   5.114   5.122   1.388  0.5712 -0.5034 -0.8008
   13CHTO   O49 5232   5.263   4.975   1.440 -0.5728  0.1185 -0.1166
   13CHTO   C77 5233   5.175   4.870   1.393 -0.8156 -0.2305  0.5894
   13CHTO  H149 5234   5.073   4.891   1.425 -1.0222  1.6468 -1.2040
   13CHTO   C88 5235   5.218   4.758   1.486 -0.0483 -0.3828 -1.0406
   13CHTO   O58 5236   5.161   4.621   1.441 -0.1827 -0.0358 -0.7272
   13CHTO  H136 5237   5.084   4.599   1.489  1.6841 -1.3476  1.8078
   13CHTO   O51 5238   5.292   5.232   1.435  0.3879 -0.0602 -0.2176
   13CHTO   C78 5239   5.456   5.246   1.456 -0.6177  0.8675 -0.4204
   13CHTO  H150 5240   5.470   5.335   1.522  0.5631 -0.2381  0.8451
   13CHTO   C80 5241   5.521   5.275   1.318 -0.0938 -0.5419  0.5603
   13CHTO  H152 5242   5.504   5.191   1.247  3.8314 -0.7377 -0.2172
   13CHTO   O55 5243   5.455   5.388   1.260 -0.6859  0.3046 -0.6041
   13CHTO  H134 5244   5.366   5.372   1.237 -0.2556 -0.9225 -1.4493
   13CHTO   C84 5245   5.677   5.298   1.348  0.1043 -0.7408  0.4628
   13CHTO  H156 5246   5.689   5.371   1.429 -1.0106 -0.1998  0.1537
   13CHTO   N15 5247   5.755   5.347   1.227 -0.7160 -0.1996  0.7636
   13CHTO  H143 5248   5.807   5.431   1.268  3.0364 -1.0368 -2.1218
   13CHTO  H144 5249   5.689   5.382   1.150  0.0818 -1.7944 -0.6709
   13CHTO   C87 5250   5.743   5.176   1.412  0.5930  0.4625 -0.3918
   13CHTO  H159 5251   5.730   5.094   1.341 -0.9699  1.0534 -0.8079
   13CHTO   O53 5252   5.662   5.152   1.549 -0.4279  0.3713  0.6241
   13CHTO   C82 5253   5.525   5.124   1.523  0.5448  0.3135  0.2554
   13CHTO  H154 5254   5.522   5.032   1.465  0.8861 -0.2747  1.1541
   13CHTO   C89 5255   5.457   5.102   1.658 -0.2305  0.4455 -0.3046
   13CHTO   O59 5256   5.323   5.056   1.681 -0.3253  0.5066  0.1519
   13CHTO  H137 5257   5.309   4.980   1.629 -1.6455  1.0671 -0.3392
   13CHTO   O45 5258   5.896   5.193   1.462  0.4700  0.0060  0.4138
   13CHTO   C67 5259   5.956   5.075   1.520  0.5876 -0.1026  0.0882
   13CHTO  H124 5260   5.912   4.982   1.483 -1.2556  1.5913 -2.1092
   13CHTO   C65 5261   6.105   5.084   1.484  0.0815 -0.1958 -0.2358
   13CHTO  H122 5262   6.108   5.113   1.379  0.6139  0.5912 -0.0103
   13CHTO   O44 5263   6.175   4.966   1.511  0.3547 -0.2178  0.2149
   13CHTO  H102 5264   6.187   4.942   1.601  1.8479 -0.7319 -0.1029
   13CHTO   C63 5265   6.165   5.209   1.557  0.0783  0.0728 -0.5708
   13CHTO  H120 5266   6.106   5.296   1.526 -0.5068 -0.4048 -0.8032
   13CHTO   N11 5267   6.300   5.258   1.500  0.1766 -0.4732 -0.1945
   13CHTO  H108 5268   6.371   5.178   1.503  2.4324  1.5332  2.3557
   13CHTO  H109 5269   6.287   5.289   1.398 -0.3013  1.1881  0.3496
   13CHTO   C61 5270   6.159   5.183   1.717  0.2124 -0.4518 -0.0366
   13CHTO  H118 5271   6.197   5.272   1.769  1.4016 -1.4138  0.7522
   13CHTO   O40 5272   6.011   5.177   1.750 -0.5779  0.3233  0.0949
   13CHTO   C68 5273   5.924   5.087   1.678  0.1118  0.2725 -0.3044
   13CHTO  H125 5274   5.823   5.130   1.695  0.2833  0.5599 -0.0101
   13CHTO   C72 5275   5.927   4.941   1.736  0.4645 -0.3759  0.0513
   13CHTO   O48 5276   5.907   4.949   1.874  0.2021  0.0064 -0.4015
   13CHTO  H105 5277   5.977   4.997   1.914 -0.5749  1.0361 -0.2440
   13CHTO   O38 5278   6.229   5.068   1.758  0.2674  0.5689 -0.5329
   13CHTO   C55 5279   6.320   5.069   1.862  0.1978 -0.1976 -0.1573
   13CHTO  H112 5280   6.353   4.966   1.883  0.8926 -0.2688 -1.5263
   13CHTO   C56 5281   6.265   5.150   1.990 -1.1728 -0.4282  0.2316
   13CHTO  H113 5282   6.227   5.247   1.954  0.5134  0.5930  1.1402
   13CHTO   O42 5283   6.156   5.071   2.036  0.2082 -0.1175 -0.1578
   13CHTO  H100 5284   6.183   4.984   2.058 -0.8226 -0.4366 -0.1391
   13CHTO   C57 5285   6.382   5.179   2.095  0.1004  0.0364 -0.1867
   13CHTO  H114 5286   6.411   5.080   2.132 -0.0464 -0.3355 -1.0629
   13CHTO   N10 5287   6.333   5.266   2.204 -0.2224  0.0975  0.4409
   13CHTO  H106 5288   6.226   5.266   2.195 -0.3479  2.5807  1.5995
   13CHTO  H107 5289   6.358   5.225   2.301  2.0303  1.1866  0.3693
   13CHTO   C58 5290   6.503   5.237   2.020  0.2452  1.4187 -0.3836
   13CHTO  H115 5291   6.474   5.333   1.973 -1.2294  0.5251 -1.3551
   13CHTO   O37 5292   6.552   5.155   1.911  0.1421 -0.4419  0.6088
   13CHTO   C59 5293   6.453   5.134   1.810  0.1803 -0.7675  0.0556
   13CHTO  H116 5294   6.423   5.232   1.772  2.2776 -0.6151 -1.3377
   13CHTO   C70 5295   6.524   5.043   1.700  0.8849 -0.5241  0.8524
   13CHTO   O46 5296   6.578   4.918   1.742  0.2661 -0.0560  0.4540
   13CHTO  H103 5297   6.670   4.933   1.754  0.3843 -0.9344  0.7221
   13CHTO   O39 5298   6.636   5.253   2.123 -0.1388  0.2239 -0.2336
   13CHTO   C60 5299   6.707   5.376   2.095 -0.2463  0.4970  0.0355
   13CHTO  H117 5300   6.682   5.407   1.993  1.0018 -0.4049 -0.5560
   13CHTO   C62 5301   6.662   5.491   2.195 -0.0596  0.3224  0.4640
   13CHTO  H119 5302   6.556   5.508   2.167 -0.4728 -2.6590  0.0072
   13CHTO   O43 5303   6.663   5.450   2.332 -0.2373 -0.1876  0.8104
   13CHTO  H101 5304   6.620   5.521   2.375  1.1067  0.0546  1.7607
   13CHTO   C66 5305   6.750   5.632   2.152 -0.8970 -0.3594 -0.0937
   13CHTO  H123 5306   6.717   5.666   2.054  0.0315  0.1950 -0.2307
   13CHTO   N12 5307   6.714   5.737   2.253  0.2495  0.4217  0.2898
   13CHTO  H110 5308   6.618   5.770   2.216  1.6566  1.3050 -2.6977
   13CHTO  H111 5309   6.786   5.816   2.271 -0.0544  1.1029 -1.4116
   13CHTO   C69 5310   6.907   5.606   2.149 -0.2772  0.5266  0.4766
   13CHTO  H126 5311   6.926   5.578   2.254  1.0788  1.9375  0.6341
   13CHTO   O41 5312   6.941   5.498   2.061 -0.8904  0.5493 -0.8725
   13CHTO   C64 5313   6.867   5.354   2.097 -0.1950  0.1701  0.7713
   13CHTO  H121 5314   6.902   5.330   2.199  0.9468 -0.0783  0.3293
   13CHTO   C71 5315   6.905   5.247   1.987 -0.4357 -0.1202 -0.5916
   13CHTO   O47 5316   7.038   5.201   2.013  0.2430 -0.1648 -0.1819
   13CHTO  H104 5317   7.094   5.253   1.959  0.2811 -0.9436 -0.9157
   13CHTO   O34 5318   6.994   5.727   2.107 -0.1712  0.0548  0.6303
   13CHTO   C49 5319   7.155   5.726   2.095  0.1570 -0.7548 -1.1891
   13CHTO   H91 5320   7.186   5.623   2.073  1.4694 -0.0077 -3.0131
   13CHTO   C47 5321   7.223   5.771   2.230 -0.2079 -0.0800 -0.0823
   13CHTO   H89 5322   7.332   5.751   2.231  0.2708  2.3785  1.3922
   13CHTO   O33 5323   7.161   5.688   2.334  0.5274  0.0138 -0.0292
   13CHTO   H70 5324   7.154   5.737   2.413  1.5052 -2.4916  1.6914
   13CHTO   C45 5325   7.205   5.932   2.249  0.2631 -0.9716  0.5159
   13CHTO   H87 5326   7.130   5.940   2.329 -1.0743 -0.8939 -0.7257
   13CHTO    N8 5327   7.336   5.984   2.294  0.7452 -0.1829 -0.2136
   13CHTO   H75 5328   7.423   5.920   2.300  1.3881  0.9158  2.7910
   13CHTO   H76 5329   7.331   6.053   2.377  1.6723 -0.1879 -0.1474
   13CHTO   C43 5330   7.143   6.002   2.113 -0.3543 -0.3010 -0.5025
   13CHTO   H85 5331   7.041   5.964   2.111 -0.0132 -1.4290  1.5818
   13CHTO   O29 5332   7.227   5.960   2.006  0.0868 -0.7663 -0.6393
   13CHTO   C50 5333   7.210   5.817   1.978  0.5124 -0.0911 -0.3567
   13CHTO   H92 5334   7.145   5.807   1.890 -0.6141 -0.9904  0.5607
   13CHTO   C54 5335   7.347   5.774   1.922 -0.1283  0.8264  0.8221
   13CHTO   O36 5336   7.444   5.776   2.025  0.1978 -0.2043  0.0774
   13CHTO   H72 5337   7.445   5.866   2.053 -1.8671 -0.3493  0.7321
   13CHTO   O27 5338   7.141   6.147   2.105 -0.0440 -0.1518 -0.5334
   13CHTO   C37 5339   7.079   6.274   2.134  0.1831  0.1476  0.9602
   13CHTO   H79 5340   7.140   6.329   2.207  1.6661 -0.9205  0.5316
   13CHTO   C38 5341   7.091   6.348   2.006  0.4631  0.1373 -0.1464
   13CHTO   H80 5342   7.043   6.292   1.925  0.6808 -0.5717  0.2153
   13CHTO   O31 5343   7.232   6.354   1.972 -0.4721 -0.8113  0.0859
   13CHTO   H68 5344   7.249   6.431   1.922  1.0997 -1.6391 -0.7064
   13CHTO   C39 5345   7.025   6.493   2.009 -0.4990  0.0109 -0.1409
   13CHTO   H81 5346   7.083   6.550   2.081 -0.8812  1.5791 -1.0643
   13CHTO    N7 5347   7.019   6.569   1.884  0.8136  0.1401  0.0395
   13CHTO   H73 5348   7.109   6.553   1.826  0.6298  1.2602 -0.5856
   13CHTO   H74 5349   6.995   6.672   1.906 -0.2215  0.2785 -1.6248
   13CHTO   C40 5350   6.873   6.483   2.073 -0.2610  0.6029 -0.0688
   13CHTO   H82 5351   6.797   6.465   1.997  0.5389  1.0658 -1.0016
   13CHTO   O26 5352   6.866   6.395   2.189 -0.1029 -0.3588 -0.5792
   13CHTO   C41 5353   6.928   6.261   2.172  0.7440  0.1928 -0.2262
   13CHTO   H83 5354   6.869   6.206   2.097 -0.3480  1.1792 -0.1104
   13CHTO   C52 5355   6.913   6.175   2.301 -0.5121  0.5283  0.2405
   13CHTO   O35 5356   6.760   6.165   2.330  0.3724  0.7853  0.1269
   13CHTO   H71 5357   6.725   6.242   2.369  0.0783  0.5090  0.4116
   13CHTO   O28 5358   6.859   6.609   2.140 -0.3582 -0.0469 -0.2687
   13CHTO   C42 5359   6.791   6.734   2.091  0.0641  0.2605  0.0076
   13CHTO   H84 5360   6.814   6.739   1.984 -1.6070  1.0452 -0.3307
   13CHTO   C44 5361   6.855   6.855   2.152  0.5110 -0.1740 -0.0384
   13CHTO   H86 5362   6.833   6.854   2.258 -1.4224  1.5887 -0.3996
   13CHTO   O32 5363   6.999   6.848   2.130 -0.3561 -0.0767 -0.1189
   13CHTO   H69 5364   7.036   6.767   2.161 -0.1827  0.1637  0.3134
   13CHTO   C48 5365   6.801   6.985   2.078 -0.1866  0.0568  0.5464
   13CHTO   H90 5366   6.821   6.976   1.971 -1.1905 -1.2295  0.4532
   13CHTO    N9 5367   6.865   7.114   2.115  0.1718  0.0120 -0.0037
   13CHTO   H77 5368   6.932   7.151   2.040  0.5580  0.1307  0.3953
   13CHTO   H78 5369   6.906   7.089   2.212  0.4755  0.2918 -0.0592
   13CHTO   C51 5370   6.646   6.986   2.078 -0.0310 -0.1341 -0.1442
   13CHTO   H93 5371   6.610   7.024   2.173 -1.6686  0.7666 -1.1064
   13CHTO   O30 5372   6.586   6.866   2.037 -0.2114 -0.0862 -0.5978
   13CHTO   C46 5373   6.638   6.740   2.101 -0.9327  0.5510 -0.9399
   13CHTO   H88 5374   6.615   6.755   2.206  1.5170  2.3865 -0.6063
   13CHTO   C53 5375   6.552   6.629   2.034 -0.1782 -0.0833  0.2715
   13CHTO   O72 5376   6.583   6.616   1.893  0.8921  0.1851  0.2014
   13CHTO  H199 5377   6.528   6.684   1.857  1.1585  0.4025  0.1976
   13CHTO   O22 5378   6.606   7.088   1.982 -0.4220  0.4782  0.0964
   13CHTO   C31 5379   6.472   7.151   1.995 -0.2200 -0.5634 -0.1633
   13CHTO   H59 5380   6.462   7.211   1.902  0.9795  0.6398  0.4614
   13CHTO   C29 5381   6.353   7.055   2.002 -0.3533  1.0057 -0.0421
   13CHTO   H57 5382   6.366   6.992   2.091 -0.0814  1.0459 -0.0513
   13CHTO   O21 5383   6.363   6.978   1.884 -0.6099  0.8090  0.0999
   13CHTO   H37 5384   6.333   6.891   1.902 -0.8355  1.1038  1.2055
   13CHTO   C27 5385   6.218   7.127   2.005  0.5468  0.4643  0.3397
   13CHTO   H55 5386   6.194   7.163   1.904 -0.2027  1.9354  1.0360
   13CHTO    N5 5387   6.102   7.032   2.041 -0.3476 -0.3214  0.5693
   13CHTO   H43 5388   6.052   7.018   1.947  0.9311 -1.6626  0.0564
   13CHTO   H44 5389   6.032   7.079   2.109 -0.9829 -0.3242 -0.0806
   13CHTO   C25 5390   6.226   7.248   2.108  0.2274  0.2071 -0.4369
   13CHTO   H53 5391   6.225   7.205   2.210  0.4024 -4.5206 -2.3118
   13CHTO   O17 5392   6.338   7.331   2.087  0.6328 -0.2319  0.0062
   13CHTO   C32 5393   6.459   7.253   2.108  0.3673  0.0597 -0.0226
   13CHTO   H60 5394   6.452   7.203   2.205 -0.0043 -1.6149 -0.8969
   13CHTO   C36 5395   6.564   7.353   2.128 -0.3570  0.0441 -0.0838
   13CHTO   O25 5396   6.546   7.427   2.249 -0.0194 -0.0628  0.4743
   13CHTO   H40 5397   6.582   7.513   2.234  1.3608 -0.7439 -0.1734
   13CHTO   O15 5398   6.115   7.347   2.117 -0.7361 -0.2466 -0.3147
   13CHTO   C19 5399   5.982   7.395   2.074 -0.4088  0.1983 -0.9391
   13CHTO   H47 5400   5.979   7.495   2.120  1.7312 -1.0048  2.0339
   13CHTO   C20 5401   5.969   7.422   1.921  0.0886 -0.2607 -0.5422
   13CHTO   H48 5402   5.985   7.330   1.862 -0.6748 -0.4660 -0.4373
   13CHTO   O19 5403   6.076   7.514   1.883  0.3564  0.3443  0.1860
   13CHTO   H35 5404   6.092   7.587   1.939 -4.2674  3.0094 -1.6849
   13CHTO   C21 5405   5.827   7.473   1.872 -0.2874 -0.5505  0.6208
   13CHTO   H49 5406   5.812   7.576   1.905 -1.3416 -0.1304 -1.0996
   13CHTO    N4 5407   5.820   7.475   1.724  0.5400 -0.2173 -0.1543
   13CHTO   H41 5408   5.816   7.376   1.680 -0.7987  0.5151 -1.7201
   13CHTO   H42 5409   5.904   7.531   1.685  0.5481  0.2409  0.5179
   13CHTO   C22 5410   5.722   7.383   1.939  0.5319  0.2490 -0.9313
   13CHTO   H50 5411   5.736   7.281   1.904 -2.0967 -1.4309  2.6046
   13CHTO   O14 5412   5.741   7.392   2.081  0.7602  0.2288 -0.1321
   13CHTO   C23 5413   5.855   7.322   2.128 -0.6252  0.3353  0.5267
   13CHTO   H51 5414   5.847   7.220   2.088  0.1237 -0.4634  2.3478
   13CHTO   C34 5415   5.833   7.326   2.279 -0.1852  0.1924  0.5328
   13CHTO   O23 5416   5.938   7.265   2.352 -0.3769 -0.2334 -0.4647
   13CHTO   H38 5417   5.915   7.250   2.441  1.9775  0.7384  0.3393
   13CHTO   O16 5418   5.582   7.428   1.911 -0.0340  0.1140 -0.6547
   13CHTO   C24 5419   5.469   7.352   1.990 -0.5784 -0.0396  0.3944
   13CHTO   H52 5420   5.502   7.324   2.089  1.0130  2.3472  0.5866
   13CHTO   C26 5421   5.436   7.225   1.908  0.0839 -0.3396  0.3939
   13CHTO   H54 5422   5.423   7.260   1.804 -0.8360 -0.3079  0.5134
   13CHTO   O20 5423   5.550   7.140   1.900  0.2888  0.1373  0.1223
   13CHTO   H36 5424   5.620   7.145   1.961  0.7384  2.2917 -0.4956
   13CHTO   C30 5425   5.306   7.157   1.952 -0.6286 -0.2509  0.0833
   13CHTO   H58 5426   5.310   7.123   2.056 -0.7787 -2.8145 -0.7114
   13CHTO    N6 5427   5.278   7.038   1.867  0.2539  0.8395 -0.0689
   13CHTO   H45 5428   5.354   7.024   1.792  0.5023 -0.9767  0.4872
   13CHTO   H46 5429   5.182   7.046   1.819 -0.5120  0.1483  1.3148
   13CHTO   C33 5430   5.197   7.274   1.955 -0.2282  0.5123  0.2924
   13CHTO   H61 5431   5.194   7.312   1.852  1.3335 -0.3501 -0.1021
   13CHTO   O18 5432   5.232   7.378   2.045  0.6042 -0.3024  0.2430
   13CHTO   C28 5433   5.346   7.446   2.007  0.6486 -0.2811 -0.6797
   13CHTO   H56 5434   5.313   7.486   1.911 -0.0746 -0.5440 -0.5420
   13CHTO   C35 5435   5.377   7.554   2.108  0.0893 -0.0588 -0.0389
   13CHTO   O24 5436   5.268   7.648   2.126  0.2213 -0.0821 -0.4866
   13CHTO   H39 5437   5.297   7.732   2.157 -0.3973  0.9922 -2.6894
   13CHTO    O9 5438   5.064   7.220   1.987  0.2269 -0.1546  0.0406
   13CHTO   C13 5439   5.043   7.179   2.127 -0.5611  0.4429 -0.1284
   13CHTO   H26 5440   5.142   7.183   2.177  0.3329  0.4525 -1.8664
   13CHTO   C11 5441   4.985   7.030   2.118  0.1008  0.8817  0.6734
   13CHTO   H24 5442   5.064   6.966   2.075 -1.9908 -0.4545 -1.3139
   13CHTO    O8 5443   4.870   7.022   2.029  0.3338  0.2622 -0.3126
   13CHTO    H3 5444   4.810   7.091   2.048 -0.2918 -0.5874  0.9500
   13CHTO    C9 5445   4.968   6.980   2.260  0.1293  0.0985  0.9379
   13CHTO   H22 5446   5.057   7.011   2.316 -0.8431  1.6411  1.6826
   13CHTO    N2 5447   4.968   6.834   2.280 -0.1185 -0.0914  0.3421
   13CHTO   H10 5448   4.948   6.789   2.183 -0.3050 -1.7902  1.1386
   13CHTO   H11 5449   4.895   6.797   2.350  1.2935  0.5985  2.2185
   13CHTO    C7 5450   4.852   7.068   2.327  0.3182  0.2012  0.8030
   13CHTO   H20 5451   4.889   7.084   2.430  0.1294  2.9761  0.4737
   13CHTO    O4 5452   4.836   7.198   2.265 -0.5186 -0.0831  0.2787
   13CHTO   C14 5453   4.945   7.276   2.216  0.5372  0.2943 -0.3495
   13CHTO   H27 5454   4.991   7.313   2.310  1.2160 -0.3264 -0.4342
   13CHTO   C18 5455   4.874   7.392   2.149  0.0788  0.1718  0.1285
   13CHTO   O13 5456   4.816   7.474   2.256 -0.0670  0.2209 -0.4078
   13CHTO    H7 5457   4.765   7.421   2.314  2.8445 -1.7501  0.4637
   13CHTO    O2 5458   4.698   6.980   2.317  0.0527  0.2254 -1.2442
   13CHTO    C1 5459   4.601   7.023   2.419 -0.3405  0.9334  0.0362
   13CHTO   H14 5460   4.506   6.977   2.384  0.1198 -2.4507  2.9955
   13CHTO    C2 5461   4.579   7.185   2.436 -0.3424  0.8485 -1.6811
   13CHTO   H15 5462   4.682   7.215   2.460 -0.8816 -0.3650  2.7089
   13CHTO    O6 5463   4.533   7.244   2.318  0.4837  0.2599  0.0257
   13CHTO    H1 5464   4.586   7.242   2.241 -0.6739 -1.1268 -0.7741
   13CHTO    C3 5465   4.479   7.216   2.566  0.4928 -0.3381 -0.2137
   13CHTO   H16 5466   4.375   7.191   2.542  1.1550 -0.9874 -2.6000
   13CHTO    N1 5467   4.477   7.360   2.603 -0.4992 -0.5987 -0.8121
   13CHTO    H8 5468   4.547   7.424   2.552 -0.2399 -1.0314 -1.0061
   13CHTO    H9 5469   4.454   7.378   2.707 -0.9840  1.0324 -1.1889
   13CHTO    C4 5470   4.521   7.121   2.690 -0.0022  0.4458  0.3175
   13CHTO   H17 5471   4.613   7.161   2.734  0.1848 -0.7943  1.0786
   13CHTO    O1 5472   4.541   6.981   2.653  0.3540  0.3043  0.5224
   13CHTO    C5 5473   4.636   6.962   2.556 -0.6845  0.0289 -0.7171
   13CHTO   H18 5474   4.722   7.016   2.596 -1.1231  0.8453 -0.8654
   13CHTO   C16 5475   4.674   6.812   2.538 -0.1620  0.1253  0.4803
   13CHTO   O11 5476   4.677   6.747   2.668  0.9482 -0.7282  0.1480
   13CHTO    H5 5477   4.764   6.755   2.702  0.9090 -1.1303  0.3478
   13CHTO    O3 5478   4.428   7.113   2.804 -0.2605  0.2907 -0.2833
   13CHTO    C6 5479   4.316   7.018   2.797 -0.8790 -0.4647  0.1924
   13CHTO   H19 5480   4.302   6.980   2.696  0.3379  2.6067 -1.1987
   13CHTO    C8 5481   4.355   6.907   2.900  0.2118 -0.5869  0.4716
   13CHTO   H21 5482   4.353   6.957   2.997  1.2737 -0.1468  0.2799
   13CHTO    O7 5483   4.488   6.851   2.880 -0.2609 -0.3704 -0.3841
   13CHTO    H2 5484   4.557   6.914   2.886 -0.3490 -0.3225  0.1865
   13CHTO   C12 5485   4.242   6.794   2.895 -1.1545 -0.5848  0.4001
   13CHTO   H25 5486   4.226   6.758   2.791 -0.0992 -0.0856  0.0612
   13CHTO    N3 5487   4.276   6.675   2.985  0.1690 -0.3680  1.0917
   13CHTO   H12 5488   4.372   6.687   3.031  0.6258 -0.2270  0.1173
   13CHTO   H13 5489   4.209   6.666   3.069  0.9849  3.0394  2.1469
   13CHTO   C15 5490   4.115   6.877   2.940  0.4790 -0.2729 -0.3720
   13CHTO   H28 5491   4.141   6.915   3.039  0.2367  1.2202 -0.8575
   13CHTO   O10 5492   3.984   6.793   2.954 -0.0231 -0.0551  0.0073
   13CHTO    H4 5493   3.927   6.816   3.025 -0.6153  0.7047 -0.6979
   13CHTO    O5 5494   4.081   6.975   2.842 -0.0711  0.3135  0.2240
   13CHTO   C10 5495   4.179   7.082   2.839 -0.0723 -0.0275 -0.4503
   13CHTO   H23 5496   4.179   7.120   2.941  0.4100 -1.9285  0.2804
   13CHTO   C17 5497   4.125   7.192   2.745 -0.8264 -0.0627  0.0224
   13CHTO   O12 5498   4.183   7.319   2.773 -0.2861 -0.0821  0.1074
   13CHTO    H6 5499   4.118   7.378   2.807  0.6065  1.5551 -0.9585
   14CHTO  H203 5500   7.234   4.504   1.712 -0.6731  0.2249 -1.4326
   14CHTO   O82 5501   7.148   4.529   1.738 -0.4147 -0.3069  0.0092
   14CHTO  C123 5502   7.086   4.593   1.621  0.0855  0.4010  0.2826
   14CHTO  H227 5503   7.162   4.630   1.551 -0.1770 -1.8147 -1.2241
   14CHTO   O77 5504   7.008   4.481   1.566 -0.7229 -0.4388  0.0704
   14CHTO  C118 5505   6.937   4.507   1.451 -0.3516  0.2826  0.0574
   14CHTO  H222 5506   7.005   4.561   1.384 -0.4625  0.1896 -0.1274
   14CHTO  C125 5507   6.899   4.381   1.368  0.2433 -0.0240  0.2249
   14CHTO   O84 5508   6.792   4.300   1.430 -0.0625  0.4096 -0.3558
   14CHTO  H205 5509   6.797   4.270   1.518  1.5261 -0.9382 -0.8608
   14CHTO  C114 5510   6.818   4.595   1.494 -0.2607 -0.3722  0.6418
   14CHTO  H218 5511   6.766   4.547   1.577 -1.4100 -2.1172 -1.0305
   14CHTO  C116 5512   6.883   4.730   1.534 -0.5148 -0.0283  0.5287
   14CHTO  H220 5513   6.938   4.764   1.443  0.7466  0.6585  1.5173
   14CHTO   O79 5514   6.787   4.832   1.566  0.1273 -0.3167  0.3058
   14CHTO  H201 5515   6.719   4.808   1.627 -0.5073  1.1620  0.1918
   14CHTO  C120 5516   6.985   4.715   1.651  0.5519  0.6563  0.6162
   14CHTO  H224 5517   6.924   4.696   1.742  0.4401 -1.4714  0.1160
   14CHTO   N21 5518   7.064   4.837   1.689 -0.8703  0.0618 -0.0945
   14CHTO  H211 5519   7.159   4.838   1.638 -0.6598 -2.2165  0.1829
   14CHTO  H212 5520   7.074   4.838   1.797  1.3491 -1.0933 -0.2566
   14CHTO   O75 5521   6.733   4.605   1.380 -0.1858 -0.1234  0.2128
   14CHTO  C112 5522   6.563   4.583   1.443 -0.1479 -0.3744  0.3921
   14CHTO  H216 5523   6.550   4.648   1.530  0.1137 -1.6132  1.3631
   14CHTO   O73 5524   6.550   4.446   1.474  0.2189  0.2889 -0.1453
   14CHTO  C113 5525   6.424   4.397   1.524 -0.3390 -0.3960 -0.6078
   14CHTO  H217 5526   6.379   4.456   1.607  0.5729 -1.9943  1.0683
   14CHTO  C124 5527   6.444   4.250   1.562  0.2248  0.1116  0.4010
   14CHTO   O83 5528   6.360   4.205   1.670 -0.6025 -1.0165  1.1310
   14CHTO  H204 5529   6.289   4.262   1.692 -0.1235 -0.2522  0.7405
   14CHTO  C109 5530   6.315   4.424   1.416 -0.1974 -0.2580  0.3300
   14CHTO  H213 5531   6.336   4.352   1.336  1.6565  0.1549  0.4303
   14CHTO  C110 5532   6.315   4.575   1.370  0.1338 -0.1403  0.0310
   14CHTO  H214 5533   6.278   4.637   1.452 -0.9605 -0.3777 -0.2704
   14CHTO   O78 5534   6.216   4.585   1.261  0.4093 -0.0257 -0.2996
   14CHTO  H200 5535   6.234   4.661   1.209 -4.0880  1.7744  0.5990
   14CHTO  C111 5536   6.460   4.617   1.323 -0.0047 -0.5027 -0.2351
   14CHTO  H215 5537   6.491   4.559   1.235  1.4697 -0.5392  0.2952
   14CHTO   N19 5538   6.480   4.757   1.283 -0.0166 -0.1159  0.4852
   14CHTO  H207 5539   6.469   4.821   1.369 -0.6309 -2.5266  2.2487
   14CHTO  H208 5540   6.584   4.768   1.256 -0.1009  0.8879  0.5503
   14CHTO   O74 5541   6.182   4.401   1.473 -0.1239 -0.5503  0.2866
   14CHTO  C115 5542   6.098   4.302   1.385 -0.0478  0.1384 -0.2789
   14CHTO  H219 5543   6.101   4.326   1.278 -2.7354 -2.9954 -1.1252
   14CHTO   O76 5544   6.161   4.140   1.397 -0.0185 -0.1031 -0.3746
   14CHTO  C122 5545   6.083   4.044   1.328  1.1513 -0.0563 -0.5362
   14CHTO  H226 5546   6.137   3.951   1.345  1.1456 -0.1072 -0.7911
   14CHTO  C126 5547   6.084   4.070   1.173 -0.6352 -0.4508  0.3360
   14CHTO   O85 5548   6.027   3.962   1.095  0.0319  0.1080 -0.0766
   14CHTO  H206 5549   6.023   3.982   1.004 -0.6957  1.3414  0.2135
   14CHTO  C121 5550   5.929   4.047   1.386  0.8868  0.0580  0.3913
   14CHTO  H225 5551   5.876   3.970   1.326  0.5221 -0.3373  1.2048
   14CHTO   O81 5552   5.921   4.018   1.526  0.2159 -0.1298 -0.2348
   14CHTO  H202 5553   5.962   4.081   1.582  0.1321 -1.7856  1.7426
   14CHTO  C119 5554   5.862   4.193   1.360 -0.5054  0.2192  0.1482
   14CHTO  H223 5555   5.878   4.212   1.254 -1.8517  2.2295  0.2859
   14CHTO  C117 5556   5.940   4.315   1.429 -0.7002 -0.3438  0.3348
   14CHTO  H221 5557   5.946   4.318   1.537 -0.2258  0.2893  0.2916
   14CHTO   N20 5558   5.885   4.447   1.383 -0.1365 -0.2111  0.0142
   14CHTO  H209 5559   5.818   4.484   1.459  0.0176 -2.1041  1.0944
   14CHTO  H210 5560   5.821   4.440   1.296  1.1279  0.8897 -1.0426
   14CHTO   O80 5561   5.716   4.183   1.372 -0.3527  0.0557  0.6243
   14CHTO  C103 5562   5.631   4.193   1.251  0.4414  0.4438  0.0287
   14CHTO  H190 5563   5.667   4.273   1.187  0.9265  0.9347  0.9070
   14CHTO  C101 5564   5.607   4.062   1.160 -0.1792 -0.2654  0.2032
   14CHTO  H188 5565   5.570   3.975   1.214 -0.6961  0.7368  1.5059
   14CHTO   O68 5566   5.745   4.003   1.088  0.9541 -0.0574 -0.1945
   14CHTO  H168 5567   5.794   3.949   1.147 -1.8843 -1.1200  1.2866
   14CHTO   C99 5568   5.496   4.100   1.051 -0.4465 -0.6139 -0.6438
   14CHTO  H186 5569   5.536   4.177   0.983 -0.7672 -0.2009 -0.3685
   14CHTO   N17 5570   5.447   3.982   0.967  0.9197  0.0015  0.1975
   14CHTO  H174 5571   5.398   3.907   1.026 -0.6340 -0.9463 -2.2112
   14CHTO  H175 5572   5.381   4.015   0.888  0.2598  1.0692  1.1772
   14CHTO   C97 5573   5.380   4.168   1.116 -0.3059 -0.2174 -0.2301
   14CHTO  H184 5574   5.329   4.093   1.178  0.5591  0.4226  1.3100
   14CHTO   O64 5575   5.415   4.281   1.190  0.4089 -0.7961 -0.2479
   14CHTO  C104 5576   5.493   4.244   1.308  0.5593  0.0994 -0.0374
   14CHTO  H191 5577   5.442   4.167   1.366 -0.6974  0.5752 -0.4791
   14CHTO  C108 5578   5.504   4.363   1.399 -0.3565  0.0088  1.2593
   14CHTO   O71 5579   5.370   4.399   1.447  0.1152  0.2106  0.0655
   14CHTO  H171 5580   5.343   4.334   1.508  1.7279  0.7024  1.3489
   14CHTO   O62 5581   5.290   4.233   1.024 -0.3726  0.2587  0.2672
   14CHTO   C91 5582   5.148   4.201   1.054 -0.4155  0.1266  0.3927
   14CHTO  H178 5583   5.143   4.105   1.104  0.5984 -0.2011 -0.1427
   14CHTO   C92 5584   5.066   4.170   0.929  0.2637  0.7242 -0.6854
   14CHTO  H179 5585   5.113   4.094   0.866  0.4582  0.1932  0.0951
   14CHTO   O66 5586   4.937   4.115   0.981  0.1942  0.0361 -0.3526
   14CHTO  H166 5587   4.879   4.186   0.999  0.5490  0.2643 -0.0899
   14CHTO   C93 5588   5.025   4.308   0.854 -0.4556  0.2858 -0.3571
   14CHTO  H180 5589   4.931   4.294   0.800  0.0119  1.1634 -1.4189
   14CHTO   N16 5590   5.127   4.341   0.755 -0.2387 -0.4043  0.5162
   14CHTO  H172 5591   5.114   4.445   0.733 -0.7305 -0.7119 -0.7014
   14CHTO  H173 5592   5.120   4.283   0.664 -1.0184 -1.9516  1.5371
   14CHTO   C94 5593   5.010   4.430   0.957  0.0064  0.6707  0.1303
   14CHTO  H181 5594   5.102   4.487   0.966 -0.4251  1.3203  0.4818
   14CHTO   O61 5595   4.977   4.381   1.089  0.5959  0.4867 -0.1199
   14CHTO   C95 5596   5.088   4.313   1.152  1.1842 -0.6594  0.0558
   14CHTO  H182 5597   5.162   4.384   1.188 -1.1949  0.4256  2.9829
   14CHTO  C106 5598   5.033   4.252   1.283 -0.1922  0.4927 -0.5474
   14CHTO   O69 5599   5.116   4.155   1.348  0.1065  0.0042 -0.2635
   14CHTO  H169 5600   5.080   4.071   1.328 -0.7438  0.3867 -0.3316
   14CHTO   O63 5601   4.898   4.529   0.910  0.4093  0.0162  1.0029
   14CHTO   C96 5602   4.887   4.665   0.986 -0.6218  0.1677  0.7056
   14CHTO  H183 5603   4.980   4.681   1.039 -0.8102  1.3204  0.6994
   14CHTO   C98 5604   4.772   4.674   1.087 -0.0656  0.0824 -1.4014
   14CHTO  H185 5605   4.690   4.615   1.045 -0.7712  0.1913 -0.1834
   14CHTO   O67 5606   4.812   4.611   1.207  0.7706 -0.0502 -0.6992
   14CHTO  H167 5607   4.802   4.518   1.201 -0.8215 -0.1150  2.0276
   14CHTO  C102 5608   4.731   4.823   1.126 -0.1833  0.1056 -0.1733
   14CHTO  H189 5609   4.808   4.863   1.194 -2.6210 -0.2866  2.9088
   14CHTO   N18 5610   4.604   4.832   1.204 -0.6776  0.0916  0.3440
   14CHTO  H176 5611   4.519   4.784   1.157 -1.1008  0.2244  0.9671
   14CHTO  H177 5612   4.584   4.932   1.238 -0.0909 -0.1669  1.5092
   14CHTO  C105 5613   4.721   4.917   1.001 -0.3479  0.1558  0.1996
   14CHTO  H192 5614   4.631   4.898   0.943 -1.0625  1.8317  0.7353
   14CHTO   O65 5615   4.835   4.911   0.922  0.3146  0.3006  0.0501
   14CHTO  C100 5616   4.865   4.780   0.878  0.1704  0.5260  0.2294
   14CHTO  H187 5617   4.797   4.738   0.802 -1.2847  1.4843  0.9878
   14CHTO  C107 5618   4.997   4.794   0.804 -0.1380  0.7656 -0.1565
   14CHTO   O70 5619   5.018   4.903   0.711  0.6999  0.2057  0.7855
   14CHTO  H170 5620   4.941   4.925   0.662  0.9225  1.1674  0.8540
   14CHTO   O57 5621   4.717   5.088   1.077  0.1022  0.2599  0.6852
   14CHTO   C85 5622   4.691   5.207   0.992  0.4847  0.6639  0.0345
   14CHTO  H157 5623   4.619   5.173   0.915  1.6603 -0.8694 -0.4218
   14CHTO   C83 5624   4.817   5.263   0.913  0.2471  0.0168 -0.4250
   14CHTO  H155 5625   4.862   5.190   0.846  1.9665  1.3507 -0.7542
   14CHTO   O56 5626   4.924   5.289   1.007 -0.1553  0.1917  0.1660
   14CHTO  H135 5627   4.890   5.353   1.067 -2.0658 -0.0179 -0.6537
   14CHTO   C81 5628   4.778   5.385   0.827 -0.4428  0.1474  0.5029
   14CHTO  H153 5629   4.689   5.357   0.771 -0.0071  0.1817 -0.2114
   14CHTO   N14 5630   4.881   5.412   0.722  0.3322  0.8809 -0.1118
   14CHTO  H141 5631   4.906   5.512   0.696  1.8211  0.2138 -1.3501
   14CHTO  H142 5632   4.858   5.359   0.632 -0.9827  3.0480 -1.0711
   14CHTO   C79 5633   4.737   5.506   0.915 -0.6739  0.2735  0.5384
   14CHTO  H151 5634   4.700   5.583   0.848 -1.0891 -1.4848 -1.2925
   14CHTO   O52 5635   4.616   5.466   1.001 -0.4887 -0.3144 -0.3488
   14CHTO   C86 5636   4.634   5.338   1.068  0.0644 -0.4649 -0.3546
   14CHTO  H158 5637   4.700   5.371   1.150 -0.5534  0.0087 -0.0392
   14CHTO   C90 5638   4.504   5.312   1.132  0.6691 -0.0204 -0.2306
   14CHTO   O60 5639   4.391   5.304   1.042 -0.0888  0.3927  0.4845
   14CHTO  H138 5640   4.412   5.255   0.964  0.6485  0.0478  0.8988
   14CHTO   O50 5641   4.841   5.569   0.994  0.4249  1.0456 -0.3120
   14CHTO   C73 5642   4.880   5.684   1.074 -0.4715  0.3388 -0.1026
   14CHTO  H145 5643   4.806   5.688   1.155  3.5444  1.5702  3.6715
   14CHTO   C74 5644   4.864   5.822   0.998  0.0595 -0.0626 -0.5178
   14CHTO  H146 5645   4.763   5.821   0.954  0.7381 -0.6355 -2.1344
   14CHTO   O54 5646   4.872   5.929   1.099  0.8028  0.0635 -0.0805
   14CHTO  H133 5647   4.851   6.011   1.061  0.3389 -0.5204 -1.1013
   14CHTO   C75 5648   4.970   5.829   0.884  0.4403  0.1937 -0.8221
   14CHTO  H147 5649   4.957   5.744   0.815  0.7823  1.3407 -2.3330
   14CHTO   N13 5650   4.965   5.967   0.824  0.1510 -0.2552  0.4962
   14CHTO  H139 5651   4.972   5.969   0.716 -0.6919 -0.5048  0.4336
   14CHTO  H140 5652   5.049   6.020   0.865 -1.0138  0.1041  2.4763
   14CHTO   C76 5653   5.113   5.790   0.952  0.0827  0.1563 -0.8573
   14CHTO  H148 5654   5.141   5.875   1.014 -0.5888 -1.9280  2.4240
   14CHTO   O49 5655   5.110   5.662   1.028 -0.2114  0.0274 -0.1271
   14CHTO   C77 5656   5.019   5.664   1.133  0.3176 -0.3987  0.1546
   14CHTO  H149 5657   5.038   5.744   1.205  0.3574 -1.4419  1.3328
   14CHTO   C88 5658   5.028   5.528   1.207  0.4714 -0.4113 -0.0823
   14CHTO   O58 5659   5.129   5.511   1.292  0.4553 -0.0851 -0.6887
   14CHTO  H136 5660   5.098   5.520   1.380  0.9748 -2.4411 -0.2432
   14CHTO   O51 5661   5.216   5.748   0.827  0.4725 -0.1438  0.2534
   14CHTO   C78 5662   5.350   5.779   0.855  0.0838  0.0585  0.2659
   14CHTO  H150 5663   5.355   5.825   0.956 -0.0272  2.9112 -0.9749
   14CHTO   C80 5664   5.393   5.892   0.762  0.2259  0.2071 -0.7427
   14CHTO  H152 5665   5.354   5.876   0.660 -0.4215 -4.0303  0.0778
   14CHTO   O55 5666   5.324   6.012   0.807 -0.5213  0.4242 -0.0522
   14CHTO  H134 5667   5.381   6.065   0.859  1.4360 -1.0394 -0.6257
   14CHTO   C84 5668   5.544   5.906   0.755 -0.1690 -1.1141 -0.1526
   14CHTO  H156 5669   5.581   5.936   0.852 -1.4645  0.6742 -0.1919
   14CHTO   N15 5670   5.586   6.007   0.651  0.7363  0.1246  0.2829
   14CHTO  H143 5671   5.692   6.023   0.650  0.7261  0.1924  0.2235
   14CHTO  H144 5672   5.553   5.960   0.560 -1.2320 -0.2440  1.1793
   14CHTO   C87 5673   5.619   5.773   0.733 -0.4032 -0.2195  0.1125
   14CHTO  H159 5674   5.597   5.724   0.638 -1.5854  0.8129 -0.1521
   14CHTO   O53 5675   5.575   5.678   0.859 -1.3335  0.1846  0.5438
   14CHTO   C82 5676   5.437   5.645   0.848 -0.0274 -0.3287  0.5388
   14CHTO  H154 5677   5.411   5.595   0.755 -0.4412 -2.3587  1.7109
   14CHTO   C89 5678   5.392   5.540   0.957  0.2396  0.3788 -0.1384
   14CHTO   O59 5679   5.388   5.612   1.088 -0.4915 -0.0072 -0.4961
   14CHTO  H137 5680   5.475   5.606   1.123  0.4336 -0.4788 -2.8074
   14CHTO   O45 5681   5.809   5.804   0.746  0.1193 -0.2508  0.3499
   14CHTO   C67 5682   5.882   5.688   0.694  0.2162 -0.2111 -0.5929
   14CHTO  H124 5683   5.810   5.608   0.673 -0.9841  0.5098  0.7572
   14CHTO   C65 5684   5.946   5.737   0.559  0.0599  0.3466 -0.3860
   14CHTO  H122 5685   5.875   5.792   0.498  1.7639  0.3581 -2.4538
   14CHTO   O44 5686   5.984   5.619   0.484  0.0566 -0.1769  0.6021
   14CHTO  H102 5687   5.903   5.587   0.448 -0.2559 -0.0028  1.1385
   14CHTO   C63 5688   6.068   5.835   0.585 -0.7972 -0.0150 -0.2756
   14CHTO  H120 5689   6.035   5.915   0.651  1.3580  0.9609 -0.3254
   14CHTO   N11 5690   6.127   5.912   0.473 -0.5614 -0.0773 -0.2607
   14CHTO  H108 5691   6.161   6.008   0.509  1.9547 -2.6035  4.6289
   14CHTO  H109 5692   6.063   5.928   0.389  1.0857  0.0728 -1.5013
   14CHTO   C61 5693   6.167   5.750   0.671 -0.0123 -0.1861 -0.3441
   14CHTO  H118 5694   6.250   5.818   0.693  0.0901 -0.4807  0.2016
   14CHTO   O40 5695   6.103   5.719   0.800 -0.5123 -0.6825 -0.6333
   14CHTO   C68 5696   5.987   5.633   0.799  0.6095  0.2461  0.0420
   14CHTO  H125 5697   5.939   5.646   0.898  0.5857  3.2163 -0.3184
   14CHTO   C72 5698   6.034   5.483   0.787 -0.2562  0.3208  0.9622
   14CHTO   O48 5699   6.089   5.447   0.912  0.3425  0.0066  0.0397
   14CHTO  H105 5700   6.011   5.414   0.953  1.0381 -1.7705 -0.0230
   14CHTO   O38 5701   6.220   5.631   0.606  0.5892  0.0799 -0.6147
   14CHTO   C55 5702   6.354   5.645   0.551 -0.3278 -0.0244 -0.6557
   14CHTO  H112 5703   6.373   5.751   0.530 -1.2622  0.1186 -0.8165
   14CHTO   C56 5704   6.350   5.560   0.413 -0.3479  0.1107  0.1212
   14CHTO  H113 5705   6.293   5.469   0.436  0.1986  0.0900  1.4334
   14CHTO   O42 5706   6.274   5.637   0.324  0.3517  0.0402  0.1015
   14CHTO  H100 5707   6.186   5.640   0.357  0.6972  0.0734  1.0278
   14CHTO   C57 5708   6.494   5.544   0.353  0.4981 -1.3507 -0.0758
   14CHTO  H114 5709   6.515   5.640   0.305 -0.3577 -1.7818 -1.3393
   14CHTO   N10 5710   6.514   5.438   0.247  0.3368  0.0104  0.5623
   14CHTO  H106 5711   6.430   5.419   0.182 -0.0890 -2.6000  1.7896
   14CHTO  H107 5712   6.604   5.431   0.187 -0.0973  0.8461 -0.1929
   14CHTO   C58 5713   6.602   5.527   0.463 -1.3404  0.3780 -0.3868
   14CHTO  H115 5714   6.601   5.422   0.499  1.3025  0.8428  1.2433
   14CHTO   O37 5715   6.589   5.603   0.584 -0.1596 -0.1357  0.2062
   14CHTO   C59 5716   6.460   5.591   0.644 -0.9232  0.2051  0.0675
   14CHTO  H116 5717   6.443   5.485   0.661  3.4088 -0.5597  0.0588
   14CHTO   C70 5718   6.465   5.671   0.776 -0.1357 -0.1115  0.1076
   14CHTO   O46 5719   6.573   5.655   0.868 -0.5054 -0.1848  0.1480
   14CHTO  H103 5720   6.651   5.690   0.830 -0.9324 -0.9899 -1.4921
   14CHTO   O39 5721   6.745   5.576   0.394 -0.3185 -0.1342 -0.6544
   14CHTO   C60 5722   6.862   5.542   0.469 -0.6301  0.4554  0.3358
   14CHTO  H117 5723   6.832   5.556   0.573 -2.5049  0.7748 -0.2116
   14CHTO   C62 5724   6.891   5.390   0.462  0.3686  0.1906  0.5078
   14CHTO  H119 5725   6.804   5.341   0.510  1.0676 -0.8921  0.7004
   14CHTO   O43 5726   6.889   5.343   0.321 -0.4130 -0.1843 -0.2381
   14CHTO  H101 5727   6.939   5.266   0.304  0.0031 -0.1439  0.7500
   14CHTO   C66 5728   7.025   5.361   0.547  0.2669  0.4821 -0.1913
   14CHTO  H123 5729   7.011   5.405   0.646 -1.7712 -0.6179  0.0384
   14CHTO   N12 5730   7.052   5.220   0.579  0.6965 -0.2494 -0.4017
   14CHTO  H110 5731   7.062   5.193   0.683 -2.7540  1.2140  0.3614
   14CHTO  H111 5732   6.985   5.151   0.529  1.4853 -0.7112 -0.8388
   14CHTO   C69 5733   7.139   5.439   0.479 -0.6288 -0.2827 -0.9513
   14CHTO  H126 5734   7.148   5.409   0.372 -1.8865  0.5066 -1.2914
   14CHTO   O41 5735   7.104   5.602   0.494  0.1032 -0.0320  0.6269
   14CHTO   C64 5736   6.975   5.638   0.430  0.0958 -0.1143  0.2883
   14CHTO  H121 5737   6.993   5.626   0.321  0.9167 -0.9032  0.5032
   14CHTO   C71 5738   6.945   5.786   0.460 -0.1645  0.2422  0.3631
   14CHTO   O47 5739   7.042   5.870   0.389 -0.1170  0.5154 -0.0004
   14CHTO  H104 5740   7.058   5.835   0.303  2.8857  0.6046  0.4901
   14CHTO   O34 5741   7.284   5.399   0.558 -0.0768  0.2212  0.5596
   14CHTO   C49 5742   7.418   5.401   0.525 -0.1814  0.2830 -0.4677
   14CHTO   H91 5743   7.439   5.334   0.442  0.4331 -1.8744  1.4037
   14CHTO   C47 5744   7.494   5.352   0.647 -0.0807  0.1362 -0.2002
   14CHTO   H89 5745   7.597   5.340   0.609 -1.1305 -1.1063 -2.7614
   14CHTO   O33 5746   7.445   5.223   0.698  0.4937 -0.1042  0.0866
   14CHTO   H70 5747   7.519   5.190   0.746  1.6578  1.6678 -0.4680
   14CHTO   C45 5748   7.484   5.466   0.770 -0.1677 -0.7829 -0.3931
   14CHTO   H87 5749   7.390   5.448   0.824  0.0023 -2.0366 -0.5180
   14CHTO    N8 5750   7.601   5.451   0.857 -0.1225  0.5137 -0.4029
   14CHTO   H75 5751   7.637   5.551   0.876 -0.3560  0.1564  2.0717
   14CHTO   H76 5752   7.568   5.406   0.949  1.1268 -0.2025 -0.2878
   14CHTO   C43 5753   7.466   5.610   0.700  0.0401 -0.0543 -0.0684
   14CHTO   H85 5754   7.359   5.605   0.682 -0.3280  1.6853  1.4897
   14CHTO   O29 5755   7.538   5.627   0.576  0.0989  0.3407 -0.2611
   14CHTO   C50 5756   7.475   5.541   0.477 -0.6565 -0.5388  0.1599
   14CHTO   H92 5757   7.396   5.602   0.430  1.1657  2.0654  0.3267
   14CHTO   C54 5758   7.586   5.521   0.360  0.6451 -0.5035  0.3522
   14CHTO   O36 5759   7.654   5.645   0.336 -0.2047 -0.5156 -0.8659
   14CHTO   H72 5760   7.709   5.646   0.260 -1.7669 -1.1784 -2.0188
   14CHTO   O27 5761   7.484   5.719   0.791  0.1737 -0.4608  0.2918
   14CHTO   C37 5762   7.397   5.834   0.828 -0.2145  0.3514 -0.2983
   14CHTO   H79 5763   7.468   5.906   0.871  1.4819 -0.2504 -2.0334
   14CHTO   C38 5764   7.335   5.907   0.701  0.0425  0.5883 -0.2046
   14CHTO   H80 5765   7.272   5.839   0.642  0.8776  0.8278 -1.4129
   14CHTO   O31 5766   7.442   5.954   0.615  0.7649 -0.4293  0.3119
   14CHTO   H68 5767   7.404   6.001   0.544  1.7938  0.4207  0.3114
   14CHTO   C39 5768   7.243   6.021   0.751  0.8138 -0.1007  0.1823
   14CHTO   H81 5769   7.305   6.088   0.811  0.4976 -0.0322  0.4340
   14CHTO    N7 5770   7.185   6.104   0.646  0.0578  0.1186  0.2415
   14CHTO   H73 5771   7.123   6.182   0.687  2.0297  2.2056 -0.6784
   14CHTO   H74 5772   7.129   6.048   0.572 -0.0235  0.2301  0.2189
   14CHTO   C40 5773   7.136   5.963   0.846  0.4230 -0.4457 -0.1850
   14CHTO   H82 5774   7.074   5.887   0.797  0.0791  0.4219 -1.1161
   14CHTO   O26 5775   7.199   5.909   0.965  0.4890  0.1279  0.2887
   14CHTO   C41 5776   7.288   5.801   0.936 -0.2671  0.1935  1.6789
   14CHTO   H83 5777   7.234   5.714   0.897  0.8398  0.4261 -0.4479
   14CHTO   C52 5778   7.353   5.750   1.061  0.5756  0.7258 -0.4028
   14CHTO   O35 5779   7.423   5.863   1.136  0.0933 -0.0879 -0.4942
   14CHTO   H71 5780   7.512   5.842   1.157 -0.0284 -1.5653 -1.3442
   14CHTO   O28 5781   7.047   6.068   0.902 -0.1122 -0.0827  0.3782
   14CHTO   C42 5782   6.919   6.040   0.972  0.2469  0.2232  0.1924
   14CHTO   H84 5783   6.881   6.139   0.998 -1.4037 -0.1148 -0.8497
   14CHTO   C44 5784   6.948   5.969   1.109  0.0527  0.1837 -0.0881
   14CHTO   H86 5785   6.996   5.875   1.082  1.7502  1.5413 -1.9048
   14CHTO   O32 5786   7.033   6.055   1.189  0.1216 -0.1314 -0.7515
   14CHTO   H69 5787   7.115   6.069   1.146  0.8600  0.7274  0.8942
   14CHTO   C48 5788   6.814   5.935   1.189  0.4306 -0.2024  0.0943
   14CHTO   H90 5789   6.763   6.026   1.219  0.6327  0.3811 -1.2954
   14CHTO    N9 5790   6.841   5.861   1.313  0.0187  0.2046  0.4433
   14CHTO   H77 5791   6.876   5.760   1.292 -1.4945 -0.2097 -0.1197
   14CHTO   H78 5792   6.923   5.911   1.362 -0.7072  2.0598 -0.1881
   14CHTO   C51 5793   6.706   5.865   1.106 -0.4614 -0.3711  0.6273
   14CHTO   H93 5794   6.734   5.761   1.087 -0.1586  0.2299 -2.5838
   14CHTO   O30 5795   6.685   5.936   0.981  0.5298 -0.4262  0.1777
   14CHTO   C46 5796   6.809   5.958   0.890  0.4743  0.9677  0.5364
   14CHTO   H88 5797   6.842   5.859   0.858  0.7056  0.6078  1.8616
   14CHTO   C53 5798   6.775   6.031   0.760 -0.7348  0.4591 -0.4620
   14CHTO   O72 5799   6.659   5.980   0.692  1.0575 -0.2259  0.4154
   14CHTO  H199 5800   6.648   5.893   0.725 -0.3139  0.0186  0.6284
   14CHTO   O22 5801   6.576   5.876   1.166 -0.1493  0.3766 -0.3408
   14CHTO   C31 5802   6.439   5.838   1.121  0.1891 -0.0095  0.6228
   14CHTO   H59 5803   6.448   5.821   1.012  0.8013 -1.2993  0.8587
   14CHTO   C29 5804   6.372   5.714   1.187  0.2815  0.2458  0.2681
   14CHTO   H57 5805   6.370   5.731   1.295  2.1565  1.1408  0.1841
   14CHTO   O21 5806   6.467   5.608   1.171 -0.7454  0.0305 -0.0220
   14CHTO   H37 5807   6.451   5.542   1.236 -0.5234  1.0973  1.1329
   14CHTO   C27 5808   6.225   5.682   1.143  0.4418 -0.3045  0.2891
   14CHTO   H55 5809   6.213   5.664   1.035 -0.5289 -1.3603  0.5649
   14CHTO    N5 5810   6.170   5.566   1.222 -0.1843  0.7980  0.3275
   14CHTO   H43 5811   6.073   5.537   1.186 -1.7404  2.7726  2.6845
   14CHTO   H44 5812   6.170   5.592   1.327  0.2592  0.4440  0.4163
   14CHTO   C25 5813   6.145   5.816   1.160  0.0935 -0.6512  0.1308
   14CHTO   H53 5814   6.143   5.844   1.266  1.4359 -1.3646  0.3566
   14CHTO   O17 5815   6.209   5.930   1.096  0.3239  0.0415  0.3320
   14CHTO   C32 5816   6.346   5.962   1.130 -1.0601 -0.1590 -0.4367
   14CHTO   H60 5817   6.342   5.984   1.237 -0.7905 -1.7975 -0.0670
   14CHTO   C36 5818   6.386   6.057   1.019  0.3557 -0.6634  0.3580
   14CHTO   O25 5819   6.358   6.005   0.889 -0.3093 -0.3897 -0.0680
   14CHTO   H40 5820   6.266   6.011   0.872 -0.3232  0.8304  0.4328
   14CHTO   O15 5821   5.993   5.802   1.104  0.4578  0.5628 -0.0933
   14CHTO   C19 5822   5.858   5.860   1.082  0.4568 -1.1161  0.3664
   14CHTO   H47 5823   5.828   5.829   0.981  0.4570 -0.2454  0.0923
   14CHTO   C20 5824   5.740   5.823   1.187 -0.2681 -0.6201  0.0730
   14CHTO   H48 5825   5.767   5.856   1.289  1.3417  0.9689 -0.8370
   14CHTO   O19 5826   5.731   5.680   1.187 -0.3083  0.1026 -0.0744
   14CHTO   H35 5827   5.655   5.654   1.235 -1.0749 -0.0207 -1.3350
   14CHTO   C21 5828   5.599   5.896   1.146  1.2196  0.7857 -0.1780
   14CHTO   H49 5829   5.562   5.854   1.053 -1.1872 -0.9875  1.5481
   14CHTO    N4 5830   5.488   5.869   1.245  0.1510  0.3680  0.6953
   14CHTO   H41 5831   5.465   5.957   1.304  0.5693  0.0223  1.3779
   14CHTO   H42 5832   5.398   5.842   1.193 -0.8490 -1.0525  3.0790
   14CHTO   C22 5833   5.615   6.048   1.125  0.0586 -0.2314 -0.1001
   14CHTO   H50 5834   5.635   6.089   1.224 -1.1749  1.8652 -0.7142
   14CHTO   O14 5835   5.730   6.079   1.044 -0.1433 -0.3155  0.2519
   14CHTO   C23 5836   5.861   6.018   1.083  0.2784 -0.3029 -0.4060
   14CHTO   H51 5837   5.890   6.059   1.181 -1.6848  1.2928 -0.4533
   14CHTO   C34 5838   5.958   6.077   0.981 -0.1698 -0.1940  0.3231
   14CHTO   O23 5839   5.969   6.211   1.026  0.1614 -0.4768 -0.1985
   14CHTO   H38 5840   6.020   6.259   0.964 -1.4266  2.5596  0.7531
   14CHTO   O16 5841   5.505   6.115   1.053  0.6399 -0.1684 -0.2134
   14CHTO   C24 5842   5.487   6.290   1.042  0.0158 -0.2072  0.3591
   14CHTO   H52 5843   5.441   6.324   0.949  2.9937  1.3315 -0.6123
   14CHTO   C26 5844   5.630   6.356   1.054  0.1916  0.0988  0.5300
   14CHTO   H54 5845   5.685   6.313   1.140 -0.3232 -0.9127  0.3725
   14CHTO   O20 5846   5.686   6.325   0.929 -0.2301  0.0073  0.1667
   14CHTO   H36 5847   5.772   6.359   0.915 -1.1011  1.2677 -2.3968
   14CHTO   C30 5848   5.610   6.508   1.079  0.7901 -0.0672  0.3832
   14CHTO   H58 5849   5.565   6.543   0.985  1.3145  2.1826  0.9286
   14CHTO    N6 5850   5.747   6.578   1.092  0.5029 -0.3747  0.0500
   14CHTO   H45 5851   5.742   6.680   1.056 -0.5652 -0.5517 -0.3227
   14CHTO   H46 5852   5.758   6.582   1.199 -1.8978  1.3348  0.2705
   14CHTO   C33 5853   5.500   6.528   1.193 -0.7816  1.2228 -0.1748
   14CHTO   H61 5854   5.539   6.485   1.287 -0.7108 -2.8029 -1.9327
   14CHTO   O18 5855   5.377   6.457   1.154  0.0531  0.4767  0.2131
   14CHTO   C28 5856   5.388   6.319   1.153 -0.4017 -0.1404 -0.3194
   14CHTO   H56 5857   5.431   6.281   1.246  0.4520  0.9036 -0.2753
   14CHTO   C35 5858   5.253   6.247   1.133  0.1662 -0.0892 -0.4662
   14CHTO   O24 5859   5.195   6.293   1.016 -0.1261  0.0711  0.6490
   14CHTO   H39 5860   5.128   6.233   0.991 -0.3740  0.2845  0.8060
   14CHTO    O9 5861   5.478   6.664   1.223  0.3213  0.2172 -0.6458
   14CHTO   C13 5862   5.415   6.706   1.367 -0.9132 -0.5657 -0.1465
   14CHTO   H26 5863   5.442   6.631   1.444 -1.8663  0.3557  1.1045
   14CHTO   C11 5864   5.256   6.715   1.344 -0.3392  0.0798 -0.5611
   14CHTO   H24 5865   5.213   6.615   1.330 -3.4760  1.3737 -0.7142
   14CHTO    O8 5866   5.230   6.780   1.218  0.3441  0.2889  0.0727
   14CHTO    H3 5867   5.245   6.729   1.141  0.8614 -1.0773  1.0479
   14CHTO    C9 5868   5.194   6.787   1.467  0.3036 -0.5642 -0.8589
   14CHTO   H22 5869   5.236   6.740   1.557 -0.0709  1.5011  0.4285
   14CHTO    N2 5870   5.050   6.761   1.487  0.3801  0.4939 -0.3390
   14CHTO   H10 5871   5.002   6.790   1.395 -0.0173 -0.5404 -0.4754
   14CHTO   H11 5872   5.028   6.658   1.512  1.1011  0.8447  1.8630
   14CHTO    C7 5873   5.245   6.935   1.466  0.9755 -0.3156  0.0522
   14CHTO   H20 5874   5.246   6.953   1.576 -0.1139  2.6225 -0.3553
   14CHTO    O4 5875   5.379   6.949   1.413  0.0420 -0.3634 -0.3903
   14CHTO   C14 5876   5.477   6.847   1.414  0.6966  0.6730 -0.3211
   14CHTO   H27 5877   5.503   6.832   1.521 -0.6147  1.6886  0.1496
   14CHTO   C18 5878   5.597   6.895   1.336  0.2738 -0.4350 -0.7123
   14CHTO   O13 5879   5.707   6.814   1.384 -0.2463  0.7295 -0.3887
   14CHTO    H7 5880   5.756   6.777   1.314  0.3532  1.7543 -0.5223
   14CHTO    O2 5881   5.152   7.035   1.380  0.5778 -0.3136 -0.3286
   14CHTO    C1 5882   5.157   7.178   1.413 -0.1969 -0.3271 -0.2866
   14CHTO   H14 5883   5.105   7.229   1.329 -0.9477  0.2863  0.5368
   14CHTO    C2 5884   5.304   7.239   1.423  0.1634 -0.0534 -0.2353
   14CHTO   H15 5885   5.352   7.185   1.506  1.8430  1.8766  0.0876
   14CHTO    O6 5886   5.392   7.224   1.318  0.1178  0.3893  0.2814
   14CHTO    H1 5887   5.384   7.137   1.284  2.2140  0.2425  0.1294
   14CHTO    C3 5888   5.304   7.397   1.464 -0.0112 -0.0687 -0.4613
   14CHTO   H16 5889   5.260   7.444   1.375 -0.3203 -0.7442 -0.6735
   14CHTO    N1 5890   5.442   7.452   1.502  0.1566  0.1534  0.0890
   14CHTO    H8 5891   5.513   7.447   1.421  3.2024 -0.1691  2.6682
   14CHTO    H9 5892   5.474   7.392   1.586 -0.8180  0.7783  0.9103
   14CHTO    C4 5893   5.200   7.430   1.578  0.4692 -0.1830 -0.1089
   14CHTO   H17 5894   5.251   7.424   1.674 -2.1710 -0.0845  1.3403
   14CHTO    O1 5895   5.075   7.348   1.572 -0.3386 -0.3472 -0.1642
   14CHTO    C5 5896   5.082   7.208   1.546 -0.5401  0.0682  0.1096
   14CHTO   H18 5897   5.152   7.161   1.615  0.6503  0.9095 -0.5070
   14CHTO   C16 5898   4.944   7.134   1.553 -0.2431 -0.2660 -0.3840
   14CHTO   O11 5899   4.882   7.153   1.686 -0.0238  0.9755 -0.5997
   14CHTO    H5 5900   4.916   7.089   1.745 -3.4615  0.4748  0.9583
   14CHTO    O3 5901   5.155   7.566   1.566 -0.1005 -0.0634  0.5455
   14CHTO    C6 5902   5.110   7.619   1.694 -0.3394 -0.6273  0.1833
   14CHTO   H19 5903   5.133   7.558   1.781  2.1919 -0.4948 -0.3782
   14CHTO    C8 5904   5.179   7.758   1.727 -0.3198  0.0741  0.0844
   14CHTO   H21 5905   5.148   7.835   1.656  2.9898  1.7744  0.3911
   14CHTO    O7 5906   5.317   7.739   1.734 -0.7045  0.0582 -0.6643
   14CHTO    H2 5907   5.356   7.796   1.671  0.4655 -1.5031 -1.3633
   14CHTO   C12 5908   5.136   7.812   1.868  0.4478 -0.8070 -0.3987
   14CHTO   H25 5909   5.169   7.741   1.947  0.5456  0.0329  0.3230
   14CHTO    N3 5910   5.187   7.955   1.891  0.2728 -0.0384 -0.1526
   14CHTO   H12 5911   5.139   8.016   1.816  0.5850 -0.1534 -0.4449
   14CHTO   H13 5912   5.294   7.957   1.881  0.1985 -2.2232 -1.5322
   14CHTO   C15 5913   4.977   7.822   1.881  0.9226 -0.4304 -0.1551
   14CHTO   H28 5914   4.938   7.901   1.816 -1.6911 -0.7105  0.9974
   14CHTO   O10 5915   4.920   7.821   2.021  0.4761  0.1588  0.1339
   14CHTO    H4 5916   4.992   7.810   2.080  1.9076  0.9877 -1.4439
   14CHTO    O5 5917   4.927   7.694   1.841  0.3620  0.2451 -0.3269
   14CHTO   C10 5918   4.964   7.658   1.703 -0.3059  0.1784  0.4532
   14CHTO   H23 5919   4.938   7.748   1.647  1.9271  0.6606  0.1480
   14CHTO   C17 5920   4.866   7.549   1.646  0.2425  0.3269 -0.3540
   14CHTO   O12 5921   4.851   7.428   1.726  0.0929  0.7369  0.0444
   14CHTO    H6 5922   4.919   7.364   1.721 -0.2852  0.4803 -2.1317
   15CHTO  H203 5923   7.871   4.619   1.223 -0.0686  1.3961  0.9360
   15CHTO   O82 5924   7.796   4.583   1.267  0.0758  0.0554  0.0883
   15CHTO  C123 5925   7.695   4.529   1.178 -0.2432 -1.1460  0.1726
   15CHTO  H227 5926   7.701   4.419   1.185 -1.3023 -1.0401  3.5851
   15CHTO   O77 5927   7.570   4.568   1.234  0.4541 -1.0234  0.5380
   15CHTO  C118 5928   7.446   4.533   1.166 -0.1136 -0.1106 -0.6538
   15CHTO  H222 5929   7.436   4.423   1.166  1.5665 -0.2800  0.3105
   15CHTO  C125 5930   7.334   4.600   1.251  0.0120 -0.3147  0.2635
   15CHTO   O84 5931   7.231   4.510   1.288 -0.5384  0.1726 -0.0756
   15CHTO  H205 5932   7.179   4.487   1.214 -1.4611 -0.6356  0.7922
   15CHTO  C114 5933   7.445   4.578   1.017 -0.6710 -0.6439  0.9888
   15CHTO  H218 5934   7.453   4.687   1.014 -0.2725 -0.7243 -1.2422
   15CHTO  C116 5935   7.581   4.535   0.950  0.2394 -0.4247  0.0332
   15CHTO  H220 5936   7.584   4.424   0.946  1.6551 -0.3275 -1.9412
   15CHTO   O79 5937   7.576   4.579   0.811  0.2702 -0.0610 -0.2485
   15CHTO  H201 5938   7.644   4.542   0.758 -0.3618  0.1587 -1.2342
   15CHTO  C120 5939   7.712   4.579   1.028  0.8444 -0.2143 -0.0173
   15CHTO  H224 5940   7.719   4.689   1.041  2.3784 -0.2930 -0.0671
   15CHTO   N21 5941   7.838   4.528   0.965  0.1960 -0.0053 -0.4397
   15CHTO  H211 5942   7.814   4.426   0.940 -0.4264  0.0455 -0.0631
   15CHTO  H212 5943   7.844   4.589   0.877  2.1358  0.2731 -0.1554
   15CHTO   O75 5944   7.323   4.534   0.941  0.2870  0.0771  0.6993
   15CHTO  C112 5945   7.298   4.357   0.945 -0.6598  0.1829 -0.3480
   15CHTO  H216 5946   7.283   4.329   1.051  1.0324  2.6891  0.6250
   15CHTO   O73 5947   7.417   4.290   0.892  0.2171  0.2190 -0.4973
   15CHTO  C113 5948   7.405   4.146   0.878  0.6761  0.3013 -0.0908
   15CHTO  H217 5949   7.413   4.094   0.976 -1.2707 -0.7555 -0.4621
   15CHTO  C124 5950   7.537   4.108   0.809 -0.1282  0.0482 -0.0010
   15CHTO   O83 5951   7.567   3.974   0.823  0.1954 -0.5427  0.2534
   15CHTO  H204 5952   7.529   3.936   0.900  0.3103  1.0928  1.1419
   15CHTO  C109 5953   7.279   4.100   0.795 -0.5152 -0.1435 -0.4148
   15CHTO  H213 5954   7.297   4.128   0.691  0.5579 -0.5111 -0.3327
   15CHTO  C110 5955   7.151   4.176   0.844 -0.1805  0.0932  0.5797
   15CHTO  H214 5956   7.122   4.138   0.942 -0.6543  0.0122  0.4129
   15CHTO   O78 5957   7.038   4.153   0.750 -0.0304 -0.2443  0.8178
   15CHTO  H200 5958   7.050   4.183   0.662 -0.6315 -0.9534  0.4935
   15CHTO  C111 5959   7.171   4.324   0.860  0.6989 -0.5344  0.0720
   15CHTO  H215 5960   7.185   4.367   0.759 -0.5894  1.0028  0.5188
   15CHTO   N19 5961   7.060   4.395   0.926  0.2250 -0.4085  0.0985
   15CHTO  H207 5962   7.096   4.492   0.956 -0.7754  0.0036 -0.0127
   15CHTO  H208 5963   6.969   4.408   0.868  1.0736 -0.2492 -1.2153
   15CHTO   O74 5964   7.264   3.958   0.806  0.4218 -0.1739 -0.0132
   15CHTO  C115 5965   7.237   3.892   0.656  0.3317  0.2913  0.0767
   15CHTO  H219 5966   7.149   3.934   0.608  0.1934 -1.3902 -1.1511
   15CHTO   O76 5967   7.366   3.926   0.555  0.4300  0.3036  0.3154
   15CHTO  C122 5968   7.453   3.816   0.516 -0.0293 -0.0764  0.1739
   15CHTO  H226 5969   7.506   3.784   0.606 -2.1241 -2.0161  0.7588
   15CHTO  C126 5970   7.563   3.864   0.416 -0.5632  0.0941 -0.0344
   15CHTO   O85 5971   7.668   3.776   0.383  0.7453 -0.4722 -0.1843
   15CHTO  H206 5972   7.641   3.708   0.324  0.2790  0.7478 -1.4202
   15CHTO  C121 5973   7.356   3.693   0.464  0.0596 -0.6849 -1.1035
   15CHTO  H225 5974   7.330   3.723   0.360  1.0845  0.1423 -1.1367
   15CHTO   O81 5975   7.442   3.580   0.454 -0.4561 -0.0272  0.7005
   15CHTO  H202 5976   7.415   3.492   0.435 -0.0812 -0.5511  2.4777
   15CHTO  C119 5977   7.228   3.662   0.542  0.3411  0.1109 -0.5205
   15CHTO  H223 5978   7.156   3.700   0.470 -0.6347  0.3759  0.5977
   15CHTO  C117 5979   7.216   3.737   0.678  0.4152  0.8470  0.5194
   15CHTO  H221 5980   7.288   3.704   0.753 -0.3414  2.3279  1.9230
   15CHTO   N20 5981   7.088   3.719   0.747 -0.2298 -0.2432 -0.1419
   15CHTO  H209 5982   7.000   3.759   0.699 -2.2741 -1.4160  2.5325
   15CHTO  H210 5983   7.103   3.730   0.853  0.3616  0.7603 -0.3244
   15CHTO   O80 5984   7.187   3.508   0.539 -0.5930 -0.0382 -0.0711
   15CHTO  C103 5985   7.020   3.469   0.490 -0.1640  0.1588  0.3574
   15CHTO  H190 5986   6.949   3.530   0.545  0.2101 -1.1991  2.3881
   15CHTO  C101 5987   7.005   3.494   0.328 -0.3755  0.2086  0.1537
   15CHTO  H188 5988   7.085   3.440   0.277  0.6201 -0.6544  2.5562
   15CHTO   O68 5989   7.026   3.623   0.303 -0.5046  0.1516 -0.2138
   15CHTO  H168 5990   7.108   3.656   0.333  0.6958 -2.0063 -0.9568
   15CHTO   C99 5991   6.874   3.446   0.277  0.4770 -0.4115  0.6007
   15CHTO  H186 5992   6.787   3.490   0.328 -0.6004  0.7047 -2.0756
   15CHTO   N17 5993   6.850   3.453   0.127 -0.3407 -0.0360  0.2518
   15CHTO  H174 5994   6.834   3.558   0.106 -0.7915 -0.2952 -0.7143
   15CHTO  H175 5995   6.768   3.391   0.095  1.4176 -1.1850 -2.1847
   15CHTO   C97 5996   6.867   3.293   0.316  0.1002 -0.4878 -0.0876
   15CHTO  H184 5997   6.952   3.246   0.265 -0.9242 -1.4420 -0.9410
   15CHTO   O64 5998   6.870   3.287   0.461  0.0100 -0.0923 -0.1644
   15CHTO  C104 5999   6.995   3.326   0.526 -0.4234 -0.5129 -0.4572
   15CHTO  H191 6000   7.086   3.272   0.500  1.2300  2.8412 -2.0494
   15CHTO  C108 6001   6.975   3.311   0.674 -0.3338  0.3541 -0.0061
   15CHTO   O71 6002   6.918   3.188   0.714  0.1485  0.7964 -0.1975
   15CHTO  H171 6003   6.905   3.125   0.645  0.4664 -0.7904  1.1470
   15CHTO   O62 6004   6.735   3.240   0.291  0.4711 -0.3360 -0.5883
   15CHTO   C91 6005   6.709   3.169   0.166 -0.1215  0.4187  0.3991
   15CHTO  H178 6006   6.705   3.241   0.084 -1.1723 -0.4501 -0.3190
   15CHTO   C92 6007   6.562   3.120   0.180  0.1753  0.3812  0.3320
   15CHTO  H179 6008   6.484   3.185   0.222 -1.0753 -0.8310 -0.0694
   15CHTO   O66 6009   6.512   3.093   0.045 -0.3269  0.2520 -0.5798
   15CHTO  H166 6010   6.419   3.084   0.055 -0.0960 -1.4035  0.1666
   15CHTO   C93 6011   6.555   2.982   0.261  0.9352  0.4522  0.4368
   15CHTO  H180 6012   6.454   2.941   0.248  0.4442  1.6578  0.3900
   15CHTO   N16 6013   6.552   3.016   0.404  0.6135  0.0398 -0.1695
   15CHTO  H172 6014   6.540   2.921   0.454 -2.3569  1.0744  1.2061
   15CHTO  H173 6015   6.464   3.077   0.421  0.6944 -0.2397  1.2862
   15CHTO   C94 6016   6.669   2.869   0.239 -0.2060  0.0367 -0.3275
   15CHTO  H181 6017   6.735   2.855   0.325  0.9378 -2.4408 -1.5737
   15CHTO   O61 6018   6.752   2.917   0.133  0.2024 -0.2177 -0.0719
   15CHTO   C95 6019   6.814   3.043   0.145 -0.1241  0.0132  0.0813
   15CHTO  H182 6020   6.887   3.042   0.226 -0.0214  1.2163  0.0259
   15CHTO  C106 6021   6.899   3.065   0.017  0.2610  0.8229 -0.4511
   15CHTO   O69 6022   6.820   3.042  -0.098 -0.0858  0.2877  0.4962
   15CHTO  H169 6023   6.855   2.980  -0.159 -2.0531 -1.0022  0.6148
   15CHTO   O63 6024   6.601   2.734   0.192 -0.2653  0.2311  0.2863
   15CHTO   C96 6025   6.637   2.599   0.287  0.4670  0.4994  0.4228
   15CHTO  H183 6026   6.666   2.633   0.387 -0.9254 -0.3541  1.1234
   15CHTO   C98 6027   6.760   2.517   0.230 -0.3584 -0.3412  0.2996
   15CHTO  H185 6028   6.746   2.519   0.121  0.3470  0.9785  0.2234
   15CHTO   O67 6029   6.872   2.597   0.258  0.1439 -0.0154 -0.3781
   15CHTO  H167 6030   6.924   2.582   0.335 -0.4407  4.1011  0.9256
   15CHTO  C102 6031   6.766   2.362   0.276 -0.3623  0.2958 -0.0735
   15CHTO  H189 6032   6.791   2.367   0.383 -0.6572  1.7497 -0.0606
   15CHTO   N18 6033   6.872   2.280   0.215 -0.2230  0.2909  0.2434
   15CHTO  H176 6034   6.963   2.336   0.201 -0.7964  0.7468 -1.7356
   15CHTO  H177 6035   6.853   2.234   0.119  1.1171  0.1704  0.0209
   15CHTO  C105 6036   6.621   2.309   0.261  0.2474  0.3791 -0.4637
   15CHTO  H192 6037   6.592   2.311   0.156 -0.0931  1.0004 -0.3591
   15CHTO   O65 6038   6.526   2.382   0.340  0.9519 -0.3881  0.1863
   15CHTO  C100 6039   6.509   2.517   0.294  0.1768  0.5730  0.1252
   15CHTO  H187 6040   6.473   2.505   0.191  0.1997  1.0083  0.0627
   15CHTO  C107 6041   6.405   2.586   0.387 -0.2509  0.6165 -0.0198
   15CHTO   O70 6042   6.278   2.527   0.370 -0.3747  0.3324  0.7421
   15CHTO  H170 6043   6.236   2.531   0.454  0.7661 -0.7433  1.3781
   15CHTO   O57 6044   6.611   2.148   0.300  0.0074 -0.1718 -0.1432
   15CHTO   C85 6045   6.605   2.099   0.434 -0.3393 -0.7378  0.2124
   15CHTO  H157 6046   6.648   2.168   0.509 -0.5441 -0.5384  0.1475
   15CHTO   C83 6047   6.698   1.975   0.442 -0.2405  0.1925  1.3021
   15CHTO  H155 6048   6.798   2.016   0.430 -0.5240  0.4054 -0.4225
   15CHTO   O56 6049   6.677   1.883   0.331 -0.0255  0.1963 -0.1092
   15CHTO  H135 6050   6.586   1.877   0.308  0.3620 -1.7968 -1.1676
   15CHTO   C81 6051   6.689   1.910   0.585  0.6122  0.0801 -0.4295
   15CHTO  H153 6052   6.717   1.986   0.658 -1.1967  0.9933 -0.6761
   15CHTO   N14 6053   6.798   1.813   0.592 -0.2900 -0.0098  0.0189
   15CHTO  H141 6054   6.816   1.765   0.498  2.4001 -0.1854  0.5658
   15CHTO  H142 6055   6.894   1.849   0.623  1.0119 -1.0629 -2.6120
   15CHTO   C79 6056   6.550   1.853   0.617  0.4183 -0.4181 -0.6733
   15CHTO  H151 6057   6.555   1.820   0.720  0.2357  0.1487 -0.4807
   15CHTO   O52 6058   6.464   1.974   0.608  0.1642 -0.6357 -0.1650
   15CHTO   C86 6059   6.459   2.043   0.479 -0.8392 -0.0094  0.3569
   15CHTO  H158 6060   6.425   1.965   0.409  0.4074 -0.1115 -0.1601
   15CHTO   C90 6061   6.352   2.159   0.481 -0.3778  0.0224  0.2578
   15CHTO   O60 6062   6.334   2.236   0.602 -0.3752  0.0089 -0.4177
   15CHTO  H138 6063   6.415   2.245   0.649 -0.4145  0.1247 -0.3710
   15CHTO   O50 6064   6.509   1.739   0.546 -0.3943  0.0075 -0.1326
   15CHTO   C73 6065   6.404   1.638   0.518 -0.2294 -0.0784  0.1167
   15CHTO  H145 6066   6.315   1.679   0.468  0.2671 -0.0459 -0.7362
   15CHTO   C74 6067   6.371   1.577   0.653 -0.4672  0.1825  0.1360
   15CHTO  H146 6068   6.337   1.664   0.711  4.7945  1.7993  1.0571
   15CHTO   O54 6069   6.252   1.496   0.634  0.1454  0.3981  0.1610
   15CHTO  H133 6070   6.182   1.535   0.586 -0.7038 -0.5908  0.5855
   15CHTO   C75 6071   6.495   1.508   0.723 -0.1289 -0.5257  0.3270
   15CHTO  H147 6072   6.570   1.582   0.752 -0.3665 -0.2039  0.1237
   15CHTO   N13 6073   6.457   1.444   0.848  0.0919  0.1274 -0.5439
   15CHTO  H139 6074   6.491   1.341   0.853  1.6795  0.7559  2.8359
   15CHTO  H140 6075   6.352   1.457   0.871 -0.1884 -2.1352 -0.3772
   15CHTO   C76 6076   6.552   1.400   0.622 -0.0058  0.4883 -0.5094
   15CHTO  H148 6077   6.483   1.317   0.607 -0.0755  0.6663 -1.1990
   15CHTO   O49 6078   6.580   1.467   0.495  0.5593 -0.0436 -0.0093
   15CHTO   C77 6079   6.466   1.529   0.427  0.6348  0.2249  0.5220
   15CHTO  H149 6080   6.389   1.464   0.387  0.3536  1.4908 -1.0523
   15CHTO   C88 6081   6.522   1.596   0.297  0.2421 -0.1027 -0.2196
   15CHTO   O58 6082   6.415   1.677   0.210  0.1931  0.4296  0.5768
   15CHTO  H136 6083   6.450   1.747   0.159  3.0861 -1.5371 -0.2454
   15CHTO   O51 6084   6.698   1.348   0.679  0.1631  0.0427 -0.2012
   15CHTO   C78 6085   6.778   1.252   0.584  0.5063 -0.4060  0.0406
   15CHTO  H150 6086   6.726   1.233   0.488  3.4308 -0.2742 -1.6227
   15CHTO   C80 6087   6.793   1.115   0.661 -0.2258 -0.7159  0.5194
   15CHTO  H152 6088   6.838   1.137   0.760  2.1240 -0.0838 -0.6373
   15CHTO   O55 6089   6.660   1.063   0.674  0.4751  0.1309 -0.1129
   15CHTO  H134 6090   6.601   1.101   0.611 -0.0868 -0.7962 -0.1616
   15CHTO   C84 6091   6.888   1.023   0.582 -0.4925  0.2583 -0.4686
   15CHTO  H156 6092   6.856   1.006   0.479  1.4765 -0.6798 -0.9464
   15CHTO   N15 6093   6.911   0.891   0.651  0.5260  0.0275  0.1679
   15CHTO  H143 6094   6.814   0.855   0.679  0.3027  1.1087  0.8337
   15CHTO  H144 6095   6.961   0.826   0.583  0.7855 -0.1523  0.5314
   15CHTO   C87 6096   7.026   1.098   0.569 -0.2211 -0.2167 -0.7036
   15CHTO  H159 6097   7.072   1.121   0.665  1.8251  0.8073 -1.9171
   15CHTO   O53 6098   6.995   1.234   0.496  0.1573  0.1232 -0.6003
   15CHTO   C82 6099   6.910   1.327   0.558 -1.0389 -0.1037  0.9772
   15CHTO  H154 6100   6.948   1.368   0.651 -1.1969  0.4024  0.8198
   15CHTO   C89 6101   6.913   1.445   0.465 -0.5278  0.4415 -0.1423
   15CHTO   O59 6102   6.881   1.416   0.326 -0.1875 -0.0450  0.1623
   15CHTO  H137 6103   6.792   1.433   0.302 -0.8491  0.2204  2.6049
   15CHTO   O45 6104   7.136   1.022   0.465 -0.1008 -0.0271 -0.0009
   15CHTO   C67 6105   7.269   1.080   0.489  0.4754  0.2483 -0.4488
   15CHTO  H124 6106   7.258   1.167   0.553 -0.0132  1.2839 -1.9188
   15CHTO   C65 6107   7.376   0.981   0.552 -0.5476  0.0196 -0.1601
   15CHTO  H122 6108   7.327   0.885   0.566 -1.0645  0.1360 -1.1433
   15CHTO   O44 6109   7.399   1.019   0.687  0.1186  0.2174 -0.0528
   15CHTO  H102 6110   7.485   0.988   0.706 -0.0498 -0.2696 -0.0904
   15CHTO   C63 6111   7.506   0.968   0.459  0.1204  0.0461  0.1731
   15CHTO  H120 6112   7.474   0.921   0.366  0.8814 -0.3248  0.0945
   15CHTO   N11 6113   7.612   0.881   0.511 -0.0115  0.2278  0.2860
   15CHTO  H108 6114   7.591   0.823   0.598 -1.1564  0.6753  0.3129
   15CHTO  H109 6115   7.637   0.814   0.431 -2.1942  0.0130 -0.2314
   15CHTO   C61 6116   7.555   1.112   0.416 -0.4061  0.8180  0.2872
   15CHTO  H118 6117   7.636   1.100   0.343  1.0894  1.8191  1.7492
   15CHTO   O40 6118   7.448   1.177   0.347  0.4707  0.3207 -0.1501
   15CHTO   C68 6119   7.312   1.135   0.347 -0.0977  0.6302 -0.6676
   15CHTO  H125 6120   7.307   1.054   0.271  1.3925 -0.2433  0.1323
   15CHTO   C72 6121   7.226   1.251   0.296  0.4311  0.3589 -0.0024
   15CHTO   O48 6122   7.251   1.287   0.159 -0.4043 -0.5495 -0.0534
   15CHTO  H105 6123   7.343   1.295   0.147 -0.6506  0.1505 -1.6028
   15CHTO   O38 6124   7.604   1.190   0.528 -0.0307  0.1668  0.1468
   15CHTO   C55 6125   7.661   1.323   0.510  0.7737  0.1693  0.6740
   15CHTO  H112 6126   7.613   1.361   0.419  0.2857  1.7825  1.5744
   15CHTO   C56 6127   7.823   1.321   0.492  0.0400  0.5769  0.4660
   15CHTO  H113 6128   7.863   1.258   0.573  3.3202  1.6185 -0.2809
   15CHTO   O42 6129   7.867   1.255   0.375  0.2463  0.0897 -0.0177
   15CHTO  H100 6130   7.805   1.188   0.352  0.6829 -0.0485 -0.8105
   15CHTO   C57 6131   7.883   1.466   0.500 -0.1023  0.3614  0.1922
   15CHTO  H114 6132   7.860   1.509   0.403 -0.0991  1.5758  0.7171
   15CHTO   N10 6133   8.027   1.482   0.508  0.3453 -0.2341  0.4773
   15CHTO  H106 6134   8.077   1.391   0.538 -0.2351 -0.6516  0.1743
   15CHTO  H107 6135   8.076   1.522   0.421 -1.5838 -0.5053 -0.7812
   15CHTO   C58 6136   7.812   1.559   0.599  0.2397 -1.1357  0.4157
   15CHTO  H115 6137   7.845   1.536   0.703  0.5000 -1.1002  0.3414
   15CHTO   O37 6138   7.665   1.538   0.611 -0.2030 -0.2563 -0.1080
   15CHTO   C59 6139   7.613   1.404   0.629  0.5907  0.4002  0.1479
   15CHTO  H116 6140   7.643   1.367   0.727  0.3828 -0.9530 -0.2963
   15CHTO   C70 6141   7.457   1.410   0.632 -0.4515  0.1259  0.3748
   15CHTO   O46 6142   7.406   1.482   0.516 -0.0025  0.9098  0.9955
   15CHTO  H103 6143   7.354   1.427   0.461  0.8275  1.4751 -0.3842
   15CHTO   O39 6144   7.835   1.723   0.541  0.8552  0.3732 -0.1743
   15CHTO   C60 6145   7.758   1.769   0.424  0.1318 -0.1644  0.5792
   15CHTO  H117 6146   7.757   1.687   0.353 -1.1269 -1.4653  2.0844
   15CHTO   C62 6147   7.614   1.820   0.464  0.0019  0.7730 -0.9400
   15CHTO  H119 6148   7.572   1.732   0.519  1.1510  1.1498  0.5799
   15CHTO   O43 6149   7.617   1.927   0.562 -0.1389  0.0465  0.5162
   15CHTO  H101 6150   7.698   1.922   0.609 -0.0596 -1.1511  0.2703
   15CHTO   C66 6151   7.529   1.862   0.337 -0.2406 -0.1974 -0.4228
   15CHTO  H123 6152   7.533   1.783   0.263 -1.5510  1.4759 -2.3541
   15CHTO   N12 6153   7.387   1.871   0.368 -0.0247 -0.1597  0.4693
   15CHTO  H110 6154   7.371   1.959   0.427  1.2406  0.7390 -0.5048
   15CHTO  H111 6155   7.356   1.787   0.429  0.6242 -2.1650 -1.8736
   15CHTO   C69 6156   7.593   1.983   0.259  0.2052  0.1351 -0.6885
   15CHTO  H126 6157   7.603   2.066   0.333  0.7644 -0.4943 -0.0536
   15CHTO   O41 6158   7.734   1.950   0.211  0.0301  1.3849 -0.0273
   15CHTO   C64 6159   7.828   1.878   0.353 -0.3707  0.0865  0.1929
   15CHTO  H121 6160   7.858   1.958   0.424 -1.4508 -0.9227  1.8043
   15CHTO   C71 6161   7.965   1.836   0.292  0.2258  0.7616 -0.4902
   15CHTO   O47 6162   7.957   1.746   0.179  0.0700  1.2382 -0.6366
   15CHTO  H104 6163   7.907   1.672   0.207  2.0212 -0.6187 -1.9097
   15CHTO   O34 6164   7.520   2.009   0.147  0.4878 -0.5314 -0.1570
   15CHTO   C49 6165   7.453   2.064   0.023 -0.1707  0.8296 -0.1021
   15CHTO   H91 6166   7.425   1.978  -0.037  0.6585 -0.5872  1.4967
   15CHTO   C47 6167   7.560   2.142  -0.056  0.4344  0.4054  0.4431
   15CHTO   H89 6168   7.505   2.181  -0.144  0.4070  0.9406  0.6968
   15CHTO   O33 6169   7.657   2.039  -0.096  0.2817 -0.3807  0.0851
   15CHTO   H70 6170   7.622   1.973  -0.153  0.5327 -0.6202  0.2064
   15CHTO   C45 6171   7.620   2.263   0.023  0.0233  0.2889  0.1448
   15CHTO   H87 6172   7.649   2.227   0.122 -1.8804 -2.3710 -0.1997
   15CHTO    N8 6173   7.740   2.328  -0.037 -0.2379  0.0227 -0.0285
   15CHTO   H75 6174   7.718   2.356  -0.139 -0.4829  1.0435  0.3026
   15CHTO   H76 6175   7.821   2.257  -0.040  0.8536  1.1838  1.6194
   15CHTO   C43 6176   7.499   2.369   0.048  0.3276  0.5520 -0.1560
   15CHTO   H85 6177   7.539   2.440   0.120 -0.9505 -0.5313  1.6560
   15CHTO   O29 6178   7.387   2.297   0.106 -0.1719  0.2331 -0.0444
   15CHTO   C50 6179   7.337   2.165   0.059  0.2343  0.1767 -0.6735
   15CHTO   H92 6180   7.279   2.127   0.145  4.2196  1.2074  2.6335
   15CHTO   C54 6181   7.237   2.179  -0.060  0.7594 -0.0586  1.0018
   15CHTO   O36 6182   7.114   2.242  -0.013  0.3765  1.0735  0.1132
   15CHTO   H72 6183   7.055   2.250  -0.085  0.0688 -0.5946  0.1498
   15CHTO   O27 6184   7.462   2.440  -0.075 -0.0756  0.0235 -0.6143
   15CHTO   C37 6185   7.380   2.521  -0.164 -0.1530 -0.3397  0.0768
   15CHTO   H79 6186   7.304   2.459  -0.213 -1.1130  1.2660 -0.4891
   15CHTO   C38 6187   7.314   2.638  -0.087 -0.0349 -1.0521 -0.1907
   15CHTO   H80 6188   7.397   2.682  -0.030 -0.2264 -1.6139  0.5199
   15CHTO   O31 6189   7.222   2.583   0.000  0.3218 -0.2511 -0.7752
   15CHTO   H68 6190   7.185   2.650   0.055  1.0241  0.6518 -1.3916
   15CHTO   C39 6191   7.234   2.736  -0.185  0.3368  0.8341  0.2740
   15CHTO   H81 6192   7.139   2.697  -0.221 -0.4853 -0.8951  4.0705
   15CHTO    N7 6193   7.196   2.860  -0.100 -0.1309  0.2315  0.0192
   15CHTO   H73 6194   7.138   2.831  -0.013 -1.1182 -0.0879 -0.7341
   15CHTO   H74 6195   7.136   2.922  -0.165 -0.2223 -0.4291 -0.5289
   15CHTO   C40 6196   7.323   2.769  -0.312 -0.0490  0.4388 -0.4309
   15CHTO   H82 6197   7.395   2.846  -0.285  1.5895 -0.6352 -1.5972
   15CHTO   O26 6198   7.389   2.655  -0.373  0.1628  0.8819  0.3742
   15CHTO   C41 6199   7.469   2.587  -0.278 -0.1925 -0.0580  0.1653
   15CHTO   H83 6200   7.544   2.658  -0.240 -0.3043 -0.3909  1.0089
   15CHTO   C52 6201   7.550   2.486  -0.361 -0.2152 -0.3827  0.2171
   15CHTO   O35 6202   7.476   2.371  -0.405 -0.0536  0.2358 -0.1146
   15CHTO   H71 6203   7.459   2.319  -0.329  1.3090 -1.1068 -0.7077
   15CHTO   O28 6204   7.245   2.799  -0.429 -0.1719 -0.2067  0.1929
   15CHTO   C42 6205   7.261   2.917  -0.514  0.0742  0.2321 -0.1289
   15CHTO   H84 6206   7.235   2.874  -0.611  0.9141 -2.1258  0.6489
   15CHTO   C44 6207   7.403   2.980  -0.529  0.1873 -0.4504  0.1957
   15CHTO   H86 6208   7.446   2.992  -0.430 -0.6258 -2.0965  0.7788
   15CHTO   O32 6209   7.504   2.890  -0.587  0.6756  0.0791 -0.3325
   15CHTO   H69 6210   7.510   2.804  -0.551  2.6569 -0.4831 -1.9112
   15CHTO   C48 6211   7.406   3.116  -0.611 -0.1667 -0.0850  0.1926
   15CHTO   H90 6212   7.404   3.089  -0.717  3.0320 -0.2640  0.1533
   15CHTO    N9 6213   7.529   3.194  -0.596 -0.4842 -0.3528 -0.2222
   15CHTO   H77 6214   7.562   3.256  -0.679 -1.8358 -2.0050 -2.0409
   15CHTO   H78 6215   7.609   3.128  -0.564 -1.2286  0.1506  2.7866
   15CHTO   C51 6216   7.281   3.205  -0.581 -0.2076  0.0252  0.5857
   15CHTO   H93 6217   7.297   3.260  -0.488  1.3625 -1.7562  1.4068
   15CHTO   O30 6218   7.154   3.138  -0.583 -0.2415  0.0697  0.0610
   15CHTO   C46 6219   7.157   3.019  -0.473 -0.6252  0.2277  0.2226
   15CHTO   H88 6220   7.190   3.056  -0.375  2.9100 -4.2392  0.8738
   15CHTO   C53 6221   7.023   2.964  -0.449  0.5890  0.3441  0.6025
   15CHTO   O72 6222   6.945   3.057  -0.377 -0.4594 -0.1892 -0.1224
   15CHTO  H199 6223   6.902   3.021  -0.301 -0.4201 -1.8705 -0.8821
   15CHTO   O22 6224   7.251   3.291  -0.694 -0.1808 -0.7416  0.2048
   15CHTO   C31 6225   7.182   3.428  -0.705  0.5500  0.2052 -0.1127
   15CHTO   H59 6226   7.169   3.446  -0.814 -0.0611 -2.4430 -0.5139
   15CHTO   C29 6227   7.044   3.447  -0.648  0.0193  0.2577 -0.8549
   15CHTO   H57 6228   7.049   3.402  -0.547 -2.1070  3.0080  0.5384
   15CHTO   O21 6229   6.955   3.365  -0.720  0.0616  0.0615  0.3040
   15CHTO   H37 6230   6.951   3.283  -0.674 -1.0105  1.3365  2.6096
   15CHTO   C27 6231   6.988   3.599  -0.638 -0.0300 -0.4061  0.0683
   15CHTO   H55 6232   6.984   3.644  -0.739  0.2195  0.2248  0.3389
   15CHTO    N5 6233   6.859   3.618  -0.571  0.2476  0.6542 -0.3188
   15CHTO   H43 6234   6.873   3.602  -0.465  0.7203 -0.4665 -0.5418
   15CHTO   H44 6235   6.850   3.725  -0.581 -0.3675  0.6204 -0.1389
   15CHTO   C25 6236   7.103   3.677  -0.564  0.2098  0.1653 -0.3904
   15CHTO   H53 6237   7.110   3.640  -0.461 -0.8333  0.6936 -0.1183
   15CHTO   O17 6238   7.221   3.672  -0.642  0.0670  0.1568  0.1020
   15CHTO   C32 6239   7.272   3.541  -0.651 -0.5583 -0.0134  0.3660
   15CHTO   H60 6240   7.304   3.515  -0.550 -2.2441 -0.7377  0.7284
   15CHTO   C36 6241   7.403   3.558  -0.725 -0.0887 -0.2300 -0.3416
   15CHTO   O25 6242   7.498   3.643  -0.663 -0.2647 -0.6199 -0.1065
   15CHTO   H40 6243   7.579   3.641  -0.710 -0.4986  1.0331 -0.6391
   15CHTO   O15 6244   7.084   3.836  -0.548  0.0503  0.4476 -0.2053
   15CHTO   C19 6245   7.157   3.946  -0.490 -0.0383  0.4170  0.0147
   15CHTO   H47 6246   7.225   3.959  -0.576 -1.1573  0.7256 -0.8399
   15CHTO   C20 6247   7.063   4.069  -0.477 -0.1027 -0.9321 -0.5940
   15CHTO   H48 6248   6.974   4.047  -0.416  0.0985 -0.5534 -0.1642
   15CHTO   O19 6249   7.020   4.113  -0.603  0.1925  0.0946 -0.2712
   15CHTO   H35 6250   6.969   4.049  -0.648  1.5265 -1.6493  0.6554
   15CHTO   C21 6251   7.136   4.196  -0.415 -0.2498  0.2261  0.4232
   15CHTO   H49 6252   7.211   4.232  -0.485  0.6614  1.3539  1.9679
   15CHTO    N4 6253   7.050   4.316  -0.393 -0.1957 -0.3622 -0.4691
   15CHTO   H41 6254   6.995   4.304  -0.301 -1.0700 -0.1323 -0.9608
   15CHTO   H42 6255   6.982   4.310  -0.477 -0.0156  0.4664 -0.6820
   15CHTO   C22 6256   7.209   4.146  -0.285 -0.0440 -0.4414 -0.1073
   15CHTO   H50 6257   7.134   4.114  -0.213  1.5007  1.6860  2.5589
   15CHTO   O14 6258   7.300   4.037  -0.317 -0.0832  0.2688  0.1555
   15CHTO   C23 6259   7.242   3.917  -0.364 -1.1014 -0.4249 -0.8540
   15CHTO   H51 6260   7.179   3.891  -0.277  0.7677  0.7365  0.8988
   15CHTO   C34 6261   7.344   3.797  -0.375  0.4498  0.1039  1.3370
   15CHTO   O23 6262   7.448   3.835  -0.462 -0.0787 -0.4291 -0.5754
   15CHTO   H38 6263   7.527   3.802  -0.425  0.4569  0.0316 -1.3000
   15CHTO   O16 6264   7.286   4.251  -0.224 -0.2585  0.1700 -0.1714
   15CHTO   C24 6265   7.273   4.260  -0.071  0.0312 -0.3279 -0.3746
   15CHTO   H52 6266   7.219   4.174  -0.029  0.6739 -1.1486 -1.2054
   15CHTO   C26 6267   7.197   4.390  -0.044 -0.1593 -0.0778  0.1522
   15CHTO   H54 6268   7.232   4.462  -0.120 -2.7673  1.1810  0.0911
   15CHTO   O20 6269   7.057   4.376  -0.073  0.1604 -0.3497  0.0762
   15CHTO   H36 6270   7.040   4.386  -0.165  0.8261  0.7929  0.0575
   15CHTO   C30 6271   7.224   4.450   0.096  0.3524 -0.5555 -0.8940
   15CHTO   H58 6272   7.170   4.386   0.168 -1.7794  1.9486 -0.1596
   15CHTO    N6 6273   7.163   4.582   0.110  0.6864  0.3386 -0.8986
   15CHTO   H45 6274   7.241   4.657   0.115 -0.3615  1.4097 -0.4490
   15CHTO   H46 6275   7.104   4.585   0.200 -0.2621  1.0185 -1.5398
   15CHTO   C33 6276   7.375   4.445   0.137  0.3724  0.2859  0.4981
   15CHTO   H61 6277   7.433   4.517   0.077  0.4330  0.5005  0.8128
   15CHTO   O18 6278   7.436   4.312   0.114  0.1767 -0.1514 -0.9308
   15CHTO   C28 6279   7.421   4.261  -0.013 -0.1204  1.0819 -0.0120
   15CHTO   H56 6280   7.484   4.322  -0.078  1.3904  0.1553  0.5546
   15CHTO   C35 6281   7.466   4.111   0.011 -0.0422 -0.3735  0.2330
   15CHTO   O24 6282   7.452   4.027  -0.106 -0.3870 -0.0583  0.0814
   15CHTO   H39 6283   7.496   4.057  -0.183  2.7070 -1.1679  1.3570
   15CHTO    O9 6284   7.404   4.494   0.270  0.7696 -0.8482 -0.0690
   15CHTO   C13 6285   7.535   4.559   0.301 -0.3385  0.4442 -1.0559
   15CHTO   H26 6286   7.509   4.666   0.287  0.7261  0.9477  0.6761
   15CHTO   C11 6287   7.661   4.520   0.206 -0.3504  0.0221  0.2096
   15CHTO   H24 6288   7.648   4.566   0.107  0.3338  0.7372  0.4510
   15CHTO    O8 6289   7.681   4.372   0.205  0.0772  0.5873 -0.6644
   15CHTO    H3 6290   7.661   4.336   0.289  3.3947  0.1665  0.0014
   15CHTO    C9 6291   7.789   4.589   0.260 -0.0819 -0.1432 -0.0684
   15CHTO   H22 6292   7.774   4.696   0.243  3.0138 -0.1406 -3.1266
   15CHTO    N2 6293   7.917   4.566   0.181  0.4856 -0.1875  0.0799
   15CHTO   H10 6294   7.952   4.654   0.130 -0.3382 -0.1122 -0.3611
   15CHTO   H11 6295   7.927   4.479   0.117  2.2009 -0.2063  0.3467
   15CHTO    C7 6296   7.815   4.575   0.415  0.0976 -0.7626 -0.6605
   15CHTO   H20 6297   7.880   4.663   0.435 -0.0368 -0.6474 -0.7265
   15CHTO    O4 6298   7.692   4.595   0.492 -0.2539 -0.2756  0.5358
   15CHTO   C14 6299   7.563   4.545   0.444 -0.5417  0.9029 -0.1477
   15CHTO   H27 6300   7.490   4.603   0.505 -0.1321 -1.2774  2.4891
   15CHTO   C18 6301   7.558   4.398   0.494 -0.9570  0.2855  0.0955
   15CHTO   O13 6302   7.569   4.367   0.637 -0.3665 -0.0348  1.0035
   15CHTO    H7 6303   7.624   4.429   0.683  1.1236 -0.7353  0.1987
   15CHTO    O2 6304   7.886   4.419   0.457  0.0582  0.0607  0.0582
   15CHTO    C1 6305   7.943   4.404   0.588  0.3825 -0.4033 -0.8563
   15CHTO   H14 6306   7.865   4.431   0.662  1.2492 -1.4254  0.4650
   15CHTO    C2 6307   8.075   4.497   0.625  0.1320 -0.6130 -0.2337
   15CHTO   H15 6308   8.145   4.489   0.541  1.0314 -0.8559  0.5336
   15CHTO    O6 6309   8.040   4.638   0.626 -0.0494  0.5302 -0.2365
   15CHTO    H1 6310   8.116   4.690   0.646 -0.7056  1.2495  0.4505
   15CHTO    C3 6311   8.155   4.448   0.754 -0.3981  0.1523 -0.9878
   15CHTO   H16 6312   8.083   4.490   0.826  0.5854  1.3388 -0.6632
   15CHTO    N1 6313   8.294   4.519   0.766  0.8489  0.1797 -0.2513
   15CHTO    H8 6314   8.314   4.568   0.859 -2.3711  2.0717 -0.4962
   15CHTO    H9 6315   8.298   4.594   0.688 -1.2165  2.0833  1.4380
   15CHTO    C4 6316   8.154   4.290   0.763  0.6176  0.1221 -0.6219
   15CHTO   H17 6317   8.230   4.243   0.700  0.7422 -1.2915  0.5498
   15CHTO    O1 6318   8.029   4.230   0.729 -0.2483 -0.3791 -0.0425
   15CHTO    C5 6319   7.978   4.253   0.600  0.4882 -0.2845  0.3550
   15CHTO   H18 6320   8.043   4.233   0.514  1.3357  0.2406  0.8667
   15CHTO   C16 6321   7.862   4.158   0.600 -0.1968 -0.3667 -0.5552
   15CHTO   O11 6322   7.800   4.148   0.472  0.0802  0.1951  0.1348
   15CHTO    H5 6323   7.773   4.236   0.452 -1.0850 -0.4875 -1.3486
   15CHTO    O3 6324   8.174   4.253   0.903 -0.2825  0.2911  0.3582
   15CHTO    C6 6325   8.225   4.119   0.934  0.3456 -0.4692 -0.1557
   15CHTO   H19 6326   8.224   4.045   0.854  0.1274  0.3382 -0.9096
   15CHTO    C8 6327   8.374   4.134   0.978  0.3659  0.0312 -0.6213
   15CHTO   H21 6328   8.378   4.182   1.076  0.2182 -1.2736  0.0407
   15CHTO    O7 6329   8.445   4.209   0.877  0.3893  0.0275 -0.5096
   15CHTO    H2 6330   8.431   4.301   0.893 -1.9332 -0.5642  1.0143
   15CHTO   C12 6331   8.428   3.985   0.997 -0.2270  0.1066 -0.7526
   15CHTO   H25 6332   8.431   3.934   0.898 -0.3617 -0.2769 -0.5596
   15CHTO    N3 6333   8.567   3.989   1.036 -0.9790  0.2381  0.5594
   15CHTO   H12 6334   8.635   4.021   0.959 -0.2199 -0.5189  0.9070
   15CHTO   H13 6335   8.596   3.892   1.074 -3.1896 -1.0282 -0.8559
   15CHTO   C15 6336   8.329   3.908   1.089  0.5853  0.5193 -0.4630
   15CHTO   H28 6337   8.333   3.935   1.194 -0.7408 -2.7206  0.4996
   15CHTO   O10 6338   8.355   3.753   1.077  0.1515  0.3446  0.9040
   15CHTO    H4 6339   8.445   3.742   1.101  0.6588  1.8322 -0.2391
   15CHTO    O5 6340   8.190   3.918   1.055 -0.1970  0.1672  0.2455
   15CHTO   C10 6341   8.141   4.052   1.038 -0.0313 -0.6054 -0.4940
   15CHTO   H23 6342   8.162   4.097   1.135 -1.2046 -0.6137 -0.2312
   15CHTO   C17 6343   7.990   4.035   1.012  0.1101  0.5560 -0.1344
   15CHTO   O12 6344   7.910   4.150   1.040  0.5168 -0.8134 -0.3450
   15CHTO    H6 6345   7.828   4.152   0.995  0.3300 -2.0646 -0.0661
   16CHTO  H203 6346   6.681   4.559  -0.340 -0.5252 -0.3790 -0.1258
   16CHTO   O82 6347   6.592   4.555  -0.310 -0.6613 -0.0756 -0.4792
   16CHTO  C123 6348   6.586   4.469  -0.194  0.0130 -0.2791 -0.4962
   16CHTO  H227 6349   6.482   4.475  -0.159 -0.0795  0.8044 -0.9322
   16CHTO   O77 6350   6.611   4.341  -0.241 -0.1437 -0.0130  0.2010
   16CHTO  C118 6351   6.596   4.234  -0.148  0.3449  0.0036 -0.1856
   16CHTO  H222 6352   6.500   4.248  -0.096  1.0179 -0.1206  1.1036
   16CHTO  C125 6353   6.583   4.093  -0.224 -0.4006  0.1730 -0.0555
   16CHTO   O84 6354   6.684   4.079  -0.327  0.3776  0.1325 -0.7260
   16CHTO  H205 6355   6.686   3.987  -0.348  1.3640  0.0763 -0.4417
   16CHTO  C114 6356   6.718   4.252  -0.055 -0.1801 -0.8319  0.1538
   16CHTO  H218 6357   6.808   4.270  -0.115 -0.5973  0.5668 -0.0831
   16CHTO  C116 6358   6.684   4.386   0.023  0.0369  0.7880 -0.7758
   16CHTO  H220 6359   6.585   4.368   0.069  0.7719 -0.2247  0.4124
   16CHTO   O79 6360   6.781   4.399   0.127  0.2194 -0.3231 -0.4842
   16CHTO  H201 6361   6.772   4.483   0.168  1.5424  0.0714 -0.9954
   16CHTO  C120 6362   6.683   4.510  -0.080  0.8238 -0.0153  0.7296
   16CHTO  H224 6363   6.785   4.539  -0.113 -0.6443  3.3015 -1.1742
   16CHTO   N21 6364   6.646   4.640  -0.022 -0.0363  0.7572  0.0954
   16CHTO  H211 6365   6.593   4.710  -0.085 -2.0074  2.0627  3.0825
   16CHTO  H212 6366   6.589   4.626   0.069 -1.4783  0.7028 -0.7927
   16CHTO   O75 6367   6.732   4.133   0.022 -0.3106  0.3179 -0.6631
   16CHTO  C112 6368   6.874   4.040  -0.007 -0.2860 -0.0008  0.1093
   16CHTO  H216 6369   6.941   4.106  -0.064 -0.8670  0.4016 -0.1113
   16CHTO   O73 6370   6.834   3.929  -0.087  0.4742 -0.6230  0.1942
   16CHTO  C113 6371   6.937   3.851  -0.144  0.0741 -0.0153  0.2613
   16CHTO  H217 6372   6.999   3.912  -0.212 -0.4817  0.8692  0.5444
   16CHTO  C124 6373   6.873   3.749  -0.239 -0.0331 -0.1851 -0.4356
   16CHTO   O83 6374   6.766   3.666  -0.192  0.3821  0.0836  0.2765
   16CHTO  H204 6375   6.687   3.715  -0.189 -1.2796 -2.3800 -1.0410
   16CHTO  C109 6376   7.031   3.788  -0.032 -0.2292  0.3602 -0.3295
   16CHTO  H213 6377   6.979   3.703   0.013  1.5359  0.6823  2.4094
   16CHTO  C110 6378   7.080   3.905   0.064  0.5351  0.8006 -0.0613
   16CHTO  H214 6379   7.151   3.967   0.010 -1.1121  2.2516 -0.6060
   16CHTO   O78 6380   7.153   3.844   0.172 -0.2343 -0.8720 -0.4158
   16CHTO  H200 6381   7.209   3.901   0.220 -1.4771 -0.4866  0.6335
   16CHTO  C111 6382   6.960   3.988   0.118  0.7431  0.7091  0.2373
   16CHTO  H215 6383   6.895   3.923   0.180  0.6451 -0.2169 -0.8135
   16CHTO   N19 6384   6.993   4.098   0.201  0.2760 -0.1796 -0.2393
   16CHTO  H207 6385   7.060   4.071   0.281 -0.1092 -1.1367 -0.2283
   16CHTO  H208 6386   6.901   4.149   0.227  0.9757  0.5188  0.9050
   16CHTO   O74 6387   7.154   3.747  -0.094  0.7061 -0.4876  0.2968
   16CHTO  C115 6388   7.188   3.598  -0.098 -0.3950  0.0142 -0.0167
   16CHTO  H219 6389   7.130   3.536  -0.029 -0.9550 -0.1101 -0.5970
   16CHTO   O76 6390   7.152   3.542  -0.246  0.6020 -0.7242  0.3436
   16CHTO  C122 6391   7.179   3.401  -0.269 -0.7039 -0.2043  0.2218
   16CHTO  H226 6392   7.190   3.386  -0.376  0.3317 -0.0384  0.2966
   16CHTO  C126 6393   7.058   3.315  -0.237 -0.4127 -0.2536  0.5086
   16CHTO   O85 6394   6.943   3.337  -0.318  0.2754 -0.1599  0.7419
   16CHTO  H206 6395   6.903   3.418  -0.294 -0.0791  0.4429 -1.7534
   16CHTO  C121 6396   7.317   3.335  -0.208 -0.1440  0.3206  0.2322
   16CHTO  H225 6397   7.292   3.228  -0.193 -2.3925  0.7080 -0.5560
   16CHTO   O81 6398   7.435   3.339  -0.294  0.1577  0.3746 -0.5660
   16CHTO  H202 6399   7.399   3.318  -0.378 -1.1731  1.4290 -0.2790
   16CHTO  C119 6400   7.341   3.404  -0.070  0.3620  0.2145  0.2274
   16CHTO  H223 6401   7.254   3.370  -0.014 -0.9689 -2.4504 -3.2633
   16CHTO  C117 6402   7.341   3.559  -0.068  1.0735 -0.1789 -0.3978
   16CHTO  H221 6403   7.403   3.618  -0.135  0.6063  0.4825 -0.2596
   16CHTO   N20 6404   7.373   3.619   0.069 -0.2608 -0.4521  0.1586
   16CHTO  H209 6405   7.395   3.544   0.143  1.7461 -0.2030 -0.1641
   16CHTO  H210 6406   7.455   3.689   0.057 -1.6726  0.8963 -2.1493
   16CHTO   O80 6407   7.463   3.319  -0.004  0.8273  0.2352 -0.0852
   16CHTO  C103 6408   7.457   3.168   0.009  0.0891  0.3195 -0.2000
   16CHTO  H190 6409   7.370   3.123  -0.038  0.4176 -2.2512  1.5105
   16CHTO  C101 6410   7.590   3.087  -0.038  0.0232  0.2348  0.4203
   16CHTO  H188 6411   7.674   3.133   0.014  1.2850 -1.0417 -0.4584
   16CHTO   O68 6412   7.594   3.103  -0.188 -0.2583  0.6686  0.3018
   16CHTO  H168 6413   7.505   3.114  -0.218 -0.7574 -0.5931  1.2668
   16CHTO   C99 6414   7.581   2.932  -0.005  0.0103  0.0099 -0.0530
   16CHTO  H186 6415   7.495   2.888  -0.060 -0.2394  1.4340 -0.8123
   16CHTO   N17 6416   7.689   2.845  -0.047 -0.6215  0.3693  0.0805
   16CHTO  H174 6417   7.739   2.888  -0.133  0.5115  0.2297  0.6611
   16CHTO  H175 6418   7.658   2.745  -0.071 -0.3437  0.3376 -0.1466
   16CHTO   C97 6419   7.549   2.915   0.144  0.9579  0.3112  0.5306
   16CHTO  H184 6420   7.639   2.929   0.205  2.1854 -0.8850 -0.9640
   16CHTO   O64 6421   7.437   2.999   0.187 -0.3754  0.1000  0.3061
   16CHTO  C104 6422   7.442   3.142   0.170  0.6320  0.3788 -0.3266
   16CHTO  H191 6423   7.526   3.187   0.223  0.2120 -1.2710  1.8389
   16CHTO  C108 6424   7.314   3.210   0.226 -0.4987 -0.3897 -0.3441
   16CHTO   O71 6425   7.294   3.178   0.365  0.0113  0.3854  0.6550
   16CHTO  H171 6426   7.269   3.087   0.370 -1.3175  0.7918  1.6826
   16CHTO   O62 6427   7.499   2.774   0.166  0.0442 -0.4309  0.1811
   16CHTO   C91 6428   7.513   2.724   0.299  0.2182  0.5580 -0.2484
   16CHTO  H178 6429   7.539   2.797   0.375  0.1818 -1.6011  1.9104
   16CHTO   C92 6430   7.642   2.634   0.305 -0.0371  0.5481  0.8281
   16CHTO  H179 6431   7.661   2.580   0.212 -0.7554  1.2605  0.2616
   16CHTO   O66 6432   7.752   2.725   0.300  0.9011  0.2347  0.0483
   16CHTO  H166 6433   7.796   2.730   0.217  1.7634 -0.5215  0.4489
   16CHTO   C93 6434   7.647   2.532   0.423 -0.0528 -0.6921 -0.4650
   16CHTO  H180 6435   7.685   2.596   0.504 -2.0785 -0.8817  0.6697
   16CHTO   N16 6436   7.748   2.426   0.413  0.5088 -0.0174  0.1043
   16CHTO  H172 6437   7.833   2.462   0.357  2.0947 -2.0510  1.1157
   16CHTO  H173 6438   7.703   2.358   0.342  0.1981  0.8630 -0.5434
   16CHTO   C94 6439   7.509   2.477   0.465  0.5069  0.2381 -0.3014
   16CHTO  H181 6440   7.465   2.404   0.396 -0.4707 -0.7803  1.3653
   16CHTO   O61 6441   7.419   2.584   0.478  0.3937 -0.5721  0.5555
   16CHTO   C95 6442   7.389   2.641   0.352  0.4951 -0.1213 -0.6549
   16CHTO  H182 6443   7.362   2.559   0.285  0.1865  0.0795 -0.7789
   16CHTO  C106 6444   7.263   2.728   0.362  0.2387 -0.0585 -0.3362
   16CHTO   O69 6445   7.148   2.645   0.414 -1.0607 -0.4193 -0.1053
   16CHTO  H169 6446   7.174   2.600   0.492  1.3336  3.1718  1.2742
   16CHTO   O63 6447   7.522   2.395   0.625  0.3482  0.6734 -0.4190
   16CHTO   C96 6448   7.396   2.354   0.699  0.1236 -0.3601  0.3730
   16CHTO  H183 6449   7.422   2.279   0.773 -0.3218  0.5348  1.4373
   16CHTO   C98 6450   7.298   2.278   0.605 -0.4998 -0.3597  0.4784
   16CHTO  H185 6451   7.287   2.328   0.507 -0.8758 -1.7424 -0.1987
   16CHTO   O67 6452   7.351   2.152   0.576 -0.1976 -0.5655  0.1550
   16CHTO  H167 6453   7.291   2.087   0.544 -0.6369 -0.9119  1.6455
   16CHTO  C102 6454   7.159   2.260   0.673 -0.0299 -1.0388  0.1616
   16CHTO  H189 6455   7.186   2.217   0.771  2.9408 -0.4227 -0.3363
   16CHTO   N18 6456   7.059   2.171   0.607  0.1416 -0.5330 -0.0725
   16CHTO  H176 6457   7.025   2.192   0.507 -2.2317  0.6176  0.9285
   16CHTO  H177 6458   7.091   2.068   0.614  0.0708 -0.5599 -0.1498
   16CHTO  C105 6459   7.108   2.406   0.710 -0.3620  1.1268 -0.0291
   16CHTO  H192 6460   7.119   2.474   0.625 -3.8215 -0.3538 -1.7756
   16CHTO   O65 6461   7.195   2.449   0.819  0.0738 -0.3917  0.0654
   16CHTO  C100 6462   7.333   2.470   0.783  0.3349 -0.0455  0.4115
   16CHTO  H187 6463   7.343   2.558   0.717  3.7546 -1.1974 -0.6934
   16CHTO  C107 6464   7.419   2.495   0.914 -0.5377 -0.4931 -0.5524
   16CHTO   O70 6465   7.357   2.588   1.002  0.2086  0.3363  0.6865
   16CHTO  H170 6466   7.270   2.556   1.018  0.3446  0.0642  0.8648
   16CHTO   O57 6467   6.971   2.418   0.754 -0.5702 -0.0489 -0.7844
   16CHTO   C85 6468   6.888   2.502   0.678  0.2075 -0.5812 -0.5183
   16CHTO  H157 6469   6.902   2.471   0.572 -0.2332  2.3274 -1.4510
   16CHTO   C83 6470   6.936   2.655   0.693 -0.2110  0.0431  0.2830
   16CHTO  H155 6471   7.041   2.665   0.665  0.2983 -0.2828  1.9994
   16CHTO   O56 6472   6.926   2.691   0.832  0.3849 -0.0258 -0.1452
   16CHTO  H135 6473   6.989   2.667   0.897 -0.1838  1.8032  1.1218
   16CHTO   C81 6474   6.845   2.735   0.597 -0.0821  0.3099 -0.3257
   16CHTO  H153 6475   6.859   2.697   0.496  1.0673  1.3829 -0.5862
   16CHTO   N14 6476   6.903   2.872   0.587 -0.4077 -0.0416 -0.0164
   16CHTO  H141 6477   6.872   2.923   0.497  2.9984  0.9923 -0.6809
   16CHTO  H142 6478   6.869   2.936   0.666  2.3677 -0.6749  1.7425
   16CHTO   C79 6479   6.689   2.723   0.634  0.1845 -0.3123  0.6883
   16CHTO  H151 6480   6.630   2.763   0.551 -0.2436 -1.8639  0.2208
   16CHTO   O52 6481   6.653   2.579   0.639 -0.9435 -0.2806  0.1765
   16CHTO   C86 6482   6.744   2.493   0.718  0.3365  0.3649  0.8468
   16CHTO  H158 6483   6.726   2.533   0.820  1.1974  3.0825 -0.0249
   16CHTO   C90 6484   6.680   2.354   0.715 -0.4736 -0.5987 -0.0843
   16CHTO   O60 6485   6.549   2.350   0.768 -0.4247  0.0804 -0.1096
   16CHTO  H138 6486   6.499   2.412   0.719 -1.2589 -0.8480 -0.4490
   16CHTO   O50 6487   6.650   2.792   0.757 -0.1514 -0.4777 -0.7163
   16CHTO   C73 6488   6.554   2.819   0.863  0.3570  0.5897  0.4304
   16CHTO  H145 6489   6.566   2.750   0.947  1.9282  1.1103  0.6381
   16CHTO   C74 6490   6.409   2.809   0.812  1.0973 -0.2134  0.0549
   16CHTO  H146 6491   6.398   2.714   0.758 -0.8417  0.4174 -0.6706
   16CHTO   O54 6492   6.327   2.790   0.930 -0.2412 -0.5602  0.2115
   16CHTO  H133 6493   6.275   2.866   0.949  2.4084  0.7812  2.4388
   16CHTO   C75 6494   6.367   2.932   0.724  0.6975  0.4671 -0.2615
   16CHTO  H147 6495   6.430   2.936   0.633  0.9298 -1.0637 -0.1810
   16CHTO   N13 6496   6.225   2.933   0.675 -0.0924  0.7623 -0.7395
   16CHTO  H139 6497   6.209   3.032   0.633  0.8004  1.6248  0.9100
   16CHTO  H140 6498   6.152   2.909   0.752 -1.3536 -0.2115 -2.2085
   16CHTO   C76 6499   6.393   3.062   0.805  0.3173 -0.6346 -0.1831
   16CHTO  H148 6500   6.328   3.058   0.893 -1.2981 -0.9715 -1.3770
   16CHTO   O49 6501   6.538   3.071   0.828  0.5239  0.1779 -0.2919
   16CHTO   C77 6502   6.579   2.966   0.925 -0.1218 -0.2350 -0.0181
   16CHTO  H149 6503   6.534   2.974   1.024  1.3047  0.0743  0.6187
   16CHTO   C88 6504   6.732   2.974   0.965  0.0040 -0.1363 -0.5866
   16CHTO   O58 6505   6.760   3.089   1.015  0.0491  0.0974  0.2890
   16CHTO  H136 6506   6.712   3.097   1.095 -0.5627 -1.5351  0.1109
   16CHTO   O51 6507   6.380   3.209   0.721 -0.9058  0.2521 -0.1254
   16CHTO   C78 6508   6.375   3.333   0.833 -0.3508  0.3584 -0.0083
   16CHTO  H150 6509   6.412   3.298   0.931 -1.2346  0.3031  0.3045
   16CHTO   C80 6510   6.224   3.381   0.849  0.4781  0.3941 -0.4945
   16CHTO  H152 6511   6.182   3.405   0.749  0.4154  2.1541 -0.0642
   16CHTO   O55 6512   6.144   3.267   0.892 -0.1407 -0.1861 -0.1441
   16CHTO  H134 6513   6.137   3.260   0.985  3.1469 -1.2961  0.1077
   16CHTO   C84 6514   6.202   3.502   0.947  0.6000  0.0059 -0.4059
   16CHTO  H156 6515   6.245   3.480   1.045  2.4729 -0.0046 -1.2129
   16CHTO   N15 6516   6.058   3.552   0.967 -0.5133  0.4218 -0.1415
   16CHTO  H143 6517   6.039   3.631   0.898  1.0268  0.4326 -0.5688
   16CHTO  H144 6518   6.048   3.594   1.065  0.1992  1.6936 -0.6053
   16CHTO   C87 6519   6.305   3.611   0.907 -0.2482 -0.0422 -0.4787
   16CHTO  H159 6520   6.282   3.652   0.808 -0.0067 -1.1212 -0.9864
   16CHTO   O53 6521   6.461   3.549   0.900  0.7278 -0.4027 -0.6674
   16CHTO   C82 6522   6.458   3.455   0.796 -0.2478 -0.4998  0.4794
   16CHTO  H154 6523   6.416   3.494   0.703 -2.3282 -2.0544  0.7240
   16CHTO   C89 6524   6.594   3.391   0.759  0.0633 -0.3369 -0.0145
   16CHTO   O59 6525   6.675   3.488   0.692  0.3676  0.1064 -0.1319
   16CHTO  H137 6526   6.632   3.530   0.620 -0.7373 -0.8068 -0.0323
   16CHTO   O45 6527   6.308   3.734   1.015 -0.1050  0.0526 -0.4740
   16CHTO   C67 6528   6.431   3.789   1.070  0.4340  0.2358 -0.4879
   16CHTO  H124 6529   6.517   3.754   1.015 -1.6808 -2.7633 -2.0494
   16CHTO   C65 6530   6.439   3.944   1.069 -0.6157  0.0069 -0.3550
   16CHTO  H122 6531   6.340   3.990   1.077 -0.7417 -0.6538  2.0740
   16CHTO   O44 6532   6.500   3.983   0.947  0.1163  0.3188  0.3020
   16CHTO  H102 6533   6.590   3.967   0.966  0.2991  0.9020 -0.0409
   16CHTO   C63 6534   6.516   3.998   1.195  0.2582 -0.2020  0.0185
   16CHTO  H120 6535   6.447   3.988   1.279  0.2786  0.2698  0.0905
   16CHTO   N11 6536   6.560   4.141   1.190  0.6636 -0.1112 -0.1655
   16CHTO  H108 6537   6.524   4.170   1.093 -0.9969  0.7904  0.7057
   16CHTO  H109 6538   6.667   4.143   1.192  0.6552  0.5213 -0.3300
   16CHTO   C61 6539   6.629   3.894   1.233  0.0498  0.9075  0.1044
   16CHTO  H118 6540   6.670   3.929   1.329  1.0715  1.0585 -0.3740
   16CHTO   O40 6541   6.583   3.763   1.262 -0.4150  0.7855  0.3991
   16CHTO   C68 6542   6.448   3.734   1.222  0.1107 -0.0948 -0.0362
   16CHTO  H125 6543   6.386   3.784   1.299 -2.1553 -0.8518 -1.3157
   16CHTO   C72 6544   6.426   3.580   1.228 -0.1250 -0.5559 -0.0505
   16CHTO   O48 6545   6.385   3.538   1.353  0.0137 -0.3373  0.6275
   16CHTO  H105 6546   6.292   3.526   1.359 -0.4717  2.8233  0.2654
   16CHTO   O38 6547   6.730   3.895   1.129 -0.0329  0.0803  0.4678
   16CHTO   C55 6548   6.856   3.824   1.153 -0.9345  0.6488 -0.8074
   16CHTO  H112 6549   6.840   3.754   1.236 -0.0706  0.6007 -0.6759
   16CHTO   C56 6550   6.968   3.925   1.181 -0.1423  1.2538  0.0619
   16CHTO  H113 6551   6.974   3.986   1.090 -1.0413 -0.2634 -1.0311
   16CHTO   O42 6552   6.928   4.012   1.286 -0.4554 -0.0209 -0.3712
   16CHTO  H100 6553   6.997   4.071   1.306 -0.2531 -0.3263 -0.1606
   16CHTO   C57 6554   7.113   3.852   1.209  0.1200 -0.6543 -0.4147
   16CHTO  H114 6555   7.118   3.803   1.307  0.2968  0.5803  0.1979
   16CHTO   N10 6556   7.229   3.941   1.211  0.3591  0.1961  0.5537
   16CHTO  H106 6557   7.219   4.008   1.127  0.2755  1.3411  1.4662
   16CHTO  H107 6558   7.318   3.881   1.198 -0.2390 -1.1096  2.3687
   16CHTO   C58 6559   7.136   3.736   1.103  0.7600 -0.3510 -0.4226
   16CHTO  H115 6560   7.164   3.775   1.003  0.5904  0.8271 -0.0194
   16CHTO   O37 6561   7.020   3.656   1.095 -0.2470 -0.0126  0.0681
   16CHTO   C59 6562   6.903   3.726   1.041 -0.5096 -0.3809  0.1859
   16CHTO  H116 6563   6.932   3.782   0.952 -0.5017 -0.0734  0.3807
   16CHTO   C70 6564   6.793   3.630   0.992  0.0060  0.0559 -0.4144
   16CHTO   O46 6565   6.743   3.537   1.090 -0.1447 -0.2094  0.1535
   16CHTO  H103 6566   6.806   3.468   1.091  0.1427  0.0563  0.3968
   16CHTO   O39 6567   7.259   3.639   1.159  0.1422  0.3863  0.1294
   16CHTO   C60 6568   7.323   3.562   1.050 -0.0408 -0.0684  0.3558
   16CHTO  H117 6569   7.251   3.545   0.970  0.4484  0.1328 -0.1362
   16CHTO   C62 6570   7.447   3.634   0.990 -0.1630 -0.1219 -1.0728
   16CHTO  H119 6571   7.410   3.727   0.942  0.6786  0.8216  0.0741
   16CHTO   O43 6572   7.538   3.683   1.097  0.0516 -0.2477 -0.0242
   16CHTO  H101 6573   7.616   3.717   1.058 -0.4633 -1.3471 -2.1167
   16CHTO   C66 6574   7.531   3.539   0.880  0.1297  0.1177 -0.8151
   16CHTO  H123 6575   7.467   3.508   0.798  0.5216  0.8257 -1.3926
   16CHTO   N12 6576   7.640   3.618   0.813 -0.0470  0.0820 -0.4226
   16CHTO  H110 6577   7.694   3.676   0.886  0.8085 -0.0637 -0.9378
   16CHTO  H111 6578   7.603   3.680   0.733  1.1161  0.5484 -0.5998
   16CHTO   C69 6579   7.571   3.409   0.950 -0.2889 -0.7725 -0.0935
   16CHTO  H126 6580   7.635   3.421   1.040 -0.0646  2.5824 -0.6125
   16CHTO   O41 6581   7.455   3.336   0.999  0.1356  0.3511 -0.4439
   16CHTO   C64 6582   7.361   3.421   1.098 -0.8145 -0.5712 -0.2079
   16CHTO  H121 6583   7.417   3.447   1.191 -0.3698  0.3744 -0.7314
   16CHTO   C71 6584   7.245   3.328   1.138  0.6041  0.3757 -0.6897
   16CHTO   O47 6585   7.158   3.389   1.232 -0.4148 -0.0581 -0.3661
   16CHTO  H104 6586   7.190   3.394   1.320 -0.2813 -0.5836 -0.3809
   16CHTO   O34 6587   7.645   3.302   0.834  0.3533 -0.3810  0.1988
   16CHTO   C49 6588   7.618   3.259   0.687  0.1803 -0.3720 -0.1870
   16CHTO   H91 6589   7.604   3.346   0.623  1.2614 -1.0537 -1.3894
   16CHTO   C47 6590   7.493   3.171   0.679 -0.3247  0.2894 -0.3054
   16CHTO   H89 6591   7.486   3.141   0.573  0.9489  0.0951 -0.3448
   16CHTO   O33 6592   7.379   3.241   0.722  0.5322 -0.8549 -0.2837
   16CHTO   H70 6593   7.301   3.195   0.697  0.3122  0.5734 -2.3314
   16CHTO   C45 6594   7.515   3.036   0.767  0.5759  0.3483 -0.2262
   16CHTO   H87 6595   7.467   3.055   0.865 -1.7467 -0.3256 -1.1988
   16CHTO    N8 6596   7.431   2.924   0.704  0.2906 -0.2559  0.0632
   16CHTO   H75 6597   7.332   2.956   0.674 -0.0931 -1.1129  0.4039
   16CHTO   H76 6598   7.489   2.898   0.617 -0.6742 -1.8526 -0.1302
   16CHTO   C43 6599   7.669   3.002   0.780 -0.3321  0.2370  0.3227
   16CHTO   H85 6600   7.700   3.075   0.855 -0.3630  0.5020  0.0807
   16CHTO   O29 6601   7.731   3.029   0.660 -0.6051 -0.5790  0.7133
   16CHTO   C50 6602   7.733   3.172   0.629  0.4707 -0.0451  0.3836
   16CHTO   H92 6603   7.827   3.218   0.666 -0.2462  2.3955 -0.7216
   16CHTO   C54 6604   7.741   3.195   0.474 -0.0978  0.1410 -0.6119
   16CHTO   O36 6605   7.797   3.323   0.441 -0.1003 -0.2772 -0.3229
   16CHTO   H72 6606   7.733   3.389   0.461 -0.1158 -0.8270  1.5264
   16CHTO   O27 6607   7.697   2.866   0.822 -0.2090 -0.3685 -0.1841
   16CHTO   C37 6608   7.792   2.801   0.908  0.6241 -0.1706 -0.2201
   16CHTO   H79 6609   7.878   2.869   0.916 -1.0113  1.9566 -0.3476
   16CHTO   C38 6610   7.725   2.792   1.052 -0.1209  0.5538 -0.3126
   16CHTO   H80 6611   7.621   2.757   1.038  0.6403 -2.5789  1.3949
   16CHTO   O31 6612   7.721   2.924   1.112 -0.0808  0.4629  0.6862
   16CHTO   H68 6613   7.635   2.933   1.148 -0.5949 -1.6429  0.0422
   16CHTO   C39 6614   7.802   2.684   1.146 -0.2070  1.1441 -0.7572
   16CHTO   H81 6615   7.904   2.721   1.159 -0.2868  0.3458  2.6095
   16CHTO    N7 6616   7.741   2.674   1.283  0.3681 -0.4380 -0.1565
   16CHTO   H73 6617   7.805   2.721   1.356 -2.2382  0.6591  1.4974
   16CHTO   H74 6618   7.643   2.719   1.276  0.2888 -0.5817  0.0291
   16CHTO   C40 6619   7.809   2.544   1.067 -0.2334  0.6148  0.1251
   16CHTO   H82 6620   7.704   2.526   1.043  0.4534 -2.7268 -0.5027
   16CHTO   O26 6621   7.890   2.564   0.946 -0.3529 -0.3269 -0.3136
   16CHTO   C41 6622   7.826   2.658   0.851 -0.5718 -0.3063 -0.6105
   16CHTO   H83 6623   7.730   2.613   0.822 -1.1851  0.7690 -0.2924
   16CHTO   C52 6624   7.911   2.673   0.724 -0.4024  0.4633  0.1959
   16CHTO   O35 6625   7.899   2.560   0.647  0.3922  0.5224  0.1916
   16CHTO   H71 6626   7.820   2.567   0.597  0.2932  1.4557  0.4594
   16CHTO   O28 6627   7.873   2.441   1.149  0.2104 -0.0862  0.1808
   16CHTO   C42 6628   7.839   2.302   1.123 -0.9985  0.2518  0.4772
   16CHTO   H84 6629   7.886   2.241   1.200 -0.6891  0.0461  0.1295
   16CHTO   C44 6630   7.880   2.248   0.983  0.1483 -0.0695 -0.5089
   16CHTO   H86 6631   7.820   2.298   0.907  0.0266  0.9395  0.2442
   16CHTO   O32 6632   8.016   2.288   0.965  0.1852  0.4367  0.4329
   16CHTO   H69 6633   8.064   2.299   1.045  1.2644  0.9103 -0.2601
   16CHTO   C48 6634   7.857   2.084   0.968  0.2589  0.6395  0.2912
   16CHTO   H90 6635   7.911   2.035   1.049  1.4279  2.1366  0.4392
   16CHTO    N9 6636   7.917   2.027   0.841  0.0089 -0.9231  0.2356
   16CHTO   H77 6637   7.929   2.097   0.760  2.0653 -1.6376 -0.0831
   16CHTO   H78 6638   8.012   1.985   0.870  0.8076 -0.1671 -1.2250
   16CHTO   C51 6639   7.706   2.060   0.985  0.1431 -0.0157 -0.2658
   16CHTO   H93 6640   7.649   2.113   0.908 -0.2040  0.8290  0.5654
   16CHTO   O30 6641   7.675   2.110   1.118 -0.0109  0.1039  0.0422
   16CHTO   C46 6642   7.685   2.277   1.134  0.3576  0.1176  0.0321
   16CHTO   H88 6643   7.631   2.316   1.048  1.9298  1.7673 -0.2366
   16CHTO   C53 6644   7.626   2.330   1.268 -0.8573 -0.2639  0.1157
   16CHTO   O72 6645   7.493   2.266   1.279  0.0054  0.1018  0.0945
   16CHTO  H199 6646   7.421   2.326   1.288  0.8520  1.2099 -0.2810
   16CHTO   O22 6647   7.665   1.923   0.981  0.1355  0.2063  0.1777
   16CHTO   C31 6648   7.524   1.878   1.005 -0.0502 -0.7309  0.3031
   16CHTO   H59 6649   7.480   1.954   1.073  0.6012 -0.3826  0.3314
   16CHTO   C29 6650   7.438   1.870   0.888  0.5455  0.3407 -0.7675
   16CHTO   H57 6651   7.497   1.805   0.822  3.7889  1.3197  1.0959
   16CHTO   O21 6652   7.435   2.004   0.836 -0.0259  0.0407 -0.0223
   16CHTO   H37 6653   7.367   2.056   0.875  1.0864  1.2096  0.3912
   16CHTO   C27 6654   7.286   1.825   0.908  0.2245  0.5358 -0.0973
   16CHTO   H55 6655   7.228   1.909   0.948 -0.4840  1.0381 -2.0945
   16CHTO    N5 6656   7.227   1.791   0.772  0.0084  0.1697 -0.5672
   16CHTO   H43 6657   7.306   1.730   0.731 -0.5220 -1.3880  0.6552
   16CHTO   H44 6658   7.150   1.717   0.789  1.0235 -0.7434  0.1416
   16CHTO   C25 6659   7.294   1.698   1.002 -0.1877 -0.8750  0.6608
   16CHTO   H53 6660   7.319   1.619   0.929  0.3864  1.7113 -2.0937
   16CHTO   O17 6661   7.380   1.711   1.117 -0.0841  0.2071 -0.0809
   16CHTO   C32 6662   7.517   1.740   1.082 -0.3190  0.4854  0.2006
   16CHTO   H60 6663   7.560   1.666   1.015  1.9948  1.6694  0.3437
   16CHTO   C36 6664   7.607   1.736   1.210  0.0535  0.4167  0.4953
   16CHTO   O25 6665   7.743   1.722   1.174 -0.2039  0.0023 -0.3144
   16CHTO   H40 6666   7.791   1.781   1.229  0.7665 -0.8132 -0.2814
   16CHTO   O15 6667   7.141   1.667   1.030 -0.4407  0.3338  0.3901
   16CHTO   C19 6668   7.032   1.635   1.120  0.1056  0.1385 -0.6213
   16CHTO   H47 6669   7.047   1.530   1.148 -0.0018  0.7835  1.9862
   16CHTO   C20 6670   7.037   1.720   1.248  0.6337 -0.5409  0.0704
   16CHTO   H48 6671   7.054   1.826   1.227  0.0501 -0.6370 -0.9010
   16CHTO   O19 6672   7.158   1.671   1.315 -0.5726  0.4862 -0.1649
   16CHTO   H35 6673   7.236   1.692   1.267  0.4902 -0.0960  1.2732
   16CHTO   C21 6674   6.905   1.706   1.337  0.2928  0.5099  0.3297
   16CHTO   H49 6675   6.898   1.601   1.365  0.2839 -0.2227 -2.2940
   16CHTO    N4 6676   6.898   1.783   1.467 -0.7131 -0.4081 -0.0704
   16CHTO   H41 6677   6.978   1.856   1.466 -0.1038 -1.0684 -0.7749
   16CHTO   H42 6678   6.803   1.830   1.481 -0.8275 -1.4122  2.7901
   16CHTO   C22 6679   6.778   1.722   1.248  0.0114 -0.4925 -0.0524
   16CHTO   H50 6680   6.783   1.822   1.206  0.0962 -0.5681 -0.2227
   16CHTO   O14 6681   6.785   1.628   1.138 -0.2222  0.3377  0.1947
   16CHTO   C23 6682   6.891   1.648   1.049 -0.1036  0.0286  0.5871
   16CHTO   H51 6683   6.879   1.747   1.003  1.2522 -0.6951 -1.3675
   16CHTO   C34 6684   6.889   1.536   0.940  0.2979 -0.2826 -0.1749
   16CHTO   O23 6685   6.795   1.556   0.838  0.5662 -0.0118 -0.3476
   16CHTO   H38 6686   6.810   1.500   0.765 -1.9968 -0.0872 -0.8651
   16CHTO   O16 6687   6.651   1.701   1.313  0.6836  0.1223  0.7855
   16CHTO   C24 6688   6.544   1.811   1.290 -0.5531 -0.2750 -0.1242
   16CHTO   H52 6689   6.552   1.852   1.189 -0.1797 -1.7232 -0.6923
   16CHTO   C26 6690   6.556   1.932   1.387  0.1379 -0.6252  0.8040
   16CHTO   H54 6691   6.568   1.895   1.491  3.1485 -1.0055  0.3681
   16CHTO   O20 6692   6.679   1.994   1.364 -0.0194  0.1123  0.2614
   16CHTO   H36 6693   6.704   2.072   1.410  3.0853 -0.9584  0.4915
   16CHTO   C30 6694   6.437   2.030   1.378  0.0016  0.3597  0.3354
   16CHTO   H58 6695   6.437   2.090   1.285 -0.5911 -1.9763 -1.2197
   16CHTO    N6 6696   6.430   2.133   1.484 -0.2339 -0.6287 -0.5206
   16CHTO   H45 6697   6.402   2.096   1.581 -1.1695  2.6951  0.5530
   16CHTO   H46 6698   6.527   2.182   1.488 -1.1873  1.2158  1.4969
   16CHTO   C33 6699   6.304   1.950   1.371 -0.5773 -0.1980  0.0502
   16CHTO   H61 6700   6.279   1.908   1.469 -0.4514 -2.6770 -0.9457
   16CHTO   O18 6701   6.307   1.837   1.280  0.1287 -0.1186 -0.1153
   16CHTO   C28 6702   6.411   1.741   1.295  0.5780  0.4518  0.9669
   16CHTO   H56 6703   6.400   1.689   1.391  0.1680  0.8293  1.1261
   16CHTO   C35 6704   6.384   1.637   1.181  0.1143  0.1874 -0.3243
   16CHTO   O24 6705   6.478   1.533   1.192 -0.1880  0.6569  0.2361
   16CHTO   H39 6706   6.510   1.501   1.110 -2.5162 -0.1321 -0.4184
   16CHTO    O9 6707   6.197   2.042   1.338 -0.0436 -0.1305 -0.2274
   16CHTO   C13 6708   6.070   2.024   1.425  0.5526  0.3205  0.2796
   16CHTO   H26 6709   6.101   2.041   1.531  1.1139  1.6929 -0.0856
   16CHTO   C11 6710   6.002   1.881   1.411 -0.7319 -0.5910 -0.6694
   16CHTO   H24 6711   6.071   1.809   1.457 -0.3629 -0.5998 -1.2343
   16CHTO    O8 6712   5.999   1.838   1.273  0.0715  0.0757  0.1029
   16CHTO    H3 6713   5.927   1.779   1.258  1.4649 -1.8875  0.8926
   16CHTO    C9 6714   5.858   1.882   1.480 -0.7344 -0.2771  0.1324
   16CHTO   H22 6715   5.872   1.918   1.583  0.6886  0.6363 -0.3652
   16CHTO    N2 6716   5.800   1.743   1.490  0.0262 -1.1285 -0.2444
   16CHTO   H10 6717   5.861   1.667   1.444  0.0052  0.7724 -3.6089
   16CHTO   H11 6718   5.780   1.720   1.594  3.2482 -0.0856  0.6721
   16CHTO    C7 6719   5.764   1.996   1.410 -0.7311  0.5132 -0.3391
   16CHTO   H20 6720   5.718   2.037   1.502  0.0977 -0.9404  0.7565
   16CHTO    O4 6721   5.835   2.093   1.340 -0.1661 -0.2337 -0.8224
   16CHTO   C14 6722   5.962   2.142   1.397 -0.8527 -0.0900 -0.1098
   16CHTO   H27 6723   5.940   2.183   1.498 -1.0850 -0.3982 -0.0324
   16CHTO   C18 6724   6.012   2.259   1.305  0.1440  0.0577 -0.0629
   16CHTO   O13 6725   6.080   2.366   1.379  0.0867  0.3028  0.1911
   16CHTO    H7 6726   6.018   2.401   1.441  0.2152 -0.4106  0.7248
   16CHTO    O2 6727   5.648   1.927   1.297  0.5855  0.1961  0.3322
   16CHTO    C1 6728   5.515   1.985   1.297 -0.3595  0.3905  0.3561
   16CHTO   H14 6729   5.452   1.938   1.219  1.0927 -1.2888  0.1574
   16CHTO    C2 6730   5.498   2.146   1.271  0.3343 -0.2469  0.3227
   16CHTO   H15 6731   5.556   2.192   1.353 -1.6021 -0.5080  1.8941
   16CHTO    O6 6732   5.538   2.175   1.138  0.1478 -0.3264 -0.1910
   16CHTO    H1 6733   5.574   2.103   1.091 -1.1505 -0.5131 -0.9105
   16CHTO    C3 6734   5.348   2.198   1.301  0.3046  0.0925 -0.0471
   16CHTO   H16 6735   5.280   2.145   1.233  0.4176  1.1186 -0.9802
   16CHTO    N1 6736   5.330   2.341   1.292 -0.3865  0.0463  0.3401
   16CHTO    H8 6737   5.387   2.397   1.365 -0.3530  0.2434  0.1633
   16CHTO    H9 6738   5.227   2.375   1.299 -0.4167 -0.2134  1.3176
   16CHTO    C4 6739   5.305   2.147   1.449  0.0329  0.0706 -0.4614
   16CHTO   H17 6740   5.370   2.194   1.523  0.7334  0.5967 -1.4050
   16CHTO    O1 6741   5.312   2.003   1.460 -0.1801  0.3768 -0.1104
   16CHTO    C5 6742   5.442   1.941   1.432  0.0436  0.7821 -0.2045
   16CHTO   H18 6743   5.507   1.959   1.518 -0.5596 -0.1674  0.4632
   16CHTO   C16 6744   5.413   1.791   1.425  0.3319  0.4276  0.2378
   16CHTO   O11 6745   5.378   1.743   1.552 -0.5417  0.2971 -0.3000
   16CHTO    H5 6746   5.443   1.682   1.580 -0.3527  0.3309 -0.6638
   16CHTO    O3 6747   5.161   2.174   1.473 -0.7760 -0.0041 -0.4041
   16CHTO    C6 6748   5.097   2.112   1.596 -0.2110  0.6136 -0.1898
   16CHTO   H19 6749   5.163   2.038   1.641 -2.0842 -0.3435  1.0146
   16CHTO    C8 6750   5.075   2.208   1.702  0.4913 -0.5038  0.7405
   16CHTO   H21 6751   5.040   2.300   1.656  0.9759 -1.4172 -1.5169
   16CHTO    O7 6752   5.197   2.237   1.771 -0.5769 -0.2272 -0.2836
   16CHTO    H2 6753   5.260   2.283   1.720 -1.5477  1.5971  0.1250
   16CHTO   C12 6754   4.962   2.155   1.806 -0.1232  0.1566  0.2072
   16CHTO   H25 6755   5.011   2.080   1.872 -1.7795 -1.6803 -0.6044
   16CHTO    N3 6756   4.922   2.271   1.898 -0.1689 -0.1686  0.0948
   16CHTO   H12 6757   4.841   2.324   1.849  1.2555  1.7517 -0.2564
   16CHTO   H13 6758   4.904   2.221   1.992 -0.9189 -0.0697  0.0127
   16CHTO   C15 6759   4.842   2.080   1.742 -0.8892 -0.1283  0.2993
   16CHTO   H28 6760   4.769   2.151   1.704 -0.5825 -1.2449 -2.4819
   16CHTO   O10 6761   4.778   1.995   1.827  0.5125  0.1264  0.3676
   16CHTO    H4 6762   4.717   2.040   1.884  0.8712 -0.8877  1.5742
   16CHTO    O5 6763   4.884   1.986   1.638  0.6892 -0.0425  0.1008
   16CHTO   C10 6764   4.976   2.039   1.544 -1.0674 -0.4714  1.0746
   16CHTO   H23 6765   4.920   2.109   1.483 -0.1332 -1.9840 -1.6201
   16CHTO   C17 6766   5.015   1.926   1.445 -0.8448  0.3985  0.4916
   16CHTO   O12 6767   5.060   1.806   1.516  0.2561  0.5955 -0.0559
   16CHTO    H6 6768   5.021   1.729   1.478 -1.7660  1.4642  0.2076
   17CHTO  H203 6769   5.893   4.230  -0.269  1.3271  2.1454 -0.2276
   17CHTO   O82 6770   5.893   4.255  -0.178 -0.1796 -0.0440  0.3955
   17CHTO  C123 6771   5.808   4.366  -0.146  0.4147 -0.1206  0.1561
   17CHTO  H227 6772   5.738   4.335  -0.067 -0.1387  3.0811  1.0070
   17CHTO   O77 6773   5.892   4.462  -0.089  0.3260  0.1157 -0.5541
   17CHTO  C118 6774   5.846   4.596  -0.050 -0.5238 -0.3628 -0.6238
   17CHTO  H222 6775   5.770   4.583   0.028 -0.1619  1.7563  0.1000
   17CHTO  C125 6776   5.966   4.684   0.004 -0.6314  0.4526 -0.7445
   17CHTO   O84 6777   6.019   4.628   0.127 -0.2026  0.0649  0.5323
   17CHTO  H205 6778   6.007   4.694   0.193 -1.8070  1.1083 -0.7601
   17CHTO  C114 6779   5.781   4.663  -0.171 -0.4439 -0.0922 -0.0875
   17CHTO  H218 6780   5.857   4.688  -0.245 -0.9699  1.0563 -0.2470
   17CHTO  C116 6781   5.676   4.569  -0.234  0.5523 -1.0989  0.2926
   17CHTO  H220 6782   5.591   4.558  -0.164  0.3503 -0.5400  0.1399
   17CHTO   O79 6783   5.615   4.631  -0.350 -0.1131 -0.1326  0.0181
   17CHTO  H201 6784   5.569   4.565  -0.398  0.5443 -0.4521 -0.1851
   17CHTO  C120 6785   5.729   4.426  -0.268  0.3612  0.4755 -0.0684
   17CHTO  H224 6786   5.795   4.429  -0.358 -0.9258 -1.1073 -1.0961
   17CHTO   N21 6787   5.622   4.338  -0.315 -0.0154 -0.0071 -0.2241
   17CHTO  H211 6788   5.531   4.394  -0.332 -0.2077 -0.4707 -0.7366
   17CHTO  H212 6789   5.608   4.266  -0.236  1.5162  0.0944  0.1503
   17CHTO   O75 6790   5.734   4.791  -0.117 -0.1180  0.1177 -0.4598
   17CHTO  C112 6791   5.736   4.907  -0.231  0.2997 -0.0499  0.0663
   17CHTO  H216 6792   5.699   4.865  -0.326  1.0326 -1.2568  0.3049
   17CHTO   O73 6793   5.870   4.956  -0.237  1.0516 -0.5409  0.7117
   17CHTO  C113 6794   5.891   5.074  -0.323 -0.0520 -0.1882 -0.9961
   17CHTO  H217 6795   5.851   5.039  -0.420 -0.2495 -0.9912 -0.6235
   17CHTO  C124 6796   6.036   5.114  -0.332 -0.1713  0.2413 -0.2700
   17CHTO   O83 6797   6.076   5.164  -0.206  0.2228  0.1495  0.1335
   17CHTO  H204 6798   6.168   5.180  -0.199  0.7027 -1.4716 -1.9098
   17CHTO  C109 6799   5.805   5.186  -0.270 -0.0917  0.6816  0.5833
   17CHTO  H213 6800   5.831   5.200  -0.164  1.5772  1.6182  0.0676
   17CHTO  C110 6801   5.654   5.145  -0.286 -0.2374 -0.1392  0.3626
   17CHTO  H214 6802   5.638   5.112  -0.388 -4.6135 -0.3020  1.0173
   17CHTO   O78 6803   5.561   5.250  -0.254  0.6301  0.3673  0.2801
   17CHTO  H200 6804   5.569   5.302  -0.332  2.3695 -0.6333 -0.2424
   17CHTO  C111 6805   5.633   5.021  -0.196  0.2626 -0.2751  0.4103
   17CHTO  H215 6806   5.660   5.049  -0.093 -1.0792  1.3290  0.3500
   17CHTO   N19 6807   5.497   4.962  -0.196 -0.6813  0.1627  0.0925
   17CHTO  H207 6808   5.490   4.865  -0.243  0.2584 -0.3000  0.9077
   17CHTO  H208 6809   5.466   4.954  -0.093 -2.0961  3.9116  0.0585
   17CHTO   O74 6810   5.826   5.309  -0.343  0.1619 -0.1222  0.4469
   17CHTO  C115 6811   5.821   5.439  -0.242 -0.0052 -0.0646  0.5893
   17CHTO  H219 6812   5.743   5.428  -0.166 -0.3673 -0.1261  0.2137
   17CHTO   O76 6813   5.955   5.455  -0.161  0.6310  0.2172  0.3121
   17CHTO  C122 6814   6.074   5.476  -0.237  0.0944  0.1933  0.0521
   17CHTO  H226 6815   6.090   5.398  -0.311  0.7921 -0.3584  0.7806
   17CHTO  C126 6816   6.194   5.472  -0.131 -0.3516 -0.4671 -0.3470
   17CHTO   O85 6817   6.320   5.460  -0.201  0.0748  0.0550  0.0553
   17CHTO  H206 6818   6.368   5.391  -0.161  1.2321 -0.6113 -2.3638
   17CHTO  C121 6819   6.060   5.611  -0.319  0.3472 -1.2279  0.3096
   17CHTO  H225 6820   6.140   5.685  -0.302 -0.3697 -0.1704 -0.8156
   17CHTO   O81 6821   6.056   5.586  -0.463 -0.3209 -0.5595  0.5613
   17CHTO  H202 6822   6.140   5.558  -0.491 -0.6058 -1.6634  0.8140
   17CHTO  C119 6823   5.920   5.677  -0.293  0.1405  0.1283 -0.7719
   17CHTO  H223 6824   5.918   5.695  -0.186  1.2370 -1.4271 -0.4789
   17CHTO  C117 6825   5.800   5.571  -0.328  0.4059  0.4012 -0.7866
   17CHTO  H221 6826   5.795   5.531  -0.429 -3.8602  1.3499 -1.0212
   17CHTO   N20 6827   5.669   5.641  -0.312 -0.3324 -0.7551 -0.0524
   17CHTO  H209 6828   5.683   5.735  -0.260  0.5720 -0.4126 -0.8852
   17CHTO  H210 6829   5.623   5.663  -0.407  2.0805 -0.1014 -1.1152
   17CHTO   O80 6830   5.902   5.828  -0.365 -0.0631 -0.3480 -0.2779
   17CHTO  C103 6831   5.967   5.958  -0.280  0.4270  0.9465 -0.6250
   17CHTO  H190 6832   5.989   5.933  -0.176  1.4316 -1.5461 -1.3986
   17CHTO  C101 6833   6.094   6.026  -0.347 -0.2581  0.1541 -0.1386
   17CHTO  H188 6834   6.062   6.037  -0.450 -2.5845 -0.2899  0.5175
   17CHTO   O68 6835   6.217   5.931  -0.344  0.3063 -0.2812 -0.6128
   17CHTO  H168 6836   6.280   5.934  -0.413  0.3067  0.1939 -0.5888
   17CHTO   C99 6837   6.129   6.164  -0.282  0.1868  0.0868 -1.0106
   17CHTO  H186 6838   6.152   6.148  -0.175 -1.9438  1.4894 -0.2824
   17CHTO   N17 6839   6.239   6.233  -0.349  0.0192  0.0403  0.6584
   17CHTO  H174 6840   6.283   6.313  -0.291  0.9037  0.1684 -0.1790
   17CHTO  H175 6841   6.314   6.173  -0.398 -0.5970 -1.2483  1.2749
   17CHTO   C97 6842   5.994   6.251  -0.286 -0.1575  0.1370 -0.4686
   17CHTO  H184 6843   5.970   6.264  -0.393  0.1400 -0.0827 -0.5635
   17CHTO   O64 6844   5.894   6.174  -0.215  0.0896  0.8624  0.7432
   17CHTO  C104 6845   5.845   6.061  -0.278 -0.3194 -0.3454 -0.3658
   17CHTO  H191 6846   5.813   6.093  -0.377 -1.3321  1.7127  0.5851
   17CHTO  C108 6847   5.724   5.996  -0.219  0.1716 -0.0870  0.4296
   17CHTO   O71 6848   5.615   6.080  -0.187 -0.1066 -0.0613  0.4794
   17CHTO  H171 6849   5.571   6.100  -0.267  2.5178  0.5952 -0.8504
   17CHTO   O62 6850   5.995   6.374  -0.213  0.7142 -0.0843  0.3860
   17CHTO   C91 6851   5.896   6.469  -0.269 -0.1228 -0.3557  0.0779
   17CHTO  H178 6852   5.816   6.412  -0.316 -0.7101  1.3086 -0.9816
   17CHTO   C92 6853   5.961   6.562  -0.383 -0.2926 -0.1430  0.2792
   17CHTO  H179 6854   6.006   6.502  -0.463  1.4688  3.2123 -1.3673
   17CHTO   O66 6855   5.842   6.631  -0.446  0.5706 -0.4768  0.5781
   17CHTO  H166 6856   5.799   6.571  -0.504  0.9429 -2.3666  2.1915
   17CHTO   C93 6857   6.055   6.672  -0.329 -0.3322 -0.3933  0.1197
   17CHTO  H180 6858   6.058   6.753  -0.404 -1.6190  0.2805  0.7695
   17CHTO   N16 6859   6.193   6.625  -0.312  0.3943  0.3327  0.7568
   17CHTO  H172 6860   6.236   6.639  -0.214  1.4427 -2.3101  0.7177
   17CHTO  H173 6861   6.203   6.524  -0.351 -0.7210  0.8860 -1.0253
   17CHTO   C94 6862   5.996   6.729  -0.194  0.3664  0.6277 -1.5708
   17CHTO  H181 6863   6.054   6.695  -0.108  2.6381 -0.3980 -3.4536
   17CHTO   O61 6864   5.853   6.698  -0.175  0.1014  0.6414 -0.2057
   17CHTO   C95 6865   5.827   6.562  -0.152 -0.0594  0.3502  0.3868
   17CHTO  H182 6866   5.885   6.531  -0.066  2.0866  1.1139 -0.7391
   17CHTO  C106 6867   5.676   6.539  -0.127 -0.2152 -0.0480 -0.0306
   17CHTO   O69 6868   5.643   6.585   0.004  0.6895 -0.3694  0.5332
   17CHTO  H169 6869   5.595   6.665  -0.010  0.7556 -0.4375 -0.1005
   17CHTO   O63 6870   6.005   6.892  -0.202  0.8386  0.7514 -0.0551
   17CHTO   C96 6871   5.946   6.953  -0.051 -0.2139 -0.2635  0.7131
   17CHTO  H183 6872   5.928   6.868   0.014 -0.0330  0.4993  1.7774
   17CHTO   C98 6873   5.816   7.035  -0.073  0.2274  0.7689 -0.1295
   17CHTO  H185 6874   5.839   7.112  -0.148  0.2946 -0.8337 -1.8192
   17CHTO   O67 6875   5.725   6.943  -0.134 -0.7215  0.5440  0.5638
   17CHTO  H167 6876   5.636   6.973  -0.135 -0.3776  1.5381 -1.1469
   17CHTO  C102 6877   5.773   7.102   0.069  0.0350  0.0247  0.0916
   17CHTO  H189 6878   5.769   7.021   0.144  2.4729 -0.1864  0.0407
   17CHTO   N18 6879   5.641   7.171   0.074  0.0542 -0.0341  0.8138
   17CHTO  H176 6880   5.658   7.266   0.025  0.2255 -0.3632  0.2193
   17CHTO  H177 6881   5.620   7.193   0.177  0.3318  0.7669  0.7004
   17CHTO  C105 6882   5.893   7.192   0.113 -0.1970 -0.0200  0.1380
   17CHTO  H192 6883   5.904   7.271   0.039 -1.3844 -2.2715 -2.5385
   17CHTO   O65 6884   6.016   7.117   0.122  0.4999 -1.1059  0.3581
   17CHTO  C100 6885   6.059   7.043   0.010  0.4596 -0.1017 -0.3448
   17CHTO  H187 6886   6.096   7.113  -0.066 -0.6133  0.1951 -0.6015
   17CHTO  C107 6887   6.194   6.970   0.049  0.6733 -0.1541  0.5952
   17CHTO   O70 6888   6.285   7.061   0.103  0.4071 -0.1395  0.1580
   17CHTO  H170 6889   6.285   7.064   0.197 -0.6425 -1.3271  0.2022
   17CHTO   O57 6890   5.863   7.259   0.238  0.1467 -0.0167  0.1325
   17CHTO   C85 6891   5.912   7.394   0.262 -0.0214  0.1957  0.7821
   17CHTO  H157 6892   5.922   7.438   0.160  1.7976 -1.2651  0.3047
   17CHTO   C83 6893   6.061   7.384   0.311 -1.1839  0.5462 -0.2274
   17CHTO  H155 6894   6.123   7.356   0.227 -0.5463  0.0814  0.3969
   17CHTO   O56 6895   6.064   7.280   0.410  0.2042 -0.1095 -0.4345
   17CHTO  H135 6896   6.140   7.225   0.401 -0.4940 -0.8438 -1.8817
   17CHTO   C81 6897   6.103   7.519   0.365 -1.2758 -0.0575 -0.7230
   17CHTO  H153 6898   6.100   7.591   0.283  2.7008 -1.3665 -2.1474
   17CHTO   N14 6899   6.242   7.524   0.405  0.5930 -0.6648 -0.2538
   17CHTO  H141 6900   6.260   7.484   0.503  0.4514 -1.7647 -0.6686
   17CHTO  H142 6901   6.287   7.459   0.333  1.6180  1.1216 -1.2620
   17CHTO   C79 6902   6.008   7.567   0.483 -0.1485 -0.1333 -0.3428
   17CHTO  H151 6903   6.048   7.660   0.525 -0.1698 -1.2767  2.3091
   17CHTO   O52 6904   5.878   7.597   0.432 -0.4845  0.0977 -0.1754
   17CHTO   C86 6905   5.820   7.482   0.357  0.4325  0.2407  0.6566
   17CHTO  H158 6906   5.780   7.416   0.437  1.5390 -3.7830 -1.9244
   17CHTO   C90 6907   5.701   7.522   0.273 -0.1874 -0.3126  0.1451
   17CHTO   O60 6908   5.604   7.579   0.358 -0.5738 -0.1513  0.4546
   17CHTO  H138 6909   5.552   7.516   0.404 -1.2569 -0.8133 -1.1768
   17CHTO   O50 6910   5.987   7.479   0.596 -0.4780 -0.1990 -0.0801
   17CHTO   C73 6911   5.979   7.439   0.729  0.4299 -0.3872 -0.2300
   17CHTO  H145 6912   5.918   7.513   0.782  1.0601  0.1791 -0.2989
   17CHTO   C74 6913   6.126   7.427   0.801 -0.0531 -0.0376 -0.1284
   17CHTO  H146 6914   6.176   7.525   0.791 -2.1726  0.8906 -2.0428
   17CHTO   O54 6915   6.101   7.408   0.939 -0.0552 -0.7690 -0.7217
   17CHTO  H133 6916   6.037   7.468   0.974  1.2451  0.8352 -1.0732
   17CHTO   C75 6917   6.209   7.304   0.732 -0.1356  0.1510 -0.4330
   17CHTO  H147 6918   6.218   7.326   0.625  0.5317 -1.0208 -0.6286
   17CHTO   N13 6919   6.350   7.289   0.781  0.3243  0.1732 -0.7171
   17CHTO  H139 6920   6.357   7.219   0.864  2.6828  0.7254 -0.4196
   17CHTO  H140 6921   6.379   7.386   0.819 -0.1153  0.3229 -0.7572
   17CHTO   C76 6922   6.124   7.166   0.745  0.1633  0.3412 -0.4331
   17CHTO  H148 6923   6.107   7.146   0.850 -0.6184  3.1085  0.0213
   17CHTO   O49 6924   5.995   7.191   0.679  0.0991  0.6849 -0.4014
   17CHTO   C77 6925   5.916   7.295   0.735  0.0011  0.2459 -0.2319
   17CHTO  H149 6926   5.904   7.275   0.842 -1.9015 -1.0757 -0.6654
   17CHTO   C88 6927   5.780   7.289   0.660 -0.3682  0.7441  0.5939
   17CHTO   O58 6928   5.688   7.396   0.719  0.0864 -0.0387  0.3174
   17CHTO  H136 6929   5.662   7.367   0.804 -0.0978 -2.3898 -0.5042
   17CHTO   O51 6930   6.196   7.046   0.674  0.0488  0.4404 -0.8742
   17CHTO   C78 6931   6.098   6.905   0.664 -0.1683  0.6172 -0.7594
   17CHTO  H150 6932   5.995   6.925   0.701 -0.0842 -1.3594  0.6617
   17CHTO   C80 6933   6.152   6.792   0.759 -0.1480 -0.1802  0.2282
   17CHTO  H152 6934   6.256   6.766   0.730  1.4148  1.2361  4.2183
   17CHTO   O55 6935   6.157   6.851   0.889  0.1625 -0.7100  0.3368
   17CHTO  H134 6936   6.237   6.824   0.930 -0.3512  1.5500  2.9942
   17CHTO   C84 6937   6.061   6.662   0.751  0.0474 -0.3635  1.0235
   17CHTO  H156 6938   5.961   6.681   0.790 -0.2665 -1.1107  0.5791
   17CHTO   N15 6939   6.109   6.541   0.824 -0.0666 -1.0392  0.0995
   17CHTO  H143 6940   6.076   6.535   0.925 -0.3367 -1.1976 -0.0004
   17CHTO  H144 6941   6.216   6.533   0.824 -0.0302 -0.5472  0.9175
   17CHTO   C87 6942   6.040   6.617   0.603  0.0878  0.6516 -0.0354
   17CHTO  H159 6943   6.131   6.572   0.562  0.4690  0.3245  1.1754
   17CHTO   O53 6944   5.997   6.746   0.512  0.7718 -0.6630 -0.4309
   17CHTO   C82 6945   6.088   6.860   0.518 -0.2138  0.3293  0.0355
   17CHTO  H154 6946   6.191   6.840   0.489  0.0222  2.7270 -0.9225
   17CHTO   C89 6947   6.039   6.967   0.416 -0.7046 -0.7739 -0.3871
   17CHTO   O59 6948   5.908   7.027   0.434  0.1354  0.0381 -0.3848
   17CHTO  H137 6949   5.893   7.099   0.377  0.5696  0.4570  0.0255
   17CHTO   O45 6950   5.941   6.508   0.574 -0.6383  0.1551 -0.4718
   17CHTO   C67 6951   5.799   6.507   0.586  0.5219 -0.0089  0.2351
   17CHTO  H124 6952   5.780   6.510   0.693 -1.3717  0.0132 -0.0788
   17CHTO   C65 6953   5.711   6.618   0.502  0.0306  0.6511  0.2147
   17CHTO  H122 6954   5.786   6.658   0.434 -0.5240  0.9141 -0.2418
   17CHTO   O44 6955   5.671   6.719   0.600 -0.6872 -0.5837 -0.2931
   17CHTO  H102 6956   5.616   6.789   0.569  1.3946  1.6383  0.9095
   17CHTO   C63 6957   5.603   6.551   0.406  0.5062  0.0735 -0.3883
   17CHTO  H120 6958   5.653   6.491   0.330  2.0069  0.8420 -0.0416
   17CHTO   N11 6959   5.522   6.650   0.320  0.1151 -0.8341 -0.0132
   17CHTO  H108 6960   5.590   6.719   0.275  1.4712 -1.7090  0.6743
   17CHTO  H109 6961   5.447   6.712   0.365 -1.0782 -0.0590 -2.9616
   17CHTO   C61 6962   5.523   6.438   0.484 -0.7527 -0.1970  0.5678
   17CHTO  H118 6963   5.473   6.383   0.403  0.6167  1.9383 -1.8172
   17CHTO   O40 6964   5.611   6.353   0.554  0.5154 -0.1767  0.2220
   17CHTO   C68 6965   5.751   6.364   0.539  0.4798  1.0141 -0.2291
   17CHTO  H125 6966   5.772   6.342   0.432 -0.5707  2.0744 -0.6636
   17CHTO   C72 6967   5.814   6.254   0.615  0.0528 -0.1323 -0.0009
   17CHTO   O48 6968   5.925   6.196   0.547 -0.3250 -0.2128 -0.1882
   17CHTO  H105 6969   6.000   6.251   0.544  0.6696 -1.5339 -0.2954
   17CHTO   O38 6970   5.441   6.489   0.589 -0.3596 -0.4132 -0.4499
   17CHTO   C55 6971   5.323   6.422   0.635  0.2706 -0.3897  0.1476
   17CHTO  H112 6972   5.364   6.387   0.730  0.5548 -0.4547  0.0016
   17CHTO   C56 6973   5.273   6.294   0.544 -0.5606 -0.7211 -0.9556
   17CHTO  H113 6974   5.262   6.331   0.441  0.1111 -1.4884 -1.3189
   17CHTO   O42 6975   5.359   6.186   0.551 -0.4772 -0.1835 -0.1106
   17CHTO  H100 6976   5.372   6.153   0.464 -0.2646  1.9643 -0.9182
   17CHTO   C57 6977   5.130   6.242   0.601  0.1036 -0.1683 -0.3161
   17CHTO  H114 6978   5.150   6.178   0.687 -1.6297  2.5871  2.2395
   17CHTO   N10 6979   5.063   6.155   0.498  0.2866  0.6350  0.0288
   17CHTO  H106 6980   5.108   6.057   0.498 -1.3948 -0.2197 -2.9508
   17CHTO  H107 6981   4.959   6.141   0.525 -0.6336  0.8377 -3.1714
   17CHTO   C58 6982   5.039   6.353   0.653  1.0898  0.4610 -0.3101
   17CHTO  H115 6983   5.012   6.422   0.571  2.1421  1.1553 -0.0803
   17CHTO   O37 6984   5.113   6.442   0.743 -0.4884 -0.1370 -0.1324
   17CHTO   C59 6985   5.208   6.522   0.674  0.3770 -0.3730  0.1089
   17CHTO  H116 6986   5.181   6.568   0.579  3.3178  0.3719 -0.4304
   17CHTO   C70 6987   5.245   6.633   0.772 -0.0005 -0.1094 -0.4498
   17CHTO   O46 6988   5.320   6.603   0.892 -0.1237  0.0419 -0.2721
   17CHTO  H103 6989   5.399   6.558   0.871 -1.1908 -1.9746 -0.1386
   17CHTO   O39 6990   4.895   6.264   0.741  0.7262  0.0221  0.2313
   17CHTO   C60 6991   4.773   6.339   0.750 -0.3917  0.9441  0.2601
   17CHTO  H117 6992   4.802   6.439   0.784  2.1161  0.3645 -0.0345
   17CHTO   C62 6993   4.708   6.354   0.615 -0.1864 -0.7448 -0.3836
   17CHTO  H119 6994   4.782   6.408   0.553 -2.2797  1.9485 -0.6547
   17CHTO   O43 6995   4.682   6.223   0.559 -0.0855 -0.3896 -0.1718
   17CHTO  H101 6996   4.752   6.185   0.511 -0.6917 -2.3981  0.4660
   17CHTO   C66 6997   4.573   6.446   0.628  0.3912 -0.1103 -0.3898
   17CHTO  H123 6998   4.597   6.542   0.674 -1.7706 -0.9950  2.7618
   17CHTO   N12 6999   4.506   6.458   0.493  0.4644 -0.3584 -0.2068
   17CHTO  H110 7000   4.575   6.432   0.413 -1.5462 -2.8269 -1.2046
   17CHTO  H111 7001   4.467   6.559   0.493 -0.8400 -0.8534 -0.7444
   17CHTO   C69 7002   4.478   6.373   0.727  0.3181  0.2035 -0.3997
   17CHTO  H126 7003   4.448   6.272   0.694 -0.3129  0.8266 -1.7333
   17CHTO   O41 7004   4.557   6.368   0.862 -0.3995 -0.6136  0.2348
   17CHTO   C64 7005   4.674   6.281   0.851 -0.1392  0.3388 -0.2302
   17CHTO  H121 7006   4.641   6.178   0.826  0.0423  0.1567  0.2689
   17CHTO   C71 7007   4.745   6.264   0.992 -0.4549 -0.2929  0.2981
   17CHTO   O47 7008   4.664   6.188   1.080  0.2204  0.0721 -0.2776
   17CHTO  H104 7009   4.651   6.239   1.158  2.2134  2.0983 -1.1907
   17CHTO   O34 7010   4.345   6.443   0.762  0.0219 -0.0301  0.5996
   17CHTO   C49 7011   4.256   6.534   0.848 -0.5069 -0.0375 -1.0017
   17CHTO   H91 7012   4.322   6.616   0.876 -1.5107  0.5901 -0.4449
   17CHTO   C47 7013   4.221   6.465   0.981 -0.1859 -0.4566  0.1080
   17CHTO   H89 7014   4.158   6.535   1.040 -0.8176 -1.4454  0.6174
   17CHTO   O33 7015   4.337   6.437   1.059 -0.1843  0.1741 -0.3476
   17CHTO   H70 7016   4.386   6.516   1.068 -1.0724  0.4798  2.1399
   17CHTO   C45 7017   4.139   6.329   0.947  0.3869 -0.1482  0.1979
   17CHTO   H87 7018   4.206   6.246   0.920 -0.3407 -0.3368 -1.0795
   17CHTO    N8 7019   4.071   6.294   1.074 -0.2020  0.0438 -0.0432
   17CHTO   H75 7020   3.966   6.275   1.056 -1.1401  0.8455  4.1291
   17CHTO   H76 7021   4.129   6.215   1.118  2.5738  2.2752  0.4361
   17CHTO   C43 7022   4.047   6.343   0.820  0.2116 -0.5970 -1.0272
   17CHTO   H85 7023   4.097   6.290   0.739  1.4023 -1.7532  0.4406
   17CHTO   O29 7024   4.015   6.479   0.789 -0.0677 -0.3017  0.1527
   17CHTO   C50 7025   4.123   6.569   0.779  0.2225  0.1325  0.2575
   17CHTO   H92 7026   4.141   6.594   0.673 -0.5819 -0.9030 -0.1291
   17CHTO   C54 7027   4.080   6.703   0.843  0.1363 -0.0641 -0.3534
   17CHTO   O36 7028   3.967   6.765   0.773 -0.2132 -0.2924  0.2670
   17CHTO   H72 7029   3.907   6.783   0.843 -0.0958 -1.8335  0.7804
   17CHTO   O27 7030   3.925   6.263   0.816  0.0162 -0.6631  0.1164
   17CHTO   C37 7031   3.886   6.137   0.754 -0.0475 -0.1337 -0.6761
   17CHTO   H79 7032   3.778   6.129   0.774 -0.7826  0.5067 -4.1008
   17CHTO   C38 7033   3.897   6.145   0.600  1.2829  0.3528 -0.4401
   17CHTO   H80 7034   3.998   6.171   0.566  1.2368  0.8734 -0.1833
   17CHTO   O31 7035   3.807   6.246   0.559  0.1982 -0.0163 -0.2476
   17CHTO   H68 7036   3.833   6.334   0.577 -1.2161  0.1577  1.0312
   17CHTO   C39 7037   3.863   6.011   0.533  0.4272  0.1186 -0.1119
   17CHTO   H81 7038   3.763   5.987   0.568 -0.0398  0.8564 -0.9131
   17CHTO    N7 7039   3.873   6.010   0.383 -0.5213  0.2066 -0.3356
   17CHTO   H73 7040   3.830   5.918   0.349  1.5934 -0.4822 -1.2472
   17CHTO   H74 7041   3.844   6.097   0.325 -0.9498  1.3122  1.5026
   17CHTO   C40 7042   3.963   5.895   0.592  1.1216 -0.9511 -0.1654
   17CHTO   H82 7043   4.065   5.932   0.578  0.8271 -0.2875 -0.5613
   17CHTO   O26 7044   3.927   5.893   0.733 -0.1766  0.3876  0.2937
   17CHTO   C41 7045   3.960   6.012   0.808 -0.6692 -0.1811  0.1021
   17CHTO   H83 7046   4.068   6.027   0.796 -0.5124  0.3925  2.0790
   17CHTO   C52 7047   3.914   5.989   0.954  0.3576 -0.4386  0.2404
   17CHTO   O35 7048   3.758   5.964   0.954 -0.2217 -0.3949 -0.0951
   17CHTO   H71 7049   3.727   5.901   0.892 -0.8470  1.9909 -2.3074
   17CHTO   O28 7050   3.948   5.761   0.537 -0.3387  0.4500  0.2195
   17CHTO   C42 7051   4.073   5.680   0.530  0.6320  0.1293  0.0002
   17CHTO   H84 7052   4.047   5.577   0.508  1.8395 -0.3618  0.8198
   17CHTO   C44 7053   4.145   5.664   0.671 -0.2289 -0.2040  1.3148
   17CHTO   H86 7054   4.191   5.761   0.693  0.2335  0.0872 -0.8670
   17CHTO   O32 7055   4.037   5.627   0.758  0.1648  0.2462 -0.6312
   17CHTO   H69 7056   4.076   5.635   0.843 -0.4064  0.0713 -0.3487
   17CHTO   C48 7057   4.257   5.554   0.661 -0.1424 -0.3844 -0.2054
   17CHTO   H90 7058   4.224   5.459   0.619 -0.9030 -0.1854 -0.0501
   17CHTO    N9 7059   4.331   5.524   0.791  0.5570  0.2626 -0.2109
   17CHTO   H77 7060   4.324   5.420   0.819  2.1762  0.2593  0.2207
   17CHTO   H78 7061   4.286   5.577   0.873 -1.3851  0.5269 -1.4059
   17CHTO   C51 7062   4.365   5.611   0.551 -0.1097  0.7779  0.2318
   17CHTO   H93 7063   4.387   5.710   0.588 -3.7750  0.8776  2.4164
   17CHTO   O30 7064   4.290   5.614   0.429  0.0012 -0.1334 -0.0918
   17CHTO   C46 7065   4.183   5.726   0.420 -0.0391  0.6297 -0.8276
   17CHTO   H88 7066   4.227   5.817   0.461  0.2651  1.1078 -2.2030
   17CHTO   C53 7067   4.122   5.730   0.276  0.4738 -0.1499  0.0553
   17CHTO   O72 7068   4.210   5.795   0.188  0.2960 -0.1917  0.3767
   17CHTO  H199 7069   4.240   5.879   0.218  0.6259  0.0715 -0.6275
   17CHTO   O22 7070   4.483   5.532   0.530 -0.4107  0.1229  0.0954
   17CHTO   C31 7071   4.575   5.577   0.424  0.1788 -0.3691 -0.0712
   17CHTO   H59 7072   4.673   5.526   0.441  0.7606  1.0635  1.0059
   17CHTO   C29 7073   4.523   5.534   0.280 -0.3908 -0.3478  0.1739
   17CHTO   H57 7074   4.425   5.582   0.268 -1.9560 -3.5843 -0.7185
   17CHTO   O21 7075   4.488   5.390   0.274  0.2802 -0.1694 -0.1791
   17CHTO   H37 7076   4.564   5.342   0.249  0.5896 -0.2106  0.8147
   17CHTO   C27 7077   4.622   5.582   0.167 -0.1797 -0.2938 -0.0598
   17CHTO   H55 7078   4.718   5.530   0.173 -0.1602 -0.3336 -0.7025
   17CHTO    N5 7079   4.560   5.550   0.035 -0.6921 -0.2214  0.3721
   17CHTO   H43 7080   4.621   5.595  -0.043  1.2147 -0.1982  1.8331
   17CHTO   H44 7081   4.460   5.589   0.026 -0.7576 -0.6144 -0.7911
   17CHTO   C25 7082   4.661   5.731   0.189  0.5797  0.2982  0.3672
   17CHTO   H53 7083   4.570   5.790   0.169 -1.1247 -2.0346  1.0039
   17CHTO   O17 7084   4.708   5.764   0.319 -0.5158 -0.3700 -0.3914
   17CHTO   C32 7085   4.618   5.727   0.426  0.5985  0.0523 -0.1709
   17CHTO   H60 7086   4.528   5.788   0.415  0.6473  0.3892  1.1337
   17CHTO   C36 7087   4.695   5.752   0.563  0.6533 -0.6659 -0.2018
   17CHTO   O25 7088   4.766   5.876   0.575  0.1909  1.1893  0.0738
   17CHTO   H40 7089   4.722   5.945   0.529  0.9267  0.8509 -1.1417
   17CHTO   O15 7090   4.772   5.770   0.087  0.2422 -0.0805  0.0675
   17CHTO   C19 7091   4.820   5.906   0.076 -0.1846 -0.0436 -0.5804
   17CHTO   H47 7092   4.874   5.904  -0.019  0.5758  0.1497 -0.1573
   17CHTO   C20 7093   4.703   6.018   0.057  0.3179  1.0188 -0.3035
   17CHTO   H48 7094   4.635   6.021   0.144  1.9489 -1.2803  1.1173
   17CHTO   O19 7095   4.634   5.972  -0.063  0.3631 -0.5666  0.8198
   17CHTO   H35 7096   4.569   6.039  -0.079 -0.2144 -1.1931  0.5309
   17CHTO   C21 7097   4.765   6.158   0.040  0.4542  0.3680 -0.2303
   17CHTO   H49 7098   4.813   6.166  -0.058 -0.3227  2.2777 -0.4916
   17CHTO    N4 7099   4.666   6.263   0.041 -1.1465  0.7575  0.5516
   17CHTO   H41 7100   4.652   6.303   0.140  2.0046 -1.0291  1.7746
   17CHTO   H42 7101   4.570   6.227   0.005 -0.4165  0.8735 -1.5615
   17CHTO   C22 7102   4.877   6.188   0.143  0.9940 -0.0769 -0.5623
   17CHTO   H50 7103   4.839   6.186   0.245 -0.8763 -0.3844 -1.2514
   17CHTO   O14 7104   4.978   6.090   0.140 -0.7412  0.4670  0.2749
   17CHTO   C23 7105   4.928   5.958   0.177  0.5052 -0.9166  0.0862
   17CHTO   H51 7106   4.892   5.953   0.280 -0.0792 -0.9391 -0.1182
   17CHTO   C34 7107   5.045   5.857   0.194 -0.2382  0.5011  0.2627
   17CHTO   O23 7108   5.008   5.731   0.250 -0.4731 -0.1423 -0.1051
   17CHTO   H38 7109   5.086   5.682   0.267 -0.4227 -1.5687 -3.8818
   17CHTO   O16 7110   4.951   6.306   0.110 -0.9555 -0.4706  0.3117
   17CHTO   C24 7111   4.975   6.403   0.226 -0.0901  0.0350  0.5687
   17CHTO   H52 7112   4.999   6.351   0.319  2.3419  2.1607  1.1755
   17CHTO   C26 7113   4.860   6.502   0.250  0.0146 -0.2445 -0.0290
   17CHTO   H54 7114   4.834   6.550   0.153 -1.4808 -0.3870  0.2905
   17CHTO   O20 7115   4.750   6.425   0.294 -0.5931 -0.4248 -0.2469
   17CHTO   H36 7116   4.679   6.487   0.294  0.7317  1.1259 -1.0843
   17CHTO   C30 7117   4.907   6.613   0.350 -0.6282  0.3129 -0.3620
   17CHTO   H58 7118   4.916   6.564   0.449 -1.6491 -0.4063 -0.6135
   17CHTO    N6 7119   4.807   6.717   0.370 -0.0949  1.0654  0.1031
   17CHTO   H45 7120   4.848   6.817   0.381  1.7958  0.1953  1.1071
   17CHTO   H46 7121   4.758   6.697   0.464 -1.0888  0.3665 -0.5528
   17CHTO   C33 7122   5.046   6.673   0.307  0.0783 -0.1387  0.4663
   17CHTO   H61 7123   5.037   6.718   0.207  1.1991 -2.2221 -0.6132
   17CHTO   O18 7124   5.139   6.566   0.296 -0.0539 -0.3487  0.1087
   17CHTO   C28 7125   5.108   6.475   0.191 -0.5591  0.3647 -0.2435
   17CHTO   H56 7126   5.093   6.531   0.099  0.6578 -1.1932 -1.4337
   17CHTO   C35 7127   5.224   6.383   0.145  0.5578  0.4140 -0.2992
   17CHTO   O24 7128   5.340   6.461   0.097  0.7318 -0.0869 -0.0281
   17CHTO   H39 7129   5.392   6.495   0.167 -0.6315 -1.4039  1.6755
   17CHTO    O9 7130   5.096   6.778   0.396  0.3185 -0.7293  0.1887
   17CHTO   C13 7131   5.191   6.892   0.343  0.0104  0.2232  0.4188
   17CHTO   H26 7132   5.237   6.844   0.254 -1.6225 -0.8069  0.1170
   17CHTO   C11 7133   5.301   6.942   0.448  0.0805  0.6567  0.3789
   17CHTO   H24 7134   5.360   6.855   0.480 -0.8093  0.2146  0.8694
   17CHTO    O8 7135   5.228   6.976   0.570  0.2244  0.5069  0.0344
   17CHTO    H3 7136   5.273   6.954   0.649  2.6900  0.9129 -1.1857
   17CHTO    C9 7137   5.393   7.052   0.383  0.1088  0.5793  0.0325
   17CHTO   H22 7138   5.422   6.996   0.292 -0.5585 -0.0047  0.1733
   17CHTO    N2 7139   5.524   7.078   0.456  0.0461  0.6816 -0.0388
   17CHTO   H10 7140   5.574   6.983   0.466 -1.0063  0.2424  1.1626
   17CHTO   H11 7141   5.493   7.117   0.552  1.4802 -0.1835  0.7840
   17CHTO    C7 7142   5.301   7.171   0.354  0.4583 -0.7264  0.2082
   17CHTO   H20 7143   5.369   7.243   0.304 -0.6786  1.5381  1.8385
   17CHTO    O4 7144   5.188   7.136   0.269  0.5594  0.6548 -0.1044
   17CHTO   C14 7145   5.107   7.018   0.293 -0.7307  0.5840 -0.9977
   17CHTO   H27 7146   5.061   6.996   0.194 -1.6573 -2.4978  0.0311
   17CHTO   C18 7147   4.994   7.041   0.386 -0.2555 -0.2024  0.1252
   17CHTO   O13 7148   4.901   7.137   0.334 -0.3026 -0.3223  0.1950
   17CHTO    H7 7149   4.829   7.136   0.394  0.2253  0.7131  0.8549
   17CHTO    O2 7150   5.248   7.252   0.492  0.0823  0.2104  0.2956
   17CHTO    C1 7151   5.183   7.380   0.493 -0.5932  0.2335 -0.1140
   17CHTO   H14 7152   5.106   7.374   0.413  0.0848  0.2010 -0.7652
   17CHTO    C2 7153   5.284   7.499   0.460 -0.1996 -0.1657 -0.8640
   17CHTO   H15 7154   5.376   7.475   0.515 -1.3905 -1.4109  0.6545
   17CHTO    O6 7155   5.301   7.506   0.316 -0.5818  0.3411 -0.1447
   17CHTO    H1 7156   5.243   7.443   0.278 -0.5741 -0.2756  0.8265
   17CHTO    C3 7157   5.226   7.645   0.510  0.7473 -0.0168  0.4912
   17CHTO   H16 7158   5.163   7.689   0.431 -0.2385  1.2802  1.9618
   17CHTO    N1 7159   5.348   7.739   0.518 -0.0078  0.0228 -0.1275
   17CHTO    H8 7160   5.339   7.828   0.457 -0.2699 -0.6834 -1.1415
   17CHTO    H9 7161   5.367   7.765   0.621 -2.1824 -1.4509  0.6786
   17CHTO    C4 7162   5.145   7.637   0.640  1.1923 -0.2241  0.8116
   17CHTO   H17 7163   5.213   7.626   0.724 -0.6624 -0.9261  2.2695
   17CHTO    O1 7164   5.048   7.527   0.637  0.1013 -0.1535  0.0711
   17CHTO    C5 7165   5.114   7.396   0.629 -0.2311 -0.9024  0.2334
   17CHTO   H18 7166   5.188   7.401   0.709 -1.4818  1.1285  1.3077
   17CHTO   C16 7167   5.011   7.292   0.679 -0.2632 -0.1370  0.2910
   17CHTO   O11 7168   4.967   7.334   0.810  0.0525 -0.2886  0.2779
   17CHTO    H5 7169   4.922   7.416   0.800 -0.0496 -0.3031  0.6073
   17CHTO    O3 7170   5.061   7.758   0.667 -0.8693 -0.0621 -0.5877
   17CHTO    C6 7171   5.039   7.813   0.807  0.3074  0.3859  0.2126
   17CHTO   H19 7172   4.950   7.877   0.813 -0.7158 -0.9837 -0.0219
   17CHTO    C8 7173   5.027   7.710   0.926 -0.3242  0.6370  0.3143
   17CHTO   H21 7174   5.116   7.647   0.924 -0.0620  0.9685  1.0839
   17CHTO    O7 7175   4.901   7.636   0.911 -0.0757 -0.0659  0.0437
   17CHTO    H2 7176   4.890   7.568   0.847  1.3821 -0.7032  0.4443
   17CHTO   C12 7177   5.027   7.782   1.063  0.5257 -0.3271 -0.0128
   17CHTO   H25 7178   4.928   7.831   1.075  0.0832 -1.8277  2.8852
   17CHTO    N3 7179   5.036   7.683   1.178  0.4845 -0.2524 -0.5769
   17CHTO   H12 7180   5.005   7.750   1.256 -4.3651  1.4885 -3.8302
   17CHTO   H13 7181   5.138   7.650   1.192  0.5212 -0.1643 -0.6433
   17CHTO   C15 7182   5.143   7.887   1.068  0.7828 -0.1852 -0.7811
   17CHTO   H28 7183   5.240   7.837   1.068  2.0555  2.2023  0.6314
   17CHTO   O10 7184   5.128   7.976   1.196 -0.0220  0.2342  0.0669
   17CHTO    H4 7185   5.213   8.014   1.212 -0.6209  1.3487  0.6701
   17CHTO    O5 7186   5.141   7.978   0.954  0.2375  0.1716  0.7857
   17CHTO   C10 7187   5.160   7.908   0.827 -0.0304  0.5824 -0.4996
   17CHTO   H23 7188   5.255   7.856   0.837 -0.6011 -0.5999 -1.1610
   17CHTO   C17 7189   5.168   8.009   0.711 -0.9129 -0.3287  0.2633
   17CHTO   O12 7190   5.300   8.060   0.718  0.2879  0.3322 -0.2228
   17CHTO    H6 7191   5.302   8.136   0.664 -1.8964  0.8627  0.3894
   18CHTO  H203 7192   6.403   8.049   1.413  0.4163 -0.8569  1.8455
   18CHTO   O82 7193   6.470   7.994   1.375  0.1631 -0.1444  0.3262
   18CHTO  C123 7194   6.438   7.958   1.238 -0.1837 -0.7107 -0.2057
   18CHTO  H227 7195   6.330   7.964   1.216  0.4136 -0.4326 -3.2039
   18CHTO   O77 7196   6.514   8.057   1.160  0.1537  0.4226 -0.3312
   18CHTO  C118 7197   6.496   8.055   1.017 -0.1214  0.0310  0.8669
   18CHTO  H222 7198   6.392   8.058   0.983 -0.2904  0.5084  1.4235
   18CHTO  C125 7199   6.577   8.183   0.962 -0.0436  0.2657  0.1320
   18CHTO   O84 7200   6.708   8.211   1.025 -0.3427 -0.6488 -0.5644
   18CHTO  H205 7201   6.750   8.293   1.006 -0.8249  0.1035  1.4949
   18CHTO  C114 7202   6.563   7.925   0.965  0.0857 -0.2139 -0.6823
   18CHTO  H218 7203   6.665   7.921   1.001 -0.2528  0.8937  0.4491
   18CHTO  C116 7204   6.482   7.809   1.035 -0.0237 -0.1753  0.1303
   18CHTO  H220 7205   6.379   7.812   0.993 -1.0069  2.6310  2.5978
   18CHTO   O79 7206   6.543   7.685   0.984 -0.0799 -0.3791  0.0719
   18CHTO  H201 7207   6.531   7.610   1.039  3.0793 -0.7793  0.2846
   18CHTO  C120 7208   6.483   7.813   1.191 -0.4183 -0.1311  0.1307
   18CHTO  H224 7209   6.588   7.802   1.226  0.4689  2.5327 -1.5702
   18CHTO   N21 7210   6.397   7.702   1.252  0.6255 -0.2177  0.1660
   18CHTO  H211 7211   6.453   7.609   1.247 -0.0923 -0.6435  0.0012
   18CHTO  H212 7212   6.376   7.714   1.357 -2.0248  2.7039 -0.6318
   18CHTO   O75 7213   6.545   7.920   0.825  0.1913  0.3313  0.4762
   18CHTO  C112 7214   6.682   7.924   0.737  0.2185 -0.2438  0.5185
   18CHTO  H216 7215   6.743   7.847   0.787  1.8533 -0.6315 -1.9796
   18CHTO   O73 7216   6.745   8.054   0.741 -0.1380 -0.3582  0.2064
   18CHTO  C113 7217   6.865   8.070   0.665  0.4963  0.2691 -0.1942
   18CHTO  H217 7218   6.944   8.003   0.702  1.0328  0.1652 -1.5026
   18CHTO  C124 7219   6.932   8.207   0.703 -0.3927  0.3162 -0.2310
   18CHTO   O83 7220   6.848   8.318   0.659 -0.0646 -0.3890 -0.2928
   18CHTO  H204 7221   6.838   8.318   0.566  1.7392 -0.3302 -0.4949
   18CHTO  C109 7222   6.827   8.051   0.522  0.2789  0.0074  0.3460
   18CHTO  H213 7223   6.742   8.118   0.501  1.3198  1.0675 -0.5790
   18CHTO  C110 7224   6.771   7.917   0.496  0.4211  0.8480  0.8796
   18CHTO  H214 7225   6.849   7.842   0.499 -0.4737 -0.2730 -1.7543
   18CHTO   O78 7226   6.722   7.913   0.356  0.3408  0.1705 -0.7424
   18CHTO  H200 7227   6.742   7.837   0.305 -1.0059 -1.5528  1.2057
   18CHTO  C111 7228   6.655   7.881   0.590 -0.3189  0.1030  0.2831
   18CHTO  H215 7229   6.570   7.944   0.559  0.8914  2.1269  1.0323
   18CHTO   N19 7230   6.611   7.740   0.595 -0.6049 -0.5328 -0.3621
   18CHTO  H207 7231   6.676   7.680   0.656 -1.5204 -0.6037  0.5412
   18CHTO  H208 7232   6.606   7.706   0.492 -2.2649  1.0028 -0.8205
   18CHTO   O74 7233   6.937   8.085   0.438  0.4048  0.3013  0.4277
   18CHTO  C115 7234   6.881   8.155   0.291 -0.0509  0.5840 -1.4968
   18CHTO  H219 7235   6.811   8.090   0.238 -0.3087  0.8169 -1.4420
   18CHTO   O76 7236   6.816   8.276   0.312  0.0257  0.2336 -0.6447
   18CHTO  C122 7237   6.748   8.343   0.201 -0.3969 -0.4054  0.0599
   18CHTO  H226 7238   6.738   8.445   0.238  0.4304 -0.0689 -0.6090
   18CHTO  C126 7239   6.602   8.295   0.168 -0.4424 -0.5928  0.6367
   18CHTO   O85 7240   6.594   8.157   0.156  0.3250 -0.5455  0.4548
   18CHTO  H206 7241   6.508   8.119   0.161 -0.1953  0.8899  3.7237
   18CHTO  C121 7242   6.844   8.353   0.070  0.0124 -0.1360 -0.5108
   18CHTO  H225 7243   6.779   8.368  -0.019 -1.7971 -2.4089  0.3680
   18CHTO   O81 7244   6.935   8.462   0.090  0.1284 -0.4072  0.2191
   18CHTO  H202 7245   6.938   8.502   0.005 -2.5159 -1.1828 -0.2807
   18CHTO  C119 7246   6.927   8.224   0.047 -0.8232 -0.1548 -0.4150
   18CHTO  H223 7247   6.861   8.147   0.009  3.4698 -2.7559 -2.9385
   18CHTO  C117 7248   6.997   8.170   0.182 -0.4928 -0.4519  0.5294
   18CHTO  H221 7249   7.071   8.234   0.231 -0.4984 -1.4000  1.8104
   18CHTO   N20 7250   7.067   8.038   0.163  0.4038 -0.0891  0.2702
   18CHTO  H209 7251   6.998   7.955   0.158  0.7531 -0.4669  1.4261
   18CHTO  H210 7252   7.141   8.053   0.086  0.5025 -0.7473  0.2312
   18CHTO   O80 7253   7.040   8.239  -0.090  0.1109 -0.2360  0.4198
   18CHTO  C103 7254   7.003   8.152  -0.236 -0.1608 -0.5031  0.0269
   18CHTO  H190 7255   7.075   8.180  -0.313 -0.8167 -1.0554 -0.8073
   18CHTO  C101 7256   6.989   7.997  -0.215 -0.2171  0.4545  0.1772
   18CHTO  H188 7257   6.932   7.972  -0.125  2.2862 -1.3861  1.3118
   18CHTO   O68 7258   7.135   7.941  -0.191 -0.3806  0.3222 -0.0718
   18CHTO  H168 7259   7.126   7.859  -0.147  1.0403  0.2843  0.1541
   18CHTO   C99 7260   6.910   7.927  -0.330 -0.4229  0.9658  0.0872
   18CHTO  H186 7261   6.971   7.944  -0.421 -0.0355 -1.1545 -0.0897
   18CHTO   N17 7262   6.904   7.776  -0.311  0.1703  0.3281  0.1649
   18CHTO  H174 7263   7.002   7.738  -0.282 -1.0253 -2.0592  1.2590
   18CHTO  H175 7264   6.878   7.745  -0.411  3.0797  1.5569 -1.0325
   18CHTO   C97 7265   6.776   8.000  -0.345 -0.0620 -0.5695  0.2360
   18CHTO  H184 7266   6.727   7.999  -0.246  1.4738  2.1680  1.0541
   18CHTO   O64 7267   6.809   8.135  -0.383  0.4428  0.5354  0.5631
   18CHTO  C104 7268   6.867   8.213  -0.282 -0.3075 -0.5512  0.2341
   18CHTO  H191 7269   6.800   8.224  -0.197  2.2696  1.1051  2.1310
   18CHTO  C108 7270   6.889   8.358  -0.336 -0.1380 -0.0692 -0.0518
   18CHTO   O71 7271   6.760   8.415  -0.387  0.3337 -0.1819 -0.6877
   18CHTO  H171 7272   6.792   8.497  -0.420 -0.5853  2.2226  3.9363
   18CHTO   O62 7273   6.677   7.958  -0.442  0.0650  0.1607 -0.5760
   18CHTO   C91 7274   6.537   7.944  -0.405  0.0878  0.3829  0.2955
   18CHTO  H178 7275   6.541   7.893  -0.308 -2.7970 -2.0651 -0.7783
   18CHTO   C92 7276   6.470   7.837  -0.498 -0.1176 -0.8048 -0.2596
   18CHTO  H179 7277   6.478   7.865  -0.604  0.3662  0.2336  0.0387
   18CHTO   O66 7278   6.545   7.712  -0.492 -0.1616 -0.1442 -0.0257
   18CHTO  H166 7279   6.553   7.677  -0.579 -0.1581  1.5755 -0.7471
   18CHTO   C93 7280   6.310   7.825  -0.469 -0.7503  0.0450  0.0807
   18CHTO  H180 7281   6.303   7.799  -0.362 -0.7610 -1.7163 -0.3373
   18CHTO   N16 7282   6.242   7.718  -0.542  0.5184 -0.0039 -0.5818
   18CHTO  H172 7283   6.150   7.694  -0.492 -1.1268 -0.2993 -3.6682
   18CHTO  H173 7284   6.218   7.749  -0.642  0.8482  1.1066 -0.3266
   18CHTO   C94 7285   6.249   7.964  -0.487  0.4034 -0.7405  0.2245
   18CHTO  H181 7286   6.252   7.996  -0.591 -0.7037 -0.1446  0.3699
   18CHTO   O61 7287   6.310   8.057  -0.400 -0.0694  0.1589  0.1504
   18CHTO   C95 7288   6.452   8.078  -0.402  0.6535  0.3533  0.3874
   18CHTO  H182 7289   6.473   8.135  -0.493  1.7092 -0.5306  0.0727
   18CHTO  C106 7290   6.499   8.167  -0.278 -0.3522 -0.4401  0.1403
   18CHTO   O69 7291   6.461   8.116  -0.152  0.3145  0.2835  0.1375
   18CHTO  H169 7292   6.538   8.070  -0.124  0.6259 -0.5587 -1.9928
   18CHTO   O63 7293   6.092   7.973  -0.456 -0.1882  0.0682 -0.4521
   18CHTO   C96 7294   6.039   8.142  -0.474  0.3804  0.0194  0.1220
   18CHTO  H183 7295   6.119   8.209  -0.505  1.2359 -0.9117  0.2675
   18CHTO   C98 7296   5.986   8.196  -0.340 -0.3374  0.1461 -0.2325
   18CHTO  H185 7297   5.894   8.142  -0.315 -0.7600  0.7469 -0.4966
   18CHTO   O67 7298   6.080   8.171  -0.231 -0.2815  0.2379  0.3109
   18CHTO  H167 7299   6.155   8.222  -0.254 -1.7128  2.1130 -0.3143
   18CHTO  C102 7300   5.944   8.351  -0.354 -0.1481 -0.3458  0.3648
   18CHTO  H189 7301   6.037   8.406  -0.375  0.5280 -1.7913 -0.5604
   18CHTO   N18 7302   5.893   8.410  -0.228  0.6487  0.0668 -0.9370
   18CHTO  H176 7303   5.891   8.332  -0.153  0.3130 -1.1549 -2.2073
   18CHTO  H177 7304   5.953   8.496  -0.200  0.0461 -0.2810  1.5780
   18CHTO  C105 7305   5.847   8.367  -0.471  0.0562 -0.9500 -0.2488
   18CHTO  H192 7306   5.750   8.332  -0.436 -0.6891  0.0357 -1.2673
   18CHTO   O65 7307   5.887   8.290  -0.588 -0.0795  0.7370 -0.0976
   18CHTO  C100 7308   5.927   8.152  -0.580 -0.6330  0.1481  0.1355
   18CHTO  H187 7309   5.852   8.078  -0.549 -0.7128  0.7581  1.4568
   18CHTO  C107 7310   5.970   8.096  -0.715 -0.3437 -0.2456 -0.0134
   18CHTO   O70 7311   5.850   8.080  -0.795  0.5055  0.3569 -0.0817
   18CHTO  H170 7312   5.790   8.142  -0.759 -2.3595 -2.2998 -0.0872
   18CHTO   O57 7313   5.845   8.529  -0.496  0.3496  0.7534  0.3985
   18CHTO   C85 7314   5.747   8.617  -0.554  0.3964  0.0299 -0.5094
   18CHTO  H157 7315   5.803   8.711  -0.569 -0.6262  0.7981  0.4308
   18CHTO   C83 7316   5.631   8.644  -0.447  0.2081  0.0670 -0.1691
   18CHTO  H155 7317   5.672   8.710  -0.370 -0.4773 -0.7564  0.9302
   18CHTO   O56 7318   5.588   8.515  -0.389 -0.1863  0.3637 -0.0706
   18CHTO  H135 7319   5.639   8.505  -0.311 -0.3232  1.3999  0.1601
   18CHTO   C81 7320   5.515   8.718  -0.515 -1.1963 -0.6604  0.0673
   18CHTO  H153 7321   5.561   8.811  -0.549 -0.1429 -1.3398 -0.4027
   18CHTO   N14 7322   5.412   8.765  -0.419  0.2414 -0.0407  0.1971
   18CHTO  H141 7323   5.348   8.684  -0.392  0.1986  0.1298  0.5982
   18CHTO  H142 7324   5.457   8.811  -0.333  0.3491 -0.3588  0.3123
   18CHTO   C79 7325   5.458   8.635  -0.635 -0.3864  0.0700  1.0795
   18CHTO  H151 7326   5.380   8.693  -0.684  0.5785 -2.3149 -3.5070
   18CHTO   O52 7327   5.563   8.620  -0.742 -0.2322  0.1985 -0.7482
   18CHTO   C86 7328   5.685   8.561  -0.690 -0.1159  0.3661  0.1995
   18CHTO  H158 7329   5.657   8.453  -0.684 -1.6821  0.7417 -0.1253
   18CHTO   C90 7330   5.791   8.574  -0.802 -0.2188  0.5198 -0.3053
   18CHTO   O60 7331   5.801   8.708  -0.850  0.2058  0.7283  0.1558
   18CHTO  H138 7332   5.861   8.760  -0.799  1.6189  0.0145 -0.7417
   18CHTO   O50 7333   5.412   8.509  -0.590 -0.1312 -0.1262  0.0527
   18CHTO   C73 7334   5.330   8.394  -0.618 -0.1311 -0.6713  0.4466
   18CHTO  H145 7335   5.352   8.361  -0.721  3.4649  0.7371  0.7079
   18CHTO   C74 7336   5.175   8.429  -0.597 -0.0906 -0.2736  0.2500
   18CHTO  H146 7337   5.160   8.515  -0.664  1.1880 -0.0244  0.2604
   18CHTO   O54 7338   5.091   8.313  -0.633  0.2786 -0.0764 -0.2038
   18CHTO  H133 7339   5.107   8.233  -0.587 -0.4784 -0.3114 -0.3536
   18CHTO   C75 7340   5.169   8.471  -0.444  0.5679  0.1599 -0.0951
   18CHTO  H147 7341   5.221   8.568  -0.444  0.3885  0.2654  1.1315
   18CHTO   N13 7342   5.034   8.514  -0.400  0.1342 -0.0553  0.3896
   18CHTO  H139 7343   5.013   8.469  -0.304 -1.3340  0.2401  0.2204
   18CHTO  H140 7344   4.957   8.482  -0.469 -0.8409  0.7202  1.0886
   18CHTO   C76 7345   5.235   8.365  -0.348  0.1725 -0.2004 -0.7006
   18CHTO  H148 7346   5.175   8.278  -0.322  3.6278 -2.4551 -0.0482
   18CHTO   O49 7347   5.362   8.314  -0.391 -0.3181 -0.0381  0.0787
   18CHTO   C77 7348   5.371   8.278  -0.529 -0.3542  0.6081  0.3727
   18CHTO  H149 7349   5.310   8.191  -0.551 -0.0128  0.5185 -0.2121
   18CHTO   C88 7350   5.509   8.229  -0.568  0.0101 -0.0006 -0.3184
   18CHTO   O58 7351   5.492   8.150  -0.695 -0.0742  0.4807 -0.1097
   18CHTO  H136 7352   5.414   8.098  -0.691  1.0017 -1.1311  0.8411
   18CHTO   O51 7353   5.268   8.459  -0.226  0.5333 -0.0753 -0.1324
   18CHTO   C78 7354   5.271   8.395  -0.093  0.2647 -0.1239 -0.2299
   18CHTO  H150 7355   5.254   8.286  -0.105  1.1523 -0.1038 -1.8138
   18CHTO   C80 7356   5.172   8.469  -0.003  0.1495  0.5355  0.4624
   18CHTO  H152 7357   5.203   8.576   0.000  2.8567 -0.1217 -1.6602
   18CHTO   O55 7358   5.038   8.458  -0.060 -0.7042  0.1863  0.2833
   18CHTO  H134 7359   4.977   8.516  -0.018 -0.1784  0.7755  0.2341
   18CHTO   C84 7360   5.180   8.425   0.150  0.5106 -0.1963  0.1892
   18CHTO  H156 7361   5.145   8.321   0.147 -0.8571  0.2453  0.4598
   18CHTO   N15 7362   5.089   8.503   0.239 -0.2417 -0.7255 -0.5006
   18CHTO  H143 7363   4.983   8.503   0.223 -0.1756  1.6841 -1.2077
   18CHTO  H144 7364   5.107   8.495   0.344  3.0599  1.8532 -0.7833
   18CHTO   C87 7365   5.330   8.424   0.195 -0.2926  0.5620  0.2442
   18CHTO  H159 7366   5.358   8.530   0.190  1.0755  0.2603  1.0460
   18CHTO   O53 7367   5.402   8.342   0.101 -0.2287  0.8286  0.1948
   18CHTO   C82 7368   5.410   8.403  -0.030 -0.2451  0.3762 -0.3423
   18CHTO  H154 7369   5.434   8.509  -0.015 -0.0244  0.4004 -0.8679
   18CHTO   C89 7370   5.527   8.348  -0.114  0.0696 -0.2419  0.9585
   18CHTO   O59 7371   5.533   8.208  -0.114 -0.5077 -0.2891  0.3010
   18CHTO  H137 7372   5.595   8.166  -0.170 -1.6082  0.9666 -1.9111
   18CHTO   O45 7373   5.359   8.375   0.344  0.2326 -0.1060  0.3325
   18CHTO   C67 7374   5.491   8.420   0.387  0.2021  1.1096  0.2192
   18CHTO  H124 7375   5.559   8.426   0.303  0.3790 -0.4638  0.2490
   18CHTO   C65 7376   5.493   8.566   0.449  0.6753  0.8182  0.2111
   18CHTO  H122 7377   5.390   8.587   0.478  0.3585  2.8632 -2.2052
   18CHTO   O44 7378   5.519   8.648   0.331  0.1497 -0.2238  0.5039
   18CHTO  H102 7379   5.604   8.631   0.297 -0.9642 -1.5219 -1.8031
   18CHTO   C63 7380   5.607   8.585   0.565 -0.0633  1.0426  0.4562
   18CHTO  H120 7381   5.574   8.547   0.661 -0.2007  0.5989  0.2336
   18CHTO   N11 7382   5.632   8.723   0.610  0.1741  0.5206 -0.2890
   18CHTO  H108 7383   5.706   8.763   0.544  1.3512 -2.1025 -0.6546
   18CHTO  H109 7384   5.538   8.771   0.630  0.7250  0.7640  1.8815
   18CHTO   C61 7385   5.737   8.495   0.533  0.0920  0.1821  0.2312
   18CHTO  H118 7386   5.802   8.506   0.621 -0.5027  1.6077  0.4988
   18CHTO   O40 7387   5.700   8.352   0.523  0.3429 -0.4364 -0.0428
   18CHTO   C68 7388   5.557   8.317   0.496  0.1679  0.0968  0.0501
   18CHTO  H125 7389   5.504   8.318   0.593  0.0377 -2.8998  0.0365
   18CHTO   C72 7390   5.549   8.182   0.441 -0.3009  0.0329  0.3657
   18CHTO   O48 7391   5.559   8.091   0.552 -0.0178 -0.3051  0.4409
   18CHTO  H105 7392   5.478   8.067   0.593  0.4013 -0.5672  1.1418
   18CHTO   O38 7393   5.807   8.532   0.411 -0.4275  0.5994  0.4102
   18CHTO   C55 7394   5.946   8.491   0.397 -0.4459  0.0157 -0.1152
   18CHTO  H112 7395   5.968   8.400   0.454  0.0528  0.2822  0.1257
   18CHTO   C56 7396   6.055   8.609   0.428 -0.2101 -0.6947  0.3652
   18CHTO  H113 7397   6.053   8.687   0.350 -0.5169 -0.2174  0.8435
   18CHTO   O42 7398   6.017   8.678   0.547 -0.4251 -0.0703 -0.1673
   18CHTO  H100 7399   6.081   8.745   0.562 -0.2931 -0.3859  0.6560
   18CHTO   C57 7400   6.206   8.560   0.429  0.3188 -0.3058 -0.7615
   18CHTO  H114 7401   6.208   8.499   0.518  2.2137  2.0892  0.9111
   18CHTO   N10 7402   6.310   8.664   0.443 -0.3486 -0.1537 -0.3164
   18CHTO  H106 7403   6.393   8.620   0.497 -0.6927 -0.9563 -0.4353
   18CHTO  H107 7404   6.279   8.753   0.494  0.2401 -0.3469  0.3916
   18CHTO   C58 7405   6.237   8.478   0.303  0.0745  0.8905  0.3219
   18CHTO  H115 7406   6.279   8.547   0.227  1.6614 -0.3249  0.0608
   18CHTO   O37 7407   6.129   8.399   0.251  0.2647 -0.2932 -0.1712
   18CHTO   C59 7408   5.987   8.444   0.253 -0.8422  0.0920  0.0736
   18CHTO  H116 7409   5.982   8.531   0.187 -1.1701 -2.0121 -2.7695
   18CHTO   C70 7410   5.887   8.329   0.217 -0.1404  0.0101  0.4182
   18CHTO   O46 7411   5.907   8.284   0.086  0.0313  1.1386  0.0343
   18CHTO  H103 7412   5.860   8.205   0.072 -0.0352  1.2508 -0.3938
   18CHTO   O39 7413   6.342   8.362   0.334  0.4360  0.0904 -0.3607
   18CHTO   C60 7414   6.302   8.256   0.433 -0.1528 -0.0006  0.3803
   18CHTO  H117 7415   6.224   8.291   0.500  0.2610  0.1598  0.7846
   18CHTO   C62 7416   6.243   8.130   0.369  0.1152  0.0535  0.4487
   18CHTO  H119 7417   6.165   8.169   0.300 -0.6495 -0.7839  0.8151
   18CHTO   O43 7418   6.339   8.051   0.290 -0.6044 -0.3212  0.0520
   18CHTO  H101 7419   6.414   8.095   0.256 -1.5328  1.7809  0.6171
   18CHTO   C66 7420   6.168   8.035   0.487 -0.2333  0.0835 -0.0052
   18CHTO  H123 7421   6.095   8.092   0.545  0.3358 -0.0522  0.8437
   18CHTO   N12 7422   6.095   7.923   0.431 -0.0506  0.1217 -0.3567
   18CHTO  H110 7423   6.167   7.866   0.374  1.3452 -0.7020  2.1254
   18CHTO  H111 7424   6.027   7.961   0.357 -0.3399  2.9913  1.2696
   18CHTO   C69 7425   6.274   7.997   0.597  0.0969 -0.0699  0.1886
   18CHTO  H126 7426   6.342   7.921   0.554  2.3673  0.6982  2.3021
   18CHTO   O41 7427   6.346   8.124   0.653  0.3708 -0.6076 -0.0031
   18CHTO   C64 7428   6.420   8.204   0.525 -0.0024  0.1084 -0.0522
   18CHTO  H121 7429   6.480   8.132   0.466 -1.9393 -1.4245 -0.1626
   18CHTO   C71 7430   6.506   8.322   0.581  0.0088  0.0985 -0.7502
   18CHTO   O47 7431   6.568   8.398   0.487  0.1481 -0.3516 -0.0346
   18CHTO  H104 7432   6.650   8.361   0.463  0.5044  1.5047 -1.8091
   18CHTO   O34 7433   6.187   7.928   0.737 -0.1252  0.3417  0.1790
   18CHTO   C49 7434   6.135   7.955   0.860  0.1651 -0.3920 -0.4025
   18CHTO   H91 7435   6.210   7.927   0.935  0.7827  0.9702 -0.4836
   18CHTO   C47 7436   6.010   7.876   0.892  0.5300 -0.6419 -0.3938
   18CHTO   H89 7437   5.974   7.895   0.995  0.6035 -2.2769 -0.0507
   18CHTO   O33 7438   6.045   7.738   0.885 -0.5572 -0.9553 -0.2079
   18CHTO   H70 7439   5.987   7.696   0.824 -0.6571 -1.3657  0.1725
   18CHTO   C45 7440   5.893   7.925   0.785  0.1466 -0.0087 -0.3408
   18CHTO   H87 7441   5.932   7.921   0.682  2.2510 -2.6264  0.5129
   18CHTO    N8 7442   5.770   7.847   0.798 -0.2742 -0.4610 -0.0611
   18CHTO   H75 7443   5.715   7.882   0.884  1.1852  0.1290  0.6665
   18CHTO   H76 7444   5.791   7.741   0.806  0.3856 -0.2872  0.5323
   18CHTO   C43 7445   5.876   8.083   0.812 -0.9009  0.3040  0.2433
   18CHTO   H85 7446   5.803   8.120   0.741 -3.1146  0.4980  2.5517
   18CHTO   O29 7447   6.000   8.159   0.807  0.0179  0.5354 -0.0109
   18CHTO   C50 7448   6.111   8.111   0.875  0.6037 -0.0307  0.7024
   18CHTO   H92 7449   6.191   8.163   0.821 -0.0224  0.1068 -0.1067
   18CHTO   C54 7450   6.128   8.156   1.019 -0.3249 -0.1740  0.4915
   18CHTO   O36 7451   6.036   8.111   1.117  0.5004 -0.6172  0.0977
   18CHTO   H72 7452   5.956   8.142   1.078  2.3207  1.9864 -1.7620
   18CHTO   O27 7453   5.814   8.106   0.941 -0.2220  0.1205 -0.3015
   18CHTO   C37 7454   5.736   8.207   1.003 -0.6902  0.1150  0.2106
   18CHTO   H79 7455   5.761   8.203   1.110 -0.2556  0.0503  0.1070
   18CHTO   C38 7456   5.769   8.357   0.963 -0.0515  1.4423 -0.8046
   18CHTO   H80 7457   5.754   8.367   0.855 -0.2425 -1.2951 -1.0614
   18CHTO   O31 7458   5.904   8.387   0.992  0.0058  0.3208 -0.0626
   18CHTO   H68 7459   5.915   8.420   1.080  1.3340 -1.7940  0.6028
   18CHTO   C39 7460   5.657   8.451   1.027 -0.3915 -0.3206 -0.8623
   18CHTO   H81 7461   5.661   8.459   1.136 -1.2950  0.5604 -0.8878
   18CHTO    N7 7462   5.677   8.591   0.984 -0.2805  0.3023  0.1422
   18CHTO   H73 7463   5.693   8.580   0.878  0.3251  2.4032 -0.0056
   18CHTO   H74 7464   5.767   8.636   1.023  0.9387  0.4603 -2.7517
   18CHTO   C40 7465   5.517   8.398   0.998 -0.0914 -0.3068 -0.4939
   18CHTO   H82 7466   5.505   8.399   0.890 -0.5518  1.7565 -0.4409
   18CHTO   O26 7467   5.504   8.267   1.055 -0.6063  0.0500 -0.2433
   18CHTO   C41 7468   5.585   8.171   0.976  0.3682  0.8237  0.2326
   18CHTO   H83 7469   5.565   8.163   0.868 -4.2740  1.3344  0.9500
   18CHTO   C52 7470   5.547   8.028   1.035  0.3247 -0.9366  0.5979
   18CHTO   O35 7471   5.414   8.018   1.040 -0.0985  0.3383  0.5980
   18CHTO   H71 7472   5.381   7.965   0.970  2.1633  0.1793 -0.4140
   18CHTO   O28 7473   5.412   8.486   1.051  0.6640 -0.1865 -0.0737
   18CHTO   C42 7474   5.271   8.446   1.047  0.2103 -0.4414  0.1226
   18CHTO   H84 7475   5.217   8.539   1.062  0.5368 -0.5244  1.9220
   18CHTO   C44 7476   5.219   8.358   1.163 -0.0513  0.5650 -0.5829
   18CHTO   H86 7477   5.260   8.257   1.157 -0.2027  0.4338  0.5032
   18CHTO   O32 7478   5.274   8.419   1.283 -0.1937  0.0976 -0.0384
   18CHTO   H69 7479   5.241   8.387   1.365 -1.3578 -1.7092 -1.1613
   18CHTO   C48 7480   5.060   8.356   1.159  0.1356 -0.2547  0.0070
   18CHTO   H90 7481   5.028   8.460   1.170  0.4622 -0.2112  0.5920
   18CHTO    N9 7482   4.997   8.275   1.267 -1.3843  0.0109 -0.8985
   18CHTO   H77 7483   4.930   8.335   1.328 -0.0778 -0.0177  0.5907
   18CHTO   H78 7484   4.942   8.199   1.214 -0.7573 -0.6840 -0.5545
   18CHTO   C51 7485   5.011   8.323   1.014 -0.1583  0.3795 -0.4390
   18CHTO   H93 7486   5.029   8.216   1.006 -0.4397  0.4191 -1.6087
   18CHTO   O30 7487   5.083   8.397   0.917  0.8302  0.0473  0.4507
   18CHTO   C46 7488   5.225   8.384   0.906 -0.4097  0.3224 -0.7447
   18CHTO   H88 7489   5.261   8.282   0.893 -1.5646 -0.3607  1.2065
   18CHTO   C53 7490   5.265   8.466   0.781  0.5759  0.2561  0.5536
   18CHTO   O72 7491   5.233   8.384   0.664  0.7796 -0.0482 -0.1585
   18CHTO  H199 7492   5.277   8.421   0.590  2.8910 -0.6943  0.7497
   18CHTO   O22 7493   4.871   8.343   0.992  0.4949  0.0695 -0.2920
   18CHTO   C31 7494   4.797   8.329   0.868 -0.9595  0.0797 -0.2830
   18CHTO   H59 7495   4.690   8.342   0.895 -1.0182  1.0274 -0.9809
   18CHTO   C29 7496   4.823   8.434   0.762  0.0981  0.0094  0.3789
   18CHTO   H57 7497   4.924   8.417   0.722 -0.1809  0.5477 -0.6008
   18CHTO   O21 7498   4.822   8.559   0.832  0.1352 -0.1256 -0.1164
   18CHTO   H37 7499   4.857   8.630   0.782  0.8974 -0.3724  0.0591
   18CHTO   C27 7500   4.720   8.421   0.645  0.4227  0.3104 -0.6437
   18CHTO   H55 7501   4.619   8.424   0.688  0.2810 -0.7184 -0.8951
   18CHTO    N5 7502   4.729   8.528   0.543  0.1820 -1.1306 -0.0211
   18CHTO   H43 7503   4.816   8.504   0.483  1.2827 -0.2465  1.1900
   18CHTO   H44 7504   4.729   8.622   0.595 -0.6111 -1.2688  0.2440
   18CHTO   C25 7505   4.745   8.286   0.575  0.0158  0.4746 -0.0595
   18CHTO   H53 7506   4.849   8.290   0.540  0.4045 -3.1976  0.4467
   18CHTO   O17 7507   4.737   8.179   0.672 -0.1345 -0.2897 -0.3656
   18CHTO   C32 7508   4.808   8.192   0.802 -0.1327 -0.2641 -0.3918
   18CHTO   H60 7509   4.912   8.163   0.790  0.4223  1.8016 -0.7418
   18CHTO   C36 7510   4.741   8.082   0.886  0.4892 -0.6124 -0.0980
   18CHTO   O25 7511   4.795   8.067   1.017 -0.1493 -0.3715 -0.1391
   18CHTO   H40 7512   4.734   8.016   1.067  2.1296 -0.4589  2.7371
   18CHTO   O15 7513   4.647   8.257   0.435 -0.2624 -0.0589 -0.0659
   18CHTO   C19 7514   4.688   8.176   0.320  0.1532 -0.8621  0.2909
   18CHTO   H47 7515   4.600   8.113   0.301  0.2921 -1.1915  0.7416
   18CHTO   C20 7516   4.718   8.270   0.187  0.0818  0.0928 -1.3671
   18CHTO   H48 7517   4.796   8.345   0.204  0.5865 -0.4920 -1.0919
   18CHTO   O19 7518   4.596   8.332   0.157 -0.0051  0.0710 -0.0903
   18CHTO   H35 7519   4.560   8.395   0.216 -1.3140 -1.2610  0.5677
   18CHTO   C21 7520   4.767   8.179   0.068  0.4549  0.3893 -0.5397
   18CHTO   H49 7521   4.690   8.106   0.044 -0.0218  0.4196  0.8707
   18CHTO    N4 7522   4.787   8.260  -0.054 -0.2071 -0.1326  0.3801
   18CHTO   H41 7523   4.725   8.222  -0.135  1.4184 -1.2582 -0.3515
   18CHTO   H42 7524   4.888   8.269  -0.090 -0.0868 -2.6557 -0.0245
   18CHTO   C22 7525   4.890   8.102   0.111 -0.2319  0.3464  0.1579
   18CHTO   H50 7526   4.960   8.180   0.141 -0.8174  0.5791  0.9170
   18CHTO   O14 7527   4.858   8.022   0.219  0.1671 -0.0803  0.0302
   18CHTO   C23 7528   4.816   8.088   0.343 -0.3846 -0.1045 -0.1539
   18CHTO   H51 7529   4.896   8.145   0.392 -1.1143  0.3339  0.5442
   18CHTO   C34 7530   4.786   7.977   0.447  0.2782  0.0852 -0.4397
   18CHTO   O23 7531   4.907   7.916   0.498 -0.2290  0.2988  0.1965
   18CHTO   H38 7532   4.966   7.982   0.527 -1.8422  1.1962  1.5155
   18CHTO   O16 7533   4.950   8.015   0.008 -0.1845 -0.0471  0.3286
   18CHTO   C24 7534   5.095   8.047  -0.039  0.4985  0.1900  0.3833
   18CHTO   H52 7535   5.118   8.153  -0.034  2.6091  0.0465 -4.0944
   18CHTO   C26 7536   5.096   8.013  -0.191  0.4660  0.3752  0.5812
   18CHTO   H54 7537   5.044   7.915  -0.203  3.3591 -1.0102 -1.1812
   18CHTO   O20 7538   5.012   8.107  -0.261  0.7387  0.1170 -0.3039
   18CHTO   H36 7539   4.965   8.051  -0.320 -0.5964 -0.4731  1.2792
   18CHTO   C30 7540   5.240   8.009  -0.254  0.6245 -0.4960 -1.1282
   18CHTO   H58 7541   5.285   8.109  -0.264 -3.6930  2.2791  4.1023
   18CHTO    N6 7542   5.239   7.935  -0.384 -0.5896  0.1515  0.1646
   18CHTO   H45 7543   5.169   7.977  -0.455 -0.2590 -1.8825 -1.4250
   18CHTO   H46 7544   5.209   7.833  -0.364  2.9029 -1.4337 -2.1501
   18CHTO   C33 7545   5.342   7.933  -0.167  0.1626  0.1346 -0.4435
   18CHTO   H61 7546   5.310   7.829  -0.152  0.5242  0.2955  1.5495
   18CHTO   O18 7547   5.333   8.004  -0.043  0.2157  0.3222 -0.0897
   18CHTO   C28 7548   5.215   7.971   0.032 -0.9261 -0.2119 -0.4103
   18CHTO   H56 7549   5.200   7.864   0.020 -0.3502 -0.2090 -1.1907
   18CHTO   C35 7550   5.228   8.010   0.182 -0.4692 -0.1890  0.8996
   18CHTO   O24 7551   5.353   7.962   0.239  0.1045  0.5151 -0.2338
   18CHTO   H39 7552   5.361   7.986   0.329 -1.8690  2.0296 -0.4425
   18CHTO    O9 7553   5.477   7.925  -0.210 -0.8225  0.0304 -0.1019
   18CHTO   C13 7554   5.566   7.827  -0.108 -0.0819  0.2812 -0.2577
   18CHTO   H26 7555   5.503   7.768  -0.038  0.9023  2.0414  2.1723
   18CHTO   C11 7556   5.658   7.932  -0.029 -0.4855 -0.0919  0.0164
   18CHTO   H24 7557   5.595   8.002   0.028  0.3754  1.1296 -0.4883
   18CHTO    O8 7558   5.748   8.016  -0.105  0.1231 -0.0905 -0.4162
   18CHTO    H3 7559   5.719   8.044  -0.190  1.1070 -0.5854 -0.9273
   18CHTO    C9 7560   5.735   7.836   0.070  0.4440 -0.1608  0.0644
   18CHTO   H22 7561   5.657   7.778   0.120 -1.1185  0.4549 -1.6364
   18CHTO    N2 7562   5.806   7.906   0.181  0.2306  0.3218  0.0282
   18CHTO   H10 7563   5.786   7.857   0.276 -0.0979  1.3434  0.4921
   18CHTO   H11 7564   5.778   8.010   0.188  0.1208  0.5195 -2.9119
   18CHTO    C7 7565   5.837   7.745  -0.014 -0.0646  0.1842 -0.3245
   18CHTO   H20 7566   5.890   7.672   0.051  0.3844  0.5490 -0.2713
   18CHTO    O4 7567   5.766   7.665  -0.107 -0.0360 -0.0598 -0.5648
   18CHTO   C14 7568   5.661   7.721  -0.184  0.0319 -0.2858  0.6325
   18CHTO   H27 7569   5.597   7.633  -0.205 -1.5248  0.9509  0.1051
   18CHTO   C18 7570   5.706   7.772  -0.324 -0.3194  0.0076 -0.0104
   18CHTO   O13 7571   5.753   7.673  -0.403 -0.3411 -0.1989  0.1035
   18CHTO    H7 7572   5.742   7.692  -0.494 -1.4394 -0.5765  0.1509
   18CHTO    O2 7573   5.944   7.811  -0.087  0.2641  0.3390  0.5201
   18CHTO    C1 7574   6.070   7.749  -0.130 -0.4846 -0.5916 -0.1489
   18CHTO   H14 7575   6.107   7.795  -0.224  0.3290  0.2864  0.5975
   18CHTO    C2 7576   6.067   7.594  -0.156 -0.4225 -0.0168  0.2748
   18CHTO   H15 7577   6.018   7.549  -0.068 -0.8329  0.0734  0.0925
   18CHTO    O6 7578   5.990   7.579  -0.276 -0.3877  0.3873  0.3210
   18CHTO    H1 7579   5.906   7.544  -0.256 -0.5899  1.0996  0.7335
   18CHTO    C3 7580   6.217   7.535  -0.166 -1.0753 -0.0114  0.3880
   18CHTO   H16 7581   6.271   7.574  -0.253  1.8738 -0.0636  2.1382
   18CHTO    N1 7582   6.215   7.383  -0.177 -0.3218  0.2465  0.3586
   18CHTO    H8 7583   6.301   7.333  -0.134 -1.8680 -0.5744  2.6012
   18CHTO    H9 7584   6.193   7.347  -0.276  2.4725  0.3704 -0.3569
   18CHTO    C4 7585   6.297   7.583  -0.038  0.4551  0.3919 -0.5297
   18CHTO   H17 7586   6.251   7.538   0.050 -0.1629  0.9479 -0.5552
   18CHTO    O1 7587   6.288   7.727  -0.028 -0.5328 -0.0784 -0.0823
   18CHTO    C5 7588   6.164   7.786  -0.017 -0.1704  0.0486  0.7385
   18CHTO   H18 7589   6.122   7.749   0.077  1.0780  1.9407  2.0940
   18CHTO   C16 7590   6.191   7.938  -0.004 -0.1186 -0.0416  0.6071
   18CHTO   O11 7591   6.083   8.026   0.030  0.4842  0.1897 -0.5909
   18CHTO    H5 7592   6.118   8.089   0.090 -0.0549 -1.9879  2.1483
   18CHTO    O3 7593   6.441   7.556  -0.047  0.0586 -0.4868  0.1395
   18CHTO    C6 7594   6.525   7.581   0.072  0.3736  0.1448  0.0069
   18CHTO   H19 7595   6.470   7.624   0.155  1.0326 -2.6110  1.9562
   18CHTO    C8 7596   6.565   7.445   0.133 -0.4959 -0.3244  0.0188
   18CHTO   H21 7597   6.627   7.392   0.061  1.5761  2.3014 -0.2058
   18CHTO    O7 7598   6.446   7.377   0.154 -0.6218 -0.1415  0.3752
   18CHTO    H2 7599   6.445   7.305   0.093  1.8244  1.1065 -1.1980
   18CHTO   C12 7600   6.657   7.458   0.264 -0.3245 -0.0095  0.7337
   18CHTO   H25 7601   6.595   7.505   0.343 -1.0389 -0.8270  0.6673
   18CHTO    N3 7602   6.712   7.322   0.304 -0.2415 -0.6415  0.3807
   18CHTO   H12 7603   6.809   7.338   0.349 -1.7834  3.3744  2.5461
   18CHTO   H13 7604   6.645   7.288   0.382 -0.6539 -0.6835  0.0148
   18CHTO   C15 7605   6.765   7.566   0.233 -0.3353  0.2551 -0.0380
   18CHTO   H28 7606   6.837   7.526   0.161 -1.6316 -0.9728 -0.6808
   18CHTO   O10 7607   6.826   7.611   0.365 -0.3553  0.2439 -0.2152
   18CHTO    H4 7608   6.850   7.538   0.420  0.2296  0.0694 -0.6875
   18CHTO    O5 7609   6.707   7.689   0.178 -0.0414 -0.1077  0.3330
   18CHTO   C10 7610   6.650   7.666   0.054  0.0062  0.0513  0.4303
   18CHTO   H23 7611   6.723   7.624  -0.015 -0.0507  0.8282 -0.1111
   18CHTO   C17 7612   6.619   7.793  -0.024 -0.0016 -0.1966 -0.0181
   18CHTO   O12 7613   6.550   7.902   0.054 -0.2929 -0.9356 -0.5410
   18CHTO    H6 7614   6.492   7.964   0.014  1.2980  2.0151  1.4748
   19CHTO  H203 7615   5.020   9.656   1.893  0.1742 -0.8767 -2.4434
   19CHTO   O82 7616   5.018   9.572   1.935 -0.0967 -0.1454 -0.9523
   19CHTO  C123 7617   4.986   9.460   1.850 -0.0582  0.0170 -0.1611
   19CHTO  H227 7618   4.903   9.488   1.784  1.0089  3.3751 -0.1523
   19CHTO   O77 7619   5.105   9.438   1.772  0.0544 -0.0270 -0.2320
   19CHTO  C118 7620   5.096   9.324   1.687 -0.1477  0.3960 -0.0500
   19CHTO  H222 7621   5.014   9.331   1.614 -0.4865 -0.1139  0.2793
   19CHTO  C125 7622   5.233   9.308   1.617  0.3105  0.7285 -0.4134
   19CHTO   O84 7623   5.259   9.420   1.538  0.3139  0.3036  0.1658
   19CHTO  H205 7624   5.308   9.387   1.465 -1.6366 -0.7575 -0.7304
   19CHTO  C114 7625   5.080   9.199   1.769 -0.3312 -0.2212 -0.3877
   19CHTO  H218 7626   5.171   9.184   1.828 -0.2560 -0.0862 -0.4694
   19CHTO  C116 7627   4.958   9.210   1.858 -0.0755  0.4669  0.2994
   19CHTO  H220 7628   4.870   9.201   1.791  0.9521 -1.3332 -0.8549
   19CHTO   O79 7629   4.946   9.085   1.928 -0.2408 -0.0856 -0.1996
   19CHTO  H201 7630   4.874   9.035   1.896  0.1969 -0.1661 -1.0722
   19CHTO  C120 7631   4.955   9.338   1.944  0.0950  0.0630  0.1908
   19CHTO  H224 7632   5.037   9.315   2.016 -2.0480 -1.1778  2.3218
   19CHTO   N21 7633   4.826   9.351   2.020  0.1205 -0.2177  0.7266
   19CHTO  H211 7634   4.843   9.400   2.114  1.0347  3.8537 -1.4365
   19CHTO  H212 7635   4.753   9.395   1.953  0.8290 -1.6894 -1.0542
   19CHTO   O75 7636   5.069   9.085   1.677 -0.1407  0.3151 -0.9076
   19CHTO  C112 7637   5.142   8.961   1.716  0.2483  0.8781  0.8292
   19CHTO  H216 7638   5.160   8.956   1.824  1.1678  1.5048  0.7091
   19CHTO   O73 7639   5.272   8.959   1.639  0.2761  0.1065 -0.3432
   19CHTO  C113 7640   5.361   8.864   1.701  0.0736 -0.0812  0.4652
   19CHTO  H217 7641   5.361   8.884   1.811 -0.7826  1.4080  0.2142
   19CHTO  C124 7642   5.490   8.907   1.633 -0.0985 -0.8621  0.3386
   19CHTO   O83 7643   5.609   8.873   1.699 -0.2301  0.6270  0.0712
   19CHTO  H204 7644   5.589   8.800   1.755  0.3483  1.1231  0.9325
   19CHTO  C109 7645   5.311   8.722   1.664 -0.2075  0.1960 -0.0781
   19CHTO  H213 7646   5.310   8.715   1.554 -2.2320  1.0367 -0.1319
   19CHTO  C110 7647   5.162   8.701   1.720 -0.4674 -1.2035  0.4595
   19CHTO  H214 7648   5.169   8.702   1.829  1.1494  1.3751  0.3752
   19CHTO   O78 7649   5.117   8.573   1.665  0.0054  0.7089  0.3440
   19CHTO  H200 7650   5.073   8.583   1.583 -0.4481  1.8290  0.7105
   19CHTO  C111 7651   5.070   8.818   1.673  0.3657 -0.3849 -0.0407
   19CHTO  H215 7652   5.063   8.813   1.563 -1.3456  0.6181  0.0061
   19CHTO   N19 7653   4.930   8.812   1.731 -0.1295  0.5397  0.1108
   19CHTO  H207 7654   4.877   8.893   1.684 -0.4937 -1.0967 -2.3946
   19CHTO  H208 7655   4.935   8.832   1.837 -2.2900  0.3462  0.2892
   19CHTO   O74 7656   5.414   8.626   1.718  0.0541 -0.7875  0.1494
   19CHTO  C115 7657   5.441   8.515   1.597  0.1989 -0.9114  0.1358
   19CHTO  H219 7658   5.349   8.493   1.544 -0.9919  2.3435  0.7521
   19CHTO   O76 7659   5.538   8.582   1.480 -0.0533  0.4480 -0.4022
   19CHTO  C122 7660   5.675   8.556   1.513 -0.6796 -0.2773  1.0759
   19CHTO  H226 7661   5.685   8.589   1.616 -2.4163 -1.6065  1.6870
   19CHTO  C126 7662   5.765   8.652   1.430 -0.7471  0.3871 -0.5947
   19CHTO   O85 7663   5.777   8.791   1.468 -0.0636  0.3772  0.1135
   19CHTO  H206 7664   5.702   8.823   1.515 -0.3337  0.8327 -0.6206
   19CHTO  C121 7665   5.704   8.403   1.493 -0.1511 -0.3511  0.8287
   19CHTO  H225 7666   5.735   8.366   1.393  1.4464 -2.2275  1.9703
   19CHTO   O81 7667   5.824   8.367   1.558  0.1374  0.0426 -0.6345
   19CHTO  H202 7668   5.807   8.367   1.650  0.3942 -0.8573 -0.5816
   19CHTO  C119 7669   5.588   8.317   1.543  0.0609  0.5730 -0.4621
   19CHTO  H223 7670   5.524   8.316   1.455 -1.0354  0.7755  0.3106
   19CHTO  C117 7671   5.498   8.371   1.655 -1.1102 -0.9469  0.1277
   19CHTO  H221 7672   5.533   8.401   1.755  2.4166  1.7101 -1.7720
   19CHTO   N20 7673   5.385   8.283   1.682  0.4354  0.1195 -0.0181
   19CHTO  H209 7674   5.293   8.328   1.716  0.1758 -0.9257  0.7156
   19CHTO  H210 7675   5.409   8.208   1.756 -2.6444 -1.0419 -0.1240
   19CHTO   O80 7676   5.623   8.148   1.557  0.0843 -0.6841  0.0041
   19CHTO  C103 7677   5.655   8.076   1.441 -0.3723 -0.4194 -0.3924
   19CHTO  H190 7678   5.638   8.122   1.344  3.6612 -0.3727 -1.1448
   19CHTO  C101 7679   5.805   8.032   1.442 -0.5495  0.1441  0.7991
   19CHTO  H188 7680   5.823   7.974   1.532  1.7377 -1.4334 -0.6409
   19CHTO   O68 7681   5.909   8.156   1.423 -0.5696  0.3517 -0.3913
   19CHTO  H168 7682   5.995   8.117   1.421 -1.2366 -1.1132 -2.8426
   19CHTO   C99 7683   5.833   7.921   1.322  0.4718 -0.6936  0.4983
   19CHTO  H186 7684   5.837   7.967   1.221  1.3735 -0.6238  0.5668
   19CHTO   N17 7685   5.969   7.857   1.328  0.4141  0.6415 -0.2372
   19CHTO  H174 7686   6.017   7.911   1.409  1.3609  1.0290 -1.0529
   19CHTO  H175 7687   6.023   7.858   1.235 -2.2568  1.4627 -1.8100
   19CHTO   C97 7688   5.718   7.819   1.314 -1.0040  0.5405  0.8478
   19CHTO  H184 7689   5.730   7.738   1.388  1.4090  0.2648  0.1922
   19CHTO   O64 7690   5.582   7.870   1.316 -0.1970  0.1920  0.4932
   19CHTO  C104 7691   5.560   7.940   1.436  0.0688  0.6845  0.3673
   19CHTO  H191 7692   5.582   7.882   1.526  1.8790 -0.1183 -0.5672
   19CHTO  C108 7693   5.409   7.975   1.448  0.0383 -0.2477 -0.0325
   19CHTO   O71 7694   5.365   8.074   1.364  0.1757 -0.4753 -0.0595
   19CHTO  H171 7695   5.359   8.046   1.275  1.7850  1.4095 -0.7792
   19CHTO   O62 7696   5.728   7.748   1.183 -0.2506  0.4017  0.1586
   19CHTO   C91 7697   5.687   7.610   1.179  0.5957 -1.0797  0.4260
   19CHTO  H178 7698   5.620   7.603   1.264 -0.8892  1.3023 -0.5081
   19CHTO   C92 7699   5.800   7.507   1.196  0.3497  0.3479 -0.4171
   19CHTO  H179 7700   5.876   7.528   1.118  0.6063 -0.2495 -0.3272
   19CHTO   O66 7701   5.859   7.517   1.327 -0.1059  0.0414  0.1284
   19CHTO  H166 7702   5.935   7.462   1.327 -1.7736 -2.4616 -3.5918
   19CHTO   C93 7703   5.758   7.356   1.178 -0.2453 -0.4170 -0.2599
   19CHTO  H180 7704   5.715   7.333   1.277  0.0411 -1.0212 -0.2727
   19CHTO   N16 7705   5.872   7.262   1.168 -0.3594  1.0272  0.3381
   19CHTO  H172 7706   5.848   7.157   1.160  1.9379  0.3926  1.6303
   19CHTO  H173 7707   5.944   7.266   1.248 -3.2122  0.8248  3.0451
   19CHTO   C94 7708   5.660   7.335   1.062  0.3917  0.6595  0.6972
   19CHTO  H181 7709   5.712   7.327   0.966 -0.7150  0.8978  0.0655
   19CHTO   O61 7710   5.554   7.443   1.063  0.2336 -0.0126  0.6606
   19CHTO   C95 7711   5.600   7.573   1.055  0.6584  0.3101  0.1867
   19CHTO  H182 7712   5.650   7.599   0.962  2.0751  0.6843  1.0418
   19CHTO  C106 7713   5.468   7.667   1.056  0.0050 -0.4858 -0.5556
   19CHTO   O69 7714   5.376   7.629   0.952  0.5322  0.0674 -0.6713
   19CHTO  H169 7715   5.291   7.668   0.955 -1.4367 -4.0590  0.1666
   19CHTO   O63 7716   5.573   7.213   1.079 -0.2848 -0.1145  0.2092
   19CHTO   C96 7717   5.513   7.152   0.947  1.1464 -0.2015 -0.0148
   19CHTO  H183 7718   5.600   7.146   0.882  2.1688 -1.4251  1.4253
   19CHTO   C98 7719   5.394   7.238   0.886 -0.2262 -0.3792  0.2356
   19CHTO  H185 7720   5.428   7.339   0.862  0.1466 -0.7461 -0.8213
   19CHTO   O67 7721   5.380   7.180   0.754  0.5423 -0.0950 -0.2475
   19CHTO  H167 7722   5.446   7.217   0.699  2.4603 -1.6656  0.9618
   19CHTO  C102 7723   5.253   7.223   0.962  0.0201  0.2151  0.0549
   19CHTO  H189 7724   5.175   7.224   0.884 -0.7793  2.0732  0.8587
   19CHTO   N18 7725   5.217   7.334   1.050  0.0609  0.1830  0.2342
   19CHTO  H176 7726   5.253   7.313   1.150  1.6208  1.1981 -0.1028
   19CHTO  H177 7727   5.110   7.343   1.062  0.1863  1.1545  0.6856
   19CHTO  C105 7728   5.237   7.079   1.023  0.1700 -0.4899  0.4080
   19CHTO  H192 7729   5.243   7.087   1.132 -2.6866  1.0101  0.5037
   19CHTO   O65 7730   5.328   6.985   0.961  0.1805  0.0942 -0.1549
   19CHTO  C100 7731   5.470   7.004   0.971 -0.2793 -0.2806  0.1132
   19CHTO  H187 7732   5.490   6.984   1.077 -1.0039 -0.4687  0.2229
   19CHTO  C107 7733   5.547   6.904   0.877 -0.7043  0.1275 -0.2039
   19CHTO   O70 7734   5.685   6.897   0.908  0.3688 -0.3811  0.0004
   19CHTO  H170 7735   5.696   6.833   0.975  1.2698  0.7684  0.9781
   19CHTO   O57 7736   5.093   7.034   0.975 -0.2686 -0.3599  0.5832
   19CHTO   C85 7737   5.007   6.962   1.059  0.0507  0.0131  0.1306
   19CHTO  H157 7738   5.059   6.962   1.157 -0.7093  0.2471  0.5390
   19CHTO   C83 7739   5.004   6.811   1.005 -0.6330  0.0952 -0.5098
   19CHTO  H155 7740   5.104   6.769   1.003 -1.1762 -1.1275 -2.5363
   19CHTO   O56 7741   4.975   6.823   0.865 -0.0452 -0.3650 -0.3711
   19CHTO  H135 7742   5.036   6.888   0.837  2.3358 -2.4489 -0.2476
   19CHTO   C81 7743   4.913   6.727   1.092 -0.0099  0.0195 -0.7477
   19CHTO  H153 7744   4.950   6.730   1.195  1.2709 -0.5406 -1.1764
   19CHTO   N14 7745   4.924   6.585   1.060  0.3926 -0.1909  0.2637
   19CHTO  H141 7746   5.027   6.558   1.073  0.1728 -1.3616 -0.2571
   19CHTO  H142 7747   4.895   6.569   0.958 -1.0334 -0.4915  0.7014
   19CHTO   C79 7748   4.769   6.789   1.095 -0.3182 -0.4242 -0.1957
   19CHTO  H151 7749   4.711   6.730   1.166 -2.1321 -0.0219 -1.3059
   19CHTO   O52 7750   4.775   6.916   1.160 -0.0809  0.0675  0.4527
   19CHTO   C86 7751   4.855   7.015   1.079 -1.0628 -0.1469 -0.2081
   19CHTO  H158 7752   4.805   7.030   0.981 -2.1196 -1.7753  0.0658
   19CHTO   C90 7753   4.869   7.161   1.141  0.8539 -0.4344  0.3083
   19CHTO   O60 7754   4.747   7.239   1.160  0.1874  0.0576 -0.1558
   19CHTO  H138 7755   4.769   7.329   1.176  2.1117 -0.5234  0.6461
   19CHTO   O50 7756   4.703   6.799   0.973 -0.1591 -0.0910  0.5693
   19CHTO   C73 7757   4.566   6.798   0.914  0.0471 -0.1057 -0.6202
   19CHTO  H145 7758   4.524   6.697   0.910  0.7724 -0.3582 -2.1179
   19CHTO   C74 7759   4.571   6.848   0.768  0.4288  0.1489  0.3315
   19CHTO  H146 7760   4.628   6.784   0.699  2.9224  0.6196  1.8798
   19CHTO   O54 7761   4.438   6.842   0.715 -0.3439  0.0881  0.4851
   19CHTO  H133 7762   4.412   6.758   0.683  0.3338 -1.2074  3.2630
   19CHTO   C75 7763   4.622   6.994   0.764 -0.4933  0.0926 -0.1479
   19CHTO  H147 7764   4.723   6.999   0.807 -0.6024 -0.7671  0.2031
   19CHTO   N13 7765   4.641   7.060   0.631  0.3083 -0.0699 -0.1080
   19CHTO  H139 7766   4.745   7.078   0.611 -0.1519  2.7996 -0.1177
   19CHTO  H140 7767   4.589   7.155   0.628  0.0958 -0.0673  2.8789
   19CHTO   C76 7768   4.531   7.089   0.868  0.6701 -0.8101 -0.7716
   19CHTO  H148 7769   4.437   7.109   0.817  0.7959 -0.1668 -0.7635
   19CHTO   O49 7770   4.516   7.026   0.998  0.6726 -0.0750  0.9627
   19CHTO   C77 7771   4.460   6.891   0.991 -0.1600  0.1689  0.3010
   19CHTO  H149 7772   4.366   6.885   0.935 -1.2236  2.2428  1.8071
   19CHTO   C88 7773   4.418   6.846   1.132 -0.9106  0.5514  0.4440
   19CHTO   O58 7774   4.364   6.710   1.128  0.3741 -0.2087  0.2275
   19CHTO  H136 7775   4.434   6.648   1.129 -0.3317 -1.0304 -0.3122
   19CHTO   O51 7776   4.619   7.229   0.905 -0.6447 -0.0983 -0.2540
   19CHTO   C78 7777   4.537   7.370   0.857 -0.6613 -0.3041  0.0978
   19CHTO  H150 7778   4.456   7.343   0.786 -0.7510  0.1349  0.0345
   19CHTO   C80 7779   4.632   7.474   0.789  0.5391 -0.2848  0.1975
   19CHTO  H152 7780   4.708   7.505   0.863 -0.3623  0.3634  0.8720
   19CHTO   O55 7781   4.682   7.406   0.668  0.0447  0.1849 -0.1695
   19CHTO  H134 7782   4.736   7.470   0.626  0.3831  0.4502  0.6478
   19CHTO   C84 7783   4.556   7.612   0.748 -0.0947 -0.1099  1.1119
   19CHTO  H156 7784   4.484   7.590   0.669  0.5189 -1.3170  0.8673
   19CHTO   N15 7785   4.641   7.719   0.693 -0.1303 -0.0504  0.6596
   19CHTO  H143 7786   4.713   7.745   0.767 -0.6047  0.7914  0.8340
   19CHTO  H144 7787   4.692   7.684   0.606 -1.0138 -0.4052  0.2758
   19CHTO   C87 7788   4.472   7.664   0.866 -0.1419 -0.1412 -0.5964
   19CHTO  H159 7789   4.539   7.690   0.948 -0.2647  0.8838 -0.8108
   19CHTO   O53 7790   4.386   7.545   0.923  1.1251  0.0146  0.3509
   19CHTO   C82 7791   4.469   7.433   0.974  0.3231 -1.2061  0.3750
   19CHTO  H154 7792   4.544   7.481   1.036  1.7708 -0.4070 -1.9250
   19CHTO   C89 7793   4.382   7.347   1.062  0.3225  0.1349  0.3160
   19CHTO   O59 7794   4.277   7.294   0.987 -0.5765 -0.1380 -0.2019
   19CHTO  H137 7795   4.254   7.217   1.035 -1.2987 -1.3756 -2.4328
   19CHTO   O45 7796   4.363   7.783   0.825  0.5311  0.6997 -0.8642
   19CHTO   C67 7797   4.305   7.841   0.946  0.2389  0.2070 -0.2062
   19CHTO  H124 7798   4.284   7.771   1.027 -1.0515  2.2827  1.3099
   19CHTO   C65 7799   4.407   7.936   1.006 -0.5044  0.1906  0.0267
   19CHTO  H122 7800   4.452   7.987   0.921  1.3616  0.3534  1.0863
   19CHTO   O44 7801   4.506   7.861   1.077  0.1982 -0.5605 -0.4514
   19CHTO  H102 7802   4.564   7.923   1.116 -0.6136 -0.2090  0.2350
   19CHTO   C63 7803   4.345   8.058   1.082 -0.0525  0.1986  0.0840
   19CHTO  H120 7804   4.312   8.132   1.009  0.0842 -1.1044 -1.3218
   19CHTO   N11 7805   4.451   8.137   1.160  0.7150  0.1746  0.6227
   19CHTO  H108 7806   4.414   8.235   1.180 -0.6798  0.1200 -1.4704
   19CHTO  H109 7807   4.547   8.147   1.112 -0.1468 -1.0540 -1.4533
   19CHTO   C61 7808   4.210   8.025   1.152  0.4761 -0.3702  0.2066
   19CHTO  H118 7809   4.168   8.117   1.195  0.4553  0.2308 -1.0919
   19CHTO   O40 7810   4.112   7.974   1.054  0.6581  0.1511 -0.0867
   19CHTO   C68 7811   4.167   7.917   0.923 -0.4098 -0.1666 -0.1307
   19CHTO  H125 7812   4.177   8.000   0.850 -1.6134 -0.3160 -0.4828
   19CHTO   C72 7813   4.062   7.818   0.861  0.0700  0.0489 -0.2984
   19CHTO   O48 7814   3.935   7.878   0.848  0.4569  0.4444  0.1220
   19CHTO  H105 7815   3.891   7.847   0.771 -0.8624  2.8314 -0.1175
   19CHTO   O38 7816   4.238   7.940   1.266  0.2255 -0.6259  0.1037
   19CHTO   C55 7817   4.117   7.887   1.319 -0.7759 -0.0239  0.2578
   19CHTO  H112 7818   4.035   7.872   1.246 -1.3117 -0.9966  1.0536
   19CHTO   C56 7819   4.066   7.961   1.454  0.3576  0.2441  0.5819
   19CHTO  H113 7820   4.149   7.954   1.526 -1.6952  0.9772  3.0917
   19CHTO   O42 7821   4.046   8.102   1.427  0.1098  0.2521  0.1468
   19CHTO  H100 7822   4.051   8.147   1.509  0.5933  1.2391 -0.4099
   19CHTO   C57 7823   3.939   7.891   1.515 -1.0259  0.4432  0.1252
   19CHTO  H114 7824   3.854   7.914   1.451  0.1423  4.7957  0.0054
   19CHTO   N10 7825   3.899   7.946   1.649 -0.1282 -0.1067 -0.1951
   19CHTO  H106 7826   3.990   7.982   1.694  0.1232  0.8499 -1.4519
   19CHTO  H107 7827   3.829   8.028   1.639 -0.2957 -0.4061 -1.6997
   19CHTO   C58 7828   3.958   7.735   1.532 -0.2815  0.0954  0.1542
   19CHTO  H115 7829   4.025   7.719   1.619  1.7881  2.7258 -0.8874
   19CHTO   O37 7830   4.011   7.683   1.407 -0.0380  0.0517 -0.3359
   19CHTO   C59 7831   4.134   7.740   1.358  0.2409 -0.2704  0.6447
   19CHTO  H116 7832   4.216   7.739   1.430 -0.8763 -1.7924  1.9469
   19CHTO   C70 7833   4.159   7.652   1.237  0.4448 -0.8297  0.1555
   19CHTO   O46 7834   4.146   7.511   1.260 -0.2398  0.0010 -0.0898
   19CHTO  H103 7835   4.144   7.472   1.174 -3.0250  0.4093 -0.2406
   19CHTO   O39 7836   3.802   7.660   1.564  0.3643 -0.5855  0.6971
   19CHTO   C60 7837   3.802   7.524   1.515  0.1369 -0.5264 -0.1570
   19CHTO  H117 7838   3.846   7.532   1.415 -1.9641  3.5188 -0.8566
   19CHTO   C62 7839   3.882   7.425   1.601  0.5335  0.2713 -0.5738
   19CHTO  H119 7840   3.985   7.465   1.601  0.4766  0.4222 -0.0326
   19CHTO   O43 7841   3.830   7.413   1.735 -0.3233 -0.2516 -0.1396
   19CHTO  H101 7842   3.822   7.491   1.786 -0.5165  0.4559 -1.2523
   19CHTO   C66 7843   3.896   7.285   1.515 -0.0838 -0.4038  0.7925
   19CHTO  H123 7844   3.934   7.299   1.414  0.0555 -1.0247  0.7581
   19CHTO   N12 7845   3.993   7.194   1.589  0.2931  0.1450  0.0605
   19CHTO  H110 7846   4.087   7.247   1.590 -0.4952  1.5637  0.3486
   19CHTO  H111 7847   3.954   7.177   1.688  1.3436 -0.8578  0.3083
   19CHTO   C69 7848   3.759   7.214   1.486  0.0534  0.9279  0.2496
   19CHTO  H126 7849   3.735   7.164   1.582 -3.1089  0.9773 -0.4610
   19CHTO   O41 7850   3.656   7.313   1.452  0.0178  0.0696  0.2866
   19CHTO   C64 7851   3.656   7.463   1.501  0.5447  0.6325  0.1107
   19CHTO  H121 7852   3.607   7.466   1.600 -1.9815  0.1690 -1.1072
   19CHTO   C71 7853   3.578   7.561   1.402 -0.0603  0.0834 -0.7953
   19CHTO   O47 7854   3.438   7.538   1.380  0.4137 -0.4789  0.7824
   19CHTO  H104 7855   3.401   7.495   1.454  0.1202 -0.1129  0.8491
   19CHTO   O34 7856   3.762   7.108   1.374 -0.3914 -0.1561 -0.5675
   19CHTO   C49 7857   3.727   7.083   1.216 -0.4711 -0.0285 -0.7719
   19CHTO   H91 7858   3.631   7.033   1.220  0.3260 -1.4024  2.7502
   19CHTO   C47 7859   3.838   7.000   1.154 -0.0995  0.9785  0.3252
   19CHTO   H89 7860   3.794   6.964   1.059  0.2402  3.2694 -0.7403
   19CHTO   O33 7861   3.845   6.887   1.242 -0.0237  0.4504 -0.4502
   19CHTO   H70 7862   3.793   6.890   1.319 -0.1197 -1.3160 -0.4323
   19CHTO   C45 7863   3.972   7.086   1.138  0.1508 -0.3692  0.2294
   19CHTO   H87 7864   3.991   7.133   1.236  2.8571 -0.0113 -0.4301
   19CHTO    N8 7865   4.087   6.997   1.098 -0.1433  0.5219  0.1212
   19CHTO   H75 7866   4.176   7.055   1.116  1.1256 -0.9281 -1.2853
   19CHTO   H76 7867   4.088   6.918   1.172 -1.4264  0.2291 -0.1599
   19CHTO   C43 7868   3.941   7.210   1.039  0.5072  0.2885  0.2443
   19CHTO   H85 7869   4.028   7.274   1.029  0.1459  0.5943 -1.0989
   19CHTO   O29 7870   3.823   7.283   1.084 -0.0354 -0.0411 -0.6383
   19CHTO   C50 7871   3.708   7.215   1.134 -0.1416 -0.3532  0.7288
   19CHTO   H92 7872   3.655   7.287   1.198  1.0145  1.5422 -0.4099
   19CHTO   C54 7873   3.605   7.192   1.016 -0.5814  0.0524 -0.3898
   19CHTO   O36 7874   3.649   7.099   0.913 -0.2557 -0.0750  0.5159
   19CHTO   H72 7875   3.699   7.149   0.851 -1.5572  0.7445  0.1125
   19CHTO   O27 7876   3.912   7.170   0.909 -0.1824  0.0842  1.1938
   19CHTO   C37 7877   3.929   7.215   0.772 -0.2604  0.3466 -0.3672
   19CHTO   H79 7878   3.873   7.158   0.697 -0.8269 -0.2813  0.5265
   19CHTO   C38 7879   3.873   7.361   0.768 -0.1828  0.3683  0.3699
   19CHTO   H80 7880   3.918   7.415   0.854  1.0681 -0.2423  0.1114
   19CHTO   O31 7881   3.729   7.356   0.783  0.1341  0.1079 -0.5421
   19CHTO   H68 7882   3.680   7.335   0.706 -1.0089  0.1903  0.1502
   19CHTO   C39 7883   3.913   7.427   0.630 -0.1480  0.5212 -0.3670
   19CHTO   H81 7884   3.857   7.372   0.555  2.6756 -2.8085 -0.2001
   19CHTO    N7 7885   3.873   7.572   0.623  0.1572 -0.1885 -0.0060
   19CHTO   H73 7886   3.780   7.582   0.568  0.0895  1.3246  0.3597
   19CHTO   H74 7887   3.880   7.624   0.718 -1.2103 -0.9456  0.5381
   19CHTO   C40 7888   4.066   7.408   0.602  0.0062 -0.1062  0.3077
   19CHTO   H82 7889   4.127   7.449   0.682  1.9191 -0.5751 -0.8938
   19CHTO   O26 7890   4.072   7.265   0.596  0.6862  0.7549 -0.0932
   19CHTO   C41 7891   4.070   7.207   0.726 -0.1604  0.1625 -0.0811
   19CHTO   H83 7892   4.144   7.252   0.795 -1.8068  0.7037  1.3732
   19CHTO   C52 7893   4.125   7.066   0.700  0.5400  0.3933 -0.1665
   19CHTO   O35 7894   4.260   7.076   0.664  0.2528 -0.0680  0.0771
   19CHTO   H71 7895   4.273   7.143   0.600  1.4646  0.5608  0.9707
   19CHTO   O28 7896   4.108   7.452   0.476  0.9464 -0.6946  0.1622
   19CHTO   C42 7897   4.224   7.531   0.441 -0.4135  0.7384  1.3032
   19CHTO   H84 7898   4.269   7.564   0.534 -0.1706 -2.2062  2.2646
   19CHTO   C44 7899   4.198   7.657   0.367 -0.3352  0.2363 -0.0069
   19CHTO   H86 7900   4.157   7.631   0.269  1.4084  1.4328 -1.0989
   19CHTO   O32 7901   4.106   7.736   0.446 -0.1035 -0.3330  0.4187
   19CHTO   H69 7902   4.039   7.690   0.493 -0.2794 -0.2552  0.2461
   19CHTO   C48 7903   4.332   7.731   0.334  0.0529  0.6019 -0.3179
   19CHTO   H90 7904   4.370   7.778   0.425 -0.3872 -1.3373  0.9062
   19CHTO    N9 7905   4.320   7.846   0.236  0.3955 -0.1987 -0.1109
   19CHTO   H77 7906   4.226   7.840   0.184  0.1396 -1.8880  0.5126
   19CHTO   H78 7907   4.306   7.935   0.297  1.9331 -0.2476  0.3449
   19CHTO   C51 7908   4.442   7.631   0.283  0.9544  0.1860  0.1718
   19CHTO   H93 7909   4.411   7.610   0.181 -0.9413  0.2290  0.7182
   19CHTO   O30 7910   4.445   7.512   0.363 -0.0201 -0.0382  0.3179
   19CHTO   C46 7911   4.331   7.444   0.361  0.0414  0.4825  0.1539
   19CHTO   H88 7912   4.293   7.428   0.261  1.2275  0.0599 -0.2362
   19CHTO   C53 7913   4.357   7.306   0.424 -0.2753 -0.2204  0.2605
   19CHTO   O72 7914   4.406   7.315   0.555  0.4171  0.4398  0.0833
   19CHTO  H199 7915   4.487   7.363   0.557  1.2447 -0.8931 -0.5162
   19CHTO   O22 7916   4.580   7.684   0.279  0.8013  0.5496 -0.0075
   19CHTO   C31 7917   4.687   7.633   0.187  0.0482 -0.4050  1.1250
   19CHTO   H59 7918   4.662   7.529   0.159 -2.3069  0.2075  0.8825
   19CHTO   C29 7919   4.685   7.714   0.057  0.0387 -0.6177 -0.3002
   19CHTO   H57 7920   4.691   7.820   0.086  0.0945 -1.0468  1.2637
   19CHTO   O21 7921   4.557   7.699  -0.002 -0.6154  0.0260  0.0129
   19CHTO   H37 7922   4.568   7.670  -0.091 -2.4501  0.9092 -0.5259
   19CHTO   C27 7923   4.805   7.667  -0.039 -0.8273 -0.5232 -0.0658
   19CHTO   H55 7924   4.796   7.559  -0.059 -0.2967 -0.5168 -0.3445
   19CHTO    N5 7925   4.814   7.746  -0.166  0.6863 -0.2623 -0.2299
   19CHTO   H43 7926   4.758   7.838  -0.156 -0.0510 -0.8199  0.9655
   19CHTO   H44 7927   4.916   7.745  -0.201  0.0594 -1.0291 -2.1098
   19CHTO   C25 7928   4.941   7.671   0.044  0.0344 -0.3931 -0.6069
   19CHTO   H53 7929   4.958   7.776   0.071 -1.3895 -0.2778 -0.1340
   19CHTO   O17 7930   4.931   7.594   0.157  0.1103  0.3076  0.4329
   19CHTO   C32 7931   4.836   7.639   0.250 -0.3682 -0.1015 -0.7901
   19CHTO   H60 7932   4.853   7.743   0.280 -0.2504 -0.1951 -0.5313
   19CHTO   C36 7933   4.855   7.552   0.378  0.3931 -0.3009  0.5311
   19CHTO   O25 7934   4.833   7.413   0.335 -0.0916 -0.5168 -0.9645
   19CHTO   H40 7935   4.909   7.379   0.292  1.1397  0.1449  0.6453
   19CHTO   O15 7936   5.054   7.596  -0.046  0.2909  0.6716  0.0429
   19CHTO   C19 7937   5.104   7.483  -0.121  0.3029  0.4913 -0.5660
   19CHTO   H47 7938   5.043   7.487  -0.213 -0.5309  0.9718  0.0060
   19CHTO   C20 7939   5.256   7.489  -0.151  0.4427  0.2028  0.3176
   19CHTO   H48 7940   5.312   7.502  -0.058 -2.5526 -0.7075  2.3241
   19CHTO   O19 7941   5.284   7.608  -0.223  0.3169 -0.5527  0.3167
   19CHTO   H35 7942   5.219   7.672  -0.203  0.1603 -0.7097  0.3098
   19CHTO   C21 7943   5.313   7.363  -0.226 -0.4883  0.8410  0.2257
   19CHTO   H49 7944   5.273   7.354  -0.327  1.3094 -1.2120 -0.3436
   19CHTO    N4 7945   5.461   7.365  -0.237 -0.1024 -0.1051  0.3321
   19CHTO   H41 7946   5.489   7.429  -0.320 -2.7081  0.2607 -0.3158
   19CHTO   H42 7947   5.499   7.413  -0.149 -1.0732 -1.4946  1.5285
   19CHTO   C22 7948   5.261   7.232  -0.168 -0.0558  0.6000  0.2932
   19CHTO   H50 7949   5.308   7.219  -0.070 -0.5899  0.5098  0.5378
   19CHTO   O14 7950   5.119   7.238  -0.155 -0.3324  0.0025  0.0748
   19CHTO   C23 7951   5.074   7.339  -0.061 -0.2343 -0.3798 -0.6901
   19CHTO   H51 7952   5.138   7.318   0.026  0.0437 -0.1099 -0.8255
   19CHTO   C34 7953   4.927   7.318  -0.021  0.0113 -0.0960 -0.2106
   19CHTO   O23 7954   4.923   7.198   0.056 -0.5177 -0.5687  0.6891
   19CHTO   H38 7955   4.892   7.211   0.144  0.5956  0.8167  0.9061
   19CHTO   O16 7956   5.285   7.129  -0.261  0.1804  0.3158 -0.1906
   19CHTO   C24 7957   5.372   7.009  -0.244  0.4071 -0.1766  0.1855
   19CHTO   H52 7958   5.462   7.030  -0.186  0.4189 -2.9231  1.2467
   19CHTO   C26 7959   5.420   6.980  -0.392 -0.2796  0.4201 -0.1863
   19CHTO   H54 7960   5.333   6.981  -0.460 -0.7791  1.2206  0.4642
   19CHTO   O20 7961   5.504   7.087  -0.434  0.1363  0.1485 -0.5655
   19CHTO   H36 7962   5.507   7.069  -0.527  2.6528 -0.9376 -0.3110
   19CHTO   C30 7963   5.491   6.840  -0.408  0.0874 -0.1990  0.7072
   19CHTO   H58 7964   5.590   6.832  -0.359 -0.1288  0.5442  1.2698
   19CHTO    N6 7965   5.519   6.816  -0.554 -0.5739 -0.4804 -0.2621
   19CHTO   H45 7966   5.425   6.810  -0.606 -1.4668 -0.1028  1.2854
   19CHTO   H46 7967   5.566   6.719  -0.563 -2.2117 -1.1753 -1.4113
   19CHTO   C33 7968   5.381   6.738  -0.351 -0.0581  0.3572  0.5238
   19CHTO   H61 7969   5.284   6.758  -0.399  0.4734  4.7382  1.0446
   19CHTO   O18 7970   5.359   6.762  -0.214 -0.3368  0.3883  0.2616
   19CHTO   C28 7971   5.303   6.885  -0.171 -0.1209 -0.2931  0.7925
   19CHTO   H56 7972   5.196   6.883  -0.190 -0.3729 -1.2903  2.2774
   19CHTO   C35 7973   5.317   6.903  -0.016 -0.0628  0.5039  0.0305
   19CHTO   O24 7974   5.435   6.846   0.039 -0.6690  0.4656  0.3689
   19CHTO   H39 7975   5.445   6.755   0.020  1.5021  0.5540  0.9249
   19CHTO    O9 7976   5.412   6.599  -0.374 -0.9338 -0.3750 -0.6636
   19CHTO   C13 7977   5.265   6.510  -0.425 -0.5294  0.7040  0.0431
   19CHTO   H26 7978   5.211   6.557  -0.510 -0.1633 -0.4504 -0.8413
   19CHTO   C11 7979   5.171   6.502  -0.291  0.0102  0.2908  0.7061
   19CHTO   H24 7980   5.156   6.606  -0.260 -0.7113  0.3501  0.1493
   19CHTO    O8 7981   5.247   6.438  -0.191 -0.5132  0.0616  0.1558
   19CHTO    H3 7982   5.308   6.494  -0.146  0.8812 -2.3676  1.4161
   19CHTO    C9 7983   5.042   6.430  -0.321 -0.1880 -0.0691  0.2939
   19CHTO   H22 7984   4.990   6.494  -0.393  2.4843  1.1408 -0.6471
   19CHTO    N2 7985   4.945   6.435  -0.206 -0.1733 -0.5305  0.7725
   19CHTO   H10 7986   4.923   6.539  -0.186  1.6100 -0.0165  0.1964
   19CHTO   H11 7987   4.991   6.387  -0.122  2.1369  0.7225  0.2663
   19CHTO    C7 7988   5.071   6.289  -0.391 -0.5290 -0.3832 -0.5966
   19CHTO   H20 7989   4.971   6.259  -0.425 -1.1917 -1.8807  2.4677
   19CHTO    O4 7990   5.176   6.285  -0.495 -0.6017 -0.9320  0.9524
   19CHTO   C14 7991   5.299   6.364  -0.479 -0.1232 -0.4853  0.4462
   19CHTO   H27 7992   5.338   6.381  -0.581 -0.9695 -1.3532 -0.0255
   19CHTO   C18 7993   5.404   6.270  -0.408 -0.0186 -0.6005  0.5577
   19CHTO   O13 7994   5.449   6.174  -0.505  0.1852 -0.1386 -0.2136
   19CHTO    H7 7995   5.387   6.109  -0.531  0.0102 -0.1519  0.2294
   19CHTO    O2 7996   5.117   6.189  -0.275  0.1928  0.4902  0.1405
   19CHTO    C1 7997   5.139   6.048  -0.292  0.2569 -0.7163  0.5513
   19CHTO   H14 7998   5.223   6.035  -0.364 -1.1492 -0.1975 -1.2210
   19CHTO    C2 7999   5.008   5.966  -0.347 -0.4902 -1.1562 -0.3988
   19CHTO   H15 8000   4.921   6.000  -0.289 -0.6140  1.5449 -2.0815
   19CHTO    O6 8001   4.973   6.008  -0.483  0.1801 -0.4311  0.4608
   19CHTO    H1 8002   5.046   5.999  -0.542  0.3096 -1.1755  0.7303
   19CHTO    C3 8003   5.039   5.814  -0.346  0.1122 -0.1500  0.3559
   19CHTO   H16 8004   5.114   5.794  -0.424 -1.3311 -0.1997 -1.0474
   19CHTO    N1 8005   4.919   5.725  -0.383  0.1769  0.2568 -0.0060
   19CHTO    H8 8006   4.858   5.764  -0.463 -0.6782 -0.7209  0.1564
   19CHTO    H9 8007   4.859   5.699  -0.296  2.8980  0.1648  1.9126
   19CHTO    C4 8008   5.102   5.773  -0.207  0.1816  0.0688 -0.2407
   19CHTO   H17 8009   5.032   5.789  -0.126  0.2335 -2.5033  0.3409
   19CHTO    O1 8010   5.223   5.853  -0.193 -0.0543  0.0724 -0.0039
   19CHTO    C5 8011   5.180   5.988  -0.159 -0.6872 -0.0373 -0.3280
   19CHTO   H18 8012   5.097   5.995  -0.090 -0.3578 -0.7117  0.1462
   19CHTO   C16 8013   5.305   6.048  -0.085 -0.1517 -0.7333 -0.1923
   19CHTO   O11 8014   5.317   5.973   0.036  0.2011  0.2959  0.1196
   19CHTO    H5 8015   5.391   6.007   0.082  1.4727 -1.5679 -0.5090
   19CHTO    O3 8016   5.157   5.634  -0.207 -0.0518 -0.0765 -0.1402
   19CHTO    C6 8017   5.144   5.571  -0.079 -0.0849 -0.1400 -0.0196
   19CHTO   H19 8018   5.146   5.639   0.005 -1.2849 -1.2180  0.9027
   19CHTO    C8 8019   5.012   5.496  -0.075  0.3382 -0.1761 -0.4938
   19CHTO   H21 8020   4.996   5.439  -0.167  0.3726  0.5700 -0.9632
   19CHTO    O7 8021   4.910   5.595  -0.056  0.5113  0.2376 -0.3490
   19CHTO    H2 8022   4.902   5.652  -0.130  0.7561  3.2348  1.8215
   19CHTO   C12 8023   4.992   5.384   0.039 -0.0234 -0.3155 -0.2115
   19CHTO   H25 8024   4.971   5.437   0.134 -0.0558  0.5226 -0.6791
   19CHTO    N3 8025   4.876   5.291   0.002  0.1914 -0.6384 -0.3072
   19CHTO   H12 8026   4.823   5.321  -0.087 -0.4725 -1.1856 -0.1067
   19CHTO   H13 8027   4.912   5.189  -0.005 -0.3659 -0.9655  1.2712
   19CHTO   C15 8028   5.124   5.306   0.061  0.4820 -0.1163 -0.2804
   19CHTO   H28 8029   5.145   5.234  -0.018 -0.2195  0.9430 -1.4580
   19CHTO   O10 8030   5.119   5.237   0.210  0.2619 -0.5897 -0.1698
   19CHTO    H4 8031   5.133   5.145   0.199  1.9079 -0.1896 -1.7662
   19CHTO    O5 8032   5.244   5.388   0.059 -0.3592  0.7768 -0.2862
   19CHTO   C10 8033   5.267   5.473  -0.060 -0.3036  0.3968 -0.6489
   19CHTO   H23 8034   5.294   5.413  -0.147  0.8392  1.3487 -0.9707
   19CHTO   C17 8035   5.399   5.552  -0.031 -0.1265  0.1545  0.4280
   19CHTO   O12 8036   5.523   5.475  -0.028  0.8963  0.2865  0.2329
   19CHTO    H6 8037   5.508   5.412   0.040  2.6425 -0.2154  0.1639
   20CHTO  H203 8038   4.791   1.069   4.235  0.1408 -0.0090  1.3593
   20CHTO   O82 8039   4.865   1.126   4.250  0.2320  0.4195 -0.5552
   20CHTO  C123 8040   4.914   1.223   4.148  0.6072 -0.1524 -0.3196
   20CHTO  H227 8041   4.832   1.292   4.124  0.8401  1.7829  3.9803
   20CHTO   O77 8042   5.016   1.287   4.225 -0.8772  0.3789 -0.2310
   20CHTO  C118 8043   5.071   1.396   4.156 -0.2584  0.1174 -0.2479
   20CHTO  H222 8044   4.985   1.458   4.128 -1.6618 -2.0939 -0.9356
   20CHTO  C125 8045   5.170   1.466   4.252 -0.0450 -0.5228  0.4775
   20CHTO   O84 8046   5.282   1.384   4.282  0.1336 -0.6374  0.4565
   20CHTO  H205 8047   5.329   1.417   4.357 -0.2328  1.0590 -0.0412
   20CHTO  C114 8048   5.139   1.351   4.027  0.6234 -0.3627  0.0126
   20CHTO  H218 8049   5.220   1.281   4.048 -0.4384 -0.8639  2.6123
   20CHTO  C116 8050   5.036   1.276   3.934 -0.5629 -0.3237 -0.2076
   20CHTO  H220 8051   4.954   1.347   3.908  0.1046  0.8716  0.8656
   20CHTO   O79 8052   5.100   1.236   3.809  0.2290  0.2776 -0.7169
   20CHTO  H201 8053   5.032   1.210   3.749  0.2001  0.0333 -0.5751
   20CHTO  C120 8054   4.971   1.162   4.015 -0.1430  0.2972 -0.5848
   20CHTO  H224 8055   5.050   1.088   4.043 -1.0184 -0.8087 -0.9967
   20CHTO   N21 8056   4.865   1.089   3.933  0.7207  0.9278 -0.5967
   20CHTO  H211 8057   4.765   1.112   3.965  0.2426 -0.5146 -1.0142
   20CHTO  H212 8058   4.881   1.112   3.828  0.7596  0.1135 -0.7721
   20CHTO   O75 8059   5.182   1.483   3.976 -0.6300 -0.4820  0.6486
   20CHTO  C112 8060   5.294   1.489   3.854  0.1322 -0.3398 -0.7251
   20CHTO  H216 8061   5.277   1.412   3.778  2.6722 -0.1197 -1.5492
   20CHTO   O73 8062   5.423   1.472   3.920 -0.1547  0.1107 -0.1252
   20CHTO  C113 8063   5.539   1.470   3.832 -0.0227  0.3978  0.3055
   20CHTO  H217 8064   5.530   1.411   3.738  1.3512  1.3004 -0.4096
   20CHTO  C124 8065   5.661   1.419   3.902 -0.4922  0.3944 -0.3609
   20CHTO   O83 8066   5.642   1.294   3.971 -0.7254 -0.4846 -0.1410
   20CHTO  H204 8067   5.708   1.287   4.037  0.1709  0.2417 -0.9515
   20CHTO  C109 8068   5.556   1.608   3.761 -0.0821  0.0141 -0.0973
   20CHTO  H213 8069   5.586   1.683   3.835  0.0989  0.8361 -0.9989
   20CHTO  C110 8070   5.418   1.647   3.693 -0.4679  0.0089  0.4068
   20CHTO  H214 8071   5.406   1.588   3.602  0.0381 -0.2017  0.4748
   20CHTO   O78 8072   5.430   1.782   3.637 -0.1958 -0.3214 -0.5397
   20CHTO  H200 8073   5.445   1.840   3.710 -0.1329 -1.2521  0.2065
   20CHTO  C111 8074   5.291   1.632   3.785  0.0716  0.4859 -0.4002
   20CHTO  H215 8075   5.296   1.713   3.859 -2.0101  1.8568 -1.7189
   20CHTO   N19 8076   5.160   1.657   3.713 -0.0286 -0.0287 -0.1142
   20CHTO  H207 8077   5.076   1.651   3.781 -0.3094  0.3688 -0.4258
   20CHTO  H208 8078   5.156   1.597   3.623  3.2454  0.5280 -0.6886
   20CHTO   O74 8079   5.655   1.595   3.659 -0.0908  0.1197  0.2204
   20CHTO  C115 8080   5.722   1.713   3.619 -0.6155  0.4141  0.5180
   20CHTO  H219 8081   5.673   1.801   3.661 -0.8987 -0.7924  2.8315
   20CHTO   O76 8082   5.874   1.719   3.669 -0.1316 -0.8661 -0.0643
   20CHTO  C122 8083   5.952   1.609   3.626  0.6796  0.1557 -0.1969
   20CHTO  H226 8084   5.921   1.516   3.673  2.1463  0.5057  1.4840
   20CHTO  C126 8085   6.104   1.643   3.676 -0.4537 -0.5020 -0.3319
   20CHTO   O85 8086   6.160   1.754   3.605 -0.0178  0.1899 -0.2407
   20CHTO  H206 8087   6.226   1.786   3.663 -0.6210  0.3147  0.3924
   20CHTO  C121 8088   5.934   1.593   3.459 -0.2801  1.0957 -0.2797
   20CHTO  H225 8089   6.032   1.584   3.408  0.9669  3.3246  1.6286
   20CHTO   O81 8090   5.865   1.469   3.452  0.2189  0.4762 -0.1146
   20CHTO  H202 8091   5.889   1.416   3.378 -2.0829 -1.5078  0.4883
   20CHTO  C119 8092   5.845   1.701   3.389 -0.1732  0.4880 -0.4026
   20CHTO  H223 8093   5.902   1.793   3.401 -0.1857  0.6874 -1.7616
   20CHTO  C117 8094   5.709   1.717   3.460  0.4332  0.3643 -0.0257
   20CHTO  H221 8095   5.643   1.635   3.433  2.2060 -1.5431  1.2687
   20CHTO   N20 8096   5.647   1.845   3.405  0.0681  0.2445  0.2443
   20CHTO  H209 8097   5.668   1.847   3.299 -0.5851 -2.0552  0.0507
   20CHTO  H210 8098   5.540   1.827   3.401  0.0809  0.3287 -0.8472
   20CHTO   O80 8099   5.848   1.683   3.228 -0.1089  0.6576 -0.1020
   20CHTO  C103 8100   5.970   1.692   3.156  0.3968 -0.4754  0.7084
   20CHTO  H190 8101   6.056   1.700   3.223  0.2904  0.1747  0.7615
   20CHTO  C101 8102   6.001   1.581   3.046 -0.4052  0.1787 -0.0695
   20CHTO  H188 8103   5.903   1.539   3.022 -0.7185  1.2036 -0.6597
   20CHTO   O68 8104   6.082   1.456   3.101  0.2542  0.0693 -0.1285
   20CHTO  H168 8105   6.014   1.392   3.108 -1.1243  1.6776  1.9226
   20CHTO   C99 8106   6.077   1.625   2.910  0.4077  0.5240 -0.3963
   20CHTO  H186 8107   6.187   1.626   2.926  0.4744  5.2509 -0.5027
   20CHTO   N17 8108   6.062   1.519   2.805 -1.4206  0.3953 -0.5049
   20CHTO  H174 8109   5.983   1.450   2.828 -0.9972 -0.1196 -0.5722
   20CHTO  H175 8110   6.050   1.563   2.707 -0.7855 -1.0350 -1.2427
   20CHTO   C97 8111   6.036   1.766   2.870 -0.2145  0.9990  0.2246
   20CHTO  H184 8112   5.928   1.767   2.850  0.0621  2.3218 -1.2963
   20CHTO   O64 8113   6.066   1.847   2.980 -0.5093  0.1891  0.7957
   20CHTO  C104 8114   5.957   1.832   3.078 -0.5150  0.7052  0.4430
   20CHTO  H191 8115   5.860   1.842   3.029  0.2810 -1.7191 -1.6590
   20CHTO  C108 8116   5.964   1.947   3.176  0.4848 -0.0892  0.1621
   20CHTO   O71 8117   6.096   1.962   3.228  0.0613 -0.1182 -0.1473
   20CHTO  H171 8118   6.143   2.035   3.193 -0.6911  0.6171  0.3521
   20CHTO   O62 8119   6.111   1.807   2.752 -0.5759 -0.7228 -0.0466
   20CHTO   C91 8120   6.076   1.938   2.702  0.0787  0.8234 -0.0363
   20CHTO  H178 8121   6.030   1.989   2.786 -2.6990 -0.0866 -0.9448
   20CHTO   C92 8122   5.969   1.947   2.587  0.2197 -0.3646  0.3333
   20CHTO  H179 8123   6.010   1.906   2.493  1.0713  1.5276 -0.1541
   20CHTO   O66 8124   5.847   1.883   2.627  0.0290  0.1469 -0.2917
   20CHTO  H166 8125   5.798   1.879   2.547 -1.1782  0.1639  0.4499
   20CHTO   C93 8126   5.929   2.101   2.547 -0.5972  0.1223  0.5995
   20CHTO  H180 8127   5.867   2.137   2.630  1.4090  1.9784  1.3335
   20CHTO   N16 8128   5.851   2.108   2.418  0.4863  0.0953 -0.1114
   20CHTO  H172 8129   5.845   2.211   2.385 -0.9814 -0.7282 -2.4787
   20CHTO  H173 8130   5.893   2.049   2.338  1.4481 -0.7267  0.9856
   20CHTO   C94 8131   6.066   2.185   2.544  0.2364  0.4843 -0.1983
   20CHTO  H181 8132   6.127   2.168   2.455  0.5807 -0.8953  0.2990
   20CHTO   O61 8133   6.153   2.161   2.655 -0.1655 -1.1259 -0.0257
   20CHTO   C95 8134   6.201   2.026   2.667 -0.1392  0.1203  0.0025
   20CHTO  H182 8135   6.243   1.994   2.571  0.0748 -1.5551  0.6562
   20CHTO  C106 8136   6.311   2.019   2.775 -0.4146 -0.3543  0.1561
   20CHTO   O69 8137   6.405   2.120   2.744  0.7543 -0.1362  0.2654
   20CHTO  H169 8138   6.460   2.135   2.818 -0.3236  0.2951  0.9920
   20CHTO   O63 8139   6.028   2.333   2.553  0.1943 -0.2094 -0.7458
   20CHTO   C96 8140   5.985   2.418   2.401  0.0223  0.1961 -0.0795
   20CHTO  H183 8141   5.923   2.351   2.342 -1.1349  2.0276 -0.9881
   20CHTO   C98 8142   6.119   2.464   2.316  0.1022 -0.2715 -0.3903
   20CHTO  H185 8143   6.192   2.520   2.377  1.1787 -2.0226 -0.0271
   20CHTO   O67 8144   6.191   2.344   2.279 -0.2496  0.3637  0.1006
   20CHTO  H167 8145   6.170   2.276   2.340 -2.8019  0.5460 -0.4943
   20CHTO  C102 8146   6.082   2.542   2.182  0.2381 -0.3112  0.1407
   20CHTO  H189 8147   6.009   2.480   2.129  0.1695 -0.8419  0.8446
   20CHTO   N18 8148   6.189   2.576   2.091  0.2401 -0.1899  0.4314
   20CHTO  H176 8149   6.185   2.679   2.059 -1.1199 -0.7424 -1.2487
   20CHTO  H177 8150   6.286   2.546   2.126  0.4382 -0.5941 -0.4536
   20CHTO  C105 8151   6.003   2.669   2.230  1.0647  0.4219 -0.3240
   20CHTO  H192 8152   6.067   2.734   2.290 -1.5576  1.8179  1.0655
   20CHTO   O65 8153   5.887   2.629   2.302 -0.0518  0.0977 -0.4630
   20CHTO  C100 8154   5.912   2.561   2.428  0.1294  0.2908  0.2654
   20CHTO  H187 8155   5.979   2.629   2.483 -0.6163  1.9902 -0.8991
   20CHTO  C107 8156   5.768   2.549   2.497  0.2481 -0.6122 -0.4729
   20CHTO   O70 8157   5.760   2.479   2.626 -0.2450  0.3054  0.4630
   20CHTO  H170 8158   5.674   2.452   2.653 -0.0824 -1.1756 -0.4244
   20CHTO   O57 8159   5.959   2.755   2.084 -0.3211  0.1051  0.2548
   20CHTO   C85 8160   5.865   2.865   2.077  0.2135 -0.0777 -0.3635
   20CHTO  H157 8161   5.824   2.891   2.177  1.8555  0.6430  0.1447
   20CHTO   C83 8162   5.736   2.826   1.995 -0.1755 -0.4717  0.7021
   20CHTO  H155 8163   5.689   2.750   2.057  0.5243 -0.8014  0.8295
   20CHTO   O56 8164   5.774   2.772   1.868 -0.3788  0.1338  0.0884
   20CHTO  H135 8165   5.695   2.755   1.819 -1.2390  1.7385  0.8819
   20CHTO   C81 8166   5.638   2.949   1.978 -0.2651 -0.1422 -0.5675
   20CHTO  H153 8167   5.606   2.985   2.076 -0.8034 -1.0941 -0.3881
   20CHTO   N14 8168   5.511   2.919   1.915  0.2281 -0.4280 -0.1406
   20CHTO  H141 8169   5.456   3.001   1.875  1.4794 -0.0583 -1.1013
   20CHTO  H142 8170   5.536   2.853   1.835 -0.4327 -0.4333 -0.3511
   20CHTO   C79 8171   5.722   3.063   1.907  0.0163  0.2146  0.2795
   20CHTO  H151 8172   5.657   3.150   1.904  1.3440  1.1867 -0.8877
   20CHTO   O52 8173   5.845   3.100   1.973 -0.4958  0.1912  0.2984
   20CHTO   C86 8174   5.935   2.992   2.015  0.7749 -0.2011  0.4741
   20CHTO  H158 8175   5.983   2.967   1.918  2.6821  1.3001  0.9779
   20CHTO   C90 8176   6.049   3.054   2.099  0.4730 -0.0951  0.0874
   20CHTO   O60 8177   6.145   2.954   2.144 -0.0209  0.0364  0.2659
   20CHTO  H138 8178   6.209   2.949   2.076 -0.6534  0.3796 -0.3525
   20CHTO   O50 8179   5.751   3.026   1.774  0.1726  0.4687  0.4199
   20CHTO   C73 8180   5.840   2.987   1.668 -0.0089 -0.2747  0.1990
   20CHTO  H145 8181   5.896   2.897   1.699 -1.0435 -1.3979 -1.1224
   20CHTO   C74 8182   5.953   3.094   1.647  0.0465  0.3028 -0.0636
   20CHTO  H146 8183   6.006   3.109   1.743 -0.3095  1.3871 -0.0275
   20CHTO   O54 8184   6.048   3.048   1.556 -0.0144  0.0959 -0.2532
   20CHTO  H133 8185   6.018   3.052   1.467  0.6333 -0.3652 -0.4969
   20CHTO   C75 8186   5.873   3.222   1.602 -0.0927 -0.5031 -0.3524
   20CHTO  H147 8187   5.813   3.252   1.688 -0.6313 -1.2258 -0.4674
   20CHTO   N13 8188   5.956   3.340   1.583 -0.3477  0.8440  0.4983
   20CHTO  H139 8189   5.968   3.383   1.681  0.0277  0.2332  0.7205
   20CHTO  H140 8190   5.918   3.406   1.506  0.4562  0.6865 -0.0449
   20CHTO   C76 8191   5.784   3.185   1.469 -0.2330  0.0465 -0.2880
   20CHTO  H148 8192   5.850   3.171   1.383  0.4297  1.3920 -0.0195
   20CHTO   O49 8193   5.701   3.077   1.489 -0.1926  0.6097  0.5193
   20CHTO   C77 8194   5.771   2.958   1.529  0.1388 -0.1449 -0.0774
   20CHTO  H149 8195   5.848   2.931   1.457  0.5245  0.5335  0.0747
   20CHTO   C88 8196   5.674   2.838   1.536 -0.2737  0.2778 -0.5873
   20CHTO   O58 8197   5.752   2.718   1.562  0.7202 -0.8786  0.2245
   20CHTO  H136 8198   5.774   2.667   1.486  0.6751 -0.6319  0.0478
   20CHTO   O51 8199   5.663   3.321   1.447 -0.3781 -0.6078  0.2082
   20CHTO   C78 8200   5.562   3.345   1.581 -0.1571  0.4802  0.0066
   20CHTO  H150 8201   5.607   3.307   1.675 -2.5774  3.0333  2.2553
   20CHTO   C80 8202   5.426   3.278   1.559 -0.2414  0.4312 -0.1597
   20CHTO  H152 8203   5.389   3.305   1.458 -0.7759 -0.9771 -0.3507
   20CHTO   O55 8204   5.452   3.141   1.549  0.0272 -0.4625  0.1984
   20CHTO  H134 8205   5.373   3.098   1.522 -0.3999  0.0418  0.6315
   20CHTO   C84 8206   5.328   3.318   1.677  0.9340 -0.1753  0.0921
   20CHTO  H156 8207   5.351   3.267   1.771  0.3810  0.4966  0.6022
   20CHTO   N15 8208   5.183   3.280   1.643  0.3688 -0.6815 -0.0757
   20CHTO  H143 8209   5.181   3.221   1.553  1.3836  1.1677 -1.3447
   20CHTO  H144 8210   5.125   3.230   1.718  0.8177 -2.1710 -0.7026
   20CHTO   C87 8211   5.342   3.469   1.717  0.3085  0.4726  0.0538
   20CHTO  H159 8212   5.295   3.522   1.635 -2.4561 -0.2009  1.1613
   20CHTO   O53 8213   5.477   3.508   1.721  0.2097 -0.1187 -0.1037
   20CHTO   C82 8214   5.538   3.495   1.595  0.4336 -0.1976 -0.3613
   20CHTO  H154 8215   5.471   3.540   1.521 -1.2478  0.1314  1.3156
   20CHTO   C89 8216   5.666   3.582   1.603  0.2461  0.1757 -0.2434
   20CHTO   O59 8217   5.638   3.724   1.589 -0.6966 -0.1576 -0.3888
   20CHTO  H137 8218   5.639   3.766   1.673  0.6168 -0.6582 -0.1351
   20CHTO   O45 8219   5.271   3.509   1.858 -0.4398 -0.7282  0.2802
   20CHTO   C67 8220   5.345   3.463   1.976  0.9694 -0.4845  0.3679
   20CHTO  H124 8221   5.392   3.368   1.950  2.6013 -0.0342  1.5784
   20CHTO   C65 8222   5.466   3.558   2.014  0.3800  0.5855  0.0794
   20CHTO  H122 8223   5.452   3.644   1.950 -0.6096 -0.9154 -1.7652
   20CHTO   O44 8224   5.588   3.492   1.980 -0.0681 -0.1771 -0.4821
   20CHTO  H102 8225   5.666   3.525   2.020 -1.1687  0.4610  1.1863
   20CHTO   C63 8226   5.458   3.616   2.159  0.2067  0.5563  0.2545
   20CHTO  H120 8227   5.364   3.672   2.168  0.4343  1.2008 -1.1205
   20CHTO   N11 8228   5.556   3.721   2.197  0.1006 -0.1315  0.1123
   20CHTO  H108 8229   5.501   3.813   2.193 -0.7905 -0.6780 -0.4403
   20CHTO  H109 8230   5.633   3.735   2.124 -0.6122 -1.5618 -0.9448
   20CHTO   C61 8231   5.429   3.507   2.266 -0.0815 -0.1402 -0.2540
   20CHTO  H118 8232   5.384   3.560   2.352 -0.1456 -0.5339 -0.0448
   20CHTO   O40 8233   5.335   3.414   2.227 -0.4689  0.0903 -0.1441
   20CHTO   C68 8234   5.259   3.433   2.103 -0.6182  0.0808 -1.1280
   20CHTO  H125 8235   5.195   3.522   2.120  0.2845  0.8330 -1.6657
   20CHTO   C72 8236   5.164   3.311   2.084  0.3257 -0.1499 -0.0324
   20CHTO   O48 8237   5.247   3.189   2.085  0.1397 -0.5822  0.0544
   20CHTO  H105 8238   5.289   3.169   2.004 -0.0199 -1.3126  0.1492
   20CHTO   O38 8239   5.547   3.435   2.308 -0.4462 -0.6319 -0.2084
   20CHTO   C55 8240   5.527   3.361   2.427 -0.1948  0.1996  0.4053
   20CHTO  H112 8241   5.423   3.329   2.444 -1.0164  2.1837 -0.6392
   20CHTO   C56 8242   5.587   3.431   2.556 -0.8717  0.1052  0.7430
   20CHTO  H113 8243   5.695   3.439   2.532 -1.2301  0.7325 -0.7627
   20CHTO   O42 8244   5.525   3.559   2.562 -0.0567  0.3576  0.2894
   20CHTO  H100 8245   5.575   3.619   2.511 -1.9439 -1.5381 -4.1637
   20CHTO   C57 8246   5.575   3.337   2.686 -0.3624 -0.4327 -0.5624
   20CHTO  H114 8247   5.471   3.308   2.700 -0.9519  1.9132  0.1611
   20CHTO   N10 8248   5.620   3.417   2.803  0.1168 -0.6742  0.0701
   20CHTO  H106 8249   5.666   3.340   2.863  0.1640  0.0317  0.9542
   20CHTO  H107 8250   5.533   3.453   2.855 -0.0480 -2.2214  0.9018
   20CHTO   C58 8251   5.654   3.211   2.657 -0.7368 -0.1608 -0.0449
   20CHTO  H115 8252   5.761   3.235   2.640 -0.8717  1.0890  0.8688
   20CHTO   O37 8253   5.608   3.151   2.534 -0.0827  0.3187 -0.2130
   20CHTO   C59 8254   5.601   3.229   2.414 -0.5814  0.5821  0.0420
   20CHTO  H116 8255   5.701   3.264   2.390  0.7595 -3.2977 -0.3980
   20CHTO   C70 8256   5.553   3.147   2.296  0.5918  0.1013  0.4264
   20CHTO   O46 8257   5.666   3.064   2.265 -0.3647  0.2511  0.0907
   20CHTO  H103 8258   5.630   2.988   2.223 -0.9303  1.7209 -2.1929
   20CHTO   O39 8259   5.628   3.104   2.773  0.4488  0.1851  0.4540
   20CHTO   C60 8260   5.712   2.986   2.791 -0.5716  0.5408 -0.4381
   20CHTO  H117 8261   5.772   2.972   2.701  0.8224  0.4893  0.4820
   20CHTO   C62 8262   5.813   3.009   2.902  0.0563 -0.4732  0.7763
   20CHTO  H119 8263   5.878   3.090   2.864 -0.2971  0.6366  2.4738
   20CHTO   O43 8264   5.749   3.051   3.021  0.0615  0.3139 -0.3806
   20CHTO  H101 8265   5.723   2.970   3.061  2.7696 -1.0843 -1.2863
   20CHTO   C66 8266   5.907   2.876   2.916  0.5229  0.7269 -0.2403
   20CHTO  H123 8267   5.977   2.867   2.833 -1.6106 -0.6368 -1.9484
   20CHTO   N12 8268   5.994   2.891   3.038  0.0697  1.1578  0.0826
   20CHTO  H110 8269   5.959   2.834   3.123  1.9078 -0.3409 -0.1429
   20CHTO  H111 8270   6.099   2.884   3.017 -0.1501 -1.8449 -0.1718
   20CHTO   C69 8271   5.817   2.752   2.933 -0.5223  0.1914  0.2812
   20CHTO  H126 8272   5.749   2.774   3.018 -1.2065  1.7850 -0.6405
   20CHTO   O41 8273   5.718   2.743   2.795 -0.1167 -0.0781 -0.4816
   20CHTO   C64 8274   5.628   2.856   2.802  0.3106  0.0823  0.1580
   20CHTO  H121 8275   5.578   2.845   2.901 -0.9577 -0.3864 -0.5242
   20CHTO   C71 8276   5.522   2.841   2.687 -0.5531  0.0251  0.3485
   20CHTO   O47 8277   5.456   2.714   2.676  0.4028  0.2695 -0.5513
   20CHTO  H104 8278   5.429   2.699   2.588  0.4784  1.2809 -0.7610
   20CHTO   O34 8279   5.883   2.611   2.954  0.3733  0.4421 -0.5141
   20CHTO   C49 8280   5.802   2.502   3.003  0.8276  0.3581  0.0727
   20CHTO   H91 8281   5.757   2.467   2.910  1.2884 -0.3537  0.1079
   20CHTO   C47 8282   5.691   2.537   3.102  0.1950  0.0859 -0.5800
   20CHTO   H89 8283   5.624   2.611   3.055 -0.7203 -0.4506 -0.1357
   20CHTO   O33 8284   5.750   2.604   3.217  0.0136 -0.2088  0.4825
   20CHTO   H70 8285   5.677   2.629   3.271 -0.4132 -1.6326  0.5819
   20CHTO   C45 8286   5.602   2.400   3.136  0.4091  0.2035 -0.2529
   20CHTO   H87 8287   5.612   2.397   3.245  0.3990 -0.2995 -0.2624
   20CHTO    N8 8288   5.455   2.424   3.108 -0.3193  0.3542  0.3955
   20CHTO   H75 8289   5.426   2.343   3.043  3.4459  0.1965 -1.2435
   20CHTO   H76 8290   5.398   2.431   3.200  0.6571 -2.1146  1.2161
   20CHTO   C43 8291   5.670   2.265   3.085  0.1140  0.0424 -0.3235
   20CHTO   H85 8292   5.623   2.185   3.143  2.0729  0.4964  1.9495
   20CHTO   O29 8293   5.808   2.271   3.114 -0.2152  0.1383  0.3039
   20CHTO   C50 8294   5.885   2.389   3.066 -0.3288 -0.0161  0.2844
   20CHTO   H92 8295   5.942   2.440   3.146  0.1367  1.5165 -0.9954
   20CHTO   C54 8296   5.991   2.331   2.969 -0.8797 -0.3610  0.0382
   20CHTO   O36 8297   5.942   2.262   2.855 -0.3433  0.1407 -0.2436
   20CHTO   H72 8298   5.977   2.310   2.782  1.2146  0.2878  0.5896
   20CHTO   O27 8299   5.655   2.234   2.947  0.8811 -0.5587 -0.4151
   20CHTO   C37 8300   5.560   2.181   2.849  0.3410  0.1185  1.0413
   20CHTO   H79 8301   5.459   2.186   2.893  1.1643 -1.8568  3.2243
   20CHTO   C38 8302   5.549   2.270   2.720 -0.1920 -0.4852  0.7196
   20CHTO   H80 8303   5.648   2.280   2.673 -0.2462 -1.6879  0.3303
   20CHTO   O31 8304   5.489   2.401   2.762 -0.3499 -0.3022  0.0736
   20CHTO   H68 8305   5.396   2.398   2.772 -0.1141 -0.4026  2.7312
   20CHTO   C39 8306   5.456   2.197   2.611 -0.1690 -0.4292  0.4846
   20CHTO   H81 8307   5.355   2.202   2.653 -0.2440 -0.2547  0.2800
   20CHTO    N7 8308   5.465   2.259   2.476  0.0260  0.3678 -0.2568
   20CHTO   H73 8309   5.434   2.362   2.490 -1.2826 -0.0740  0.1021
   20CHTO   H74 8310   5.392   2.223   2.405 -0.6126  1.3807 -0.1316
   20CHTO   C40 8311   5.492   2.042   2.612  0.0396 -0.4044  0.7119
   20CHTO   H82 8312   5.596   2.029   2.581 -0.4654 -1.1701 -0.7369
   20CHTO   O26 8313   5.473   1.996   2.747  0.0696 -0.4936  0.6115
   20CHTO   C41 8314   5.587   2.034   2.818 -0.5568  0.7864  0.2592
   20CHTO   H83 8315   5.682   2.025   2.764  0.4083  0.2073  2.0380
   20CHTO   C52 8316   5.584   1.950   2.952  0.2749 -0.2595  0.2935
   20CHTO   O35 8317   5.606   1.811   2.916  0.3548 -0.2503  0.4010
   20CHTO   H71 8318   5.667   1.775   2.978  1.0530 -0.5547 -0.4540
   20CHTO   O28 8319   5.407   1.960   2.528 -0.1765 -0.2627 -0.2618
   20CHTO   C42 8320   5.461   1.830   2.488  0.4116  0.0604 -0.4039
   20CHTO   H84 8321   5.383   1.780   2.431 -0.3930  0.3839  0.4023
   20CHTO   C44 8322   5.507   1.731   2.605  0.6522  0.1834  0.6899
   20CHTO   H86 8323   5.571   1.787   2.673  0.2330  1.7673 -0.1979
   20CHTO   O32 8324   5.388   1.705   2.679 -0.2153  0.0689 -0.6677
   20CHTO   H69 8325   5.346   1.787   2.697 -4.2043 -2.2932  1.3220
   20CHTO   C48 8326   5.568   1.592   2.555  0.4757  0.1372 -0.7082
   20CHTO   H90 8327   5.481   1.551   2.503  0.1315 -1.0889  0.7954
   20CHTO    N9 8328   5.615   1.488   2.645 -0.1116 -0.5307 -0.2286
   20CHTO   H77 8329   5.631   1.391   2.600  1.9304 -1.0805  1.5896
   20CHTO   H78 8330   5.548   1.473   2.729 -0.7606  0.3587 -0.5872
   20CHTO   C51 8331   5.682   1.626   2.448  0.7437  0.1749 -0.7222
   20CHTO   H93 8332   5.749   1.685   2.510 -0.2194  0.3756  0.1546
   20CHTO   O30 8333   5.624   1.698   2.339 -0.5363 -0.6705  0.2182
   20CHTO   C46 8334   5.581   1.848   2.392 -0.0634  0.0047 -0.1656
   20CHTO   H88 8335   5.665   1.889   2.449  0.0645 -2.5217  1.5209
   20CHTO   C53 8336   5.541   1.942   2.277  0.4632  0.0953 -0.4842
   20CHTO   O72 8337   5.649   1.981   2.190 -0.0335 -0.0007  0.7540
   20CHTO  H199 8338   5.699   2.047   2.234  0.5417  0.6446 -0.8056
   20CHTO   O22 8339   5.758   1.517   2.390  0.8999 -0.5282 -0.3998
   20CHTO   C31 8340   5.873   1.517   2.300 -0.0552  0.3933  0.2286
   20CHTO   H59 8341   5.828   1.504   2.200 -2.9460 -0.0208  1.5372
   20CHTO   C29 8342   5.965   1.640   2.300 -0.2904 -0.4991  0.0128
   20CHTO   H57 8343   5.997   1.655   2.405 -2.6704 -1.2981  0.8821
   20CHTO   O21 8344   5.880   1.750   2.261 -0.1146  0.3493  0.5616
   20CHTO   H37 8345   5.856   1.807   2.332  0.1085  0.6056  0.4332
   20CHTO   C27 8346   6.087   1.621   2.203 -0.1183 -0.2015  0.6535
   20CHTO   H55 8347   6.052   1.623   2.099  1.0211 -0.3271  0.2572
   20CHTO    N5 8348   6.186   1.727   2.216 -0.5756  0.5254 -0.0631
   20CHTO   H43 8349   6.165   1.805   2.287  1.5872 -0.2318  1.4503
   20CHTO   H44 8350   6.227   1.766   2.124 -1.2409  0.5364 -0.3647
   20CHTO   C25 8351   6.145   1.480   2.216  0.9090 -0.5799  0.1515
   20CHTO   H53 8352   6.199   1.467   2.311 -0.1949 -0.4298  0.8085
   20CHTO   O17 8353   6.050   1.372   2.219 -0.7515  0.5258  0.3642
   20CHTO   C32 8354   5.955   1.384   2.323 -0.0025  0.2047  0.4137
   20CHTO   H60 8355   6.009   1.393   2.417  0.5358 -0.4587  0.1668
   20CHTO   C36 8356   5.870   1.258   2.306  0.1608 -0.4140 -0.4328
   20CHTO   O25 8357   5.768   1.272   2.212 -0.2497  0.0259 -0.3301
   20CHTO   H40 8358   5.694   1.299   2.264 -1.3019  1.2484 -2.4150
   20CHTO   O15 8359   6.248   1.457   2.098 -0.3857  1.1339  0.3460
   20CHTO   C19 8360   6.394   1.420   2.079  0.5232  0.9632 -0.8429
   20CHTO   H47 8361   6.408   1.413   1.970  1.1893 -3.2884 -0.5674
   20CHTO   C20 8362   6.477   1.527   2.147 -0.8125 -0.6191 -0.5387
   20CHTO   H48 8363   6.445   1.549   2.250  0.3558 -1.7491  0.0771
   20CHTO   O19 8364   6.459   1.645   2.065 -0.3356 -0.0504 -0.8422
   20CHTO   H35 8365   6.511   1.634   1.988 -1.2460 -0.6374 -1.3797
   20CHTO   C21 8366   6.634   1.494   2.150  0.4312  0.2159  0.5453
   20CHTO   H49 8367   6.675   1.504   2.049  0.8745 -0.7467  0.6270
   20CHTO    N4 8368   6.708   1.599   2.227 -0.0873 -0.0717 -0.1971
   20CHTO   H41 8369   6.735   1.586   2.331  3.0486  2.9658 -0.5795
   20CHTO   H42 8370   6.792   1.638   2.173 -0.9484  1.1500 -0.6833
   20CHTO   C22 8371   6.654   1.350   2.196 -0.3244 -0.7143  0.7039
   20CHTO   H50 8372   6.622   1.349   2.300 -0.5736  0.2958  0.6388
   20CHTO   O14 8373   6.577   1.256   2.124 -0.1645 -0.6851  0.3081
   20CHTO   C23 8374   6.436   1.272   2.140 -0.2829 -0.7830  0.1546
   20CHTO   H51 8375   6.427   1.266   2.250  2.4324 -2.3125  0.3378
   20CHTO   C34 8376   6.363   1.164   2.077  0.0200  0.2834  0.2076
   20CHTO   O23 8377   6.379   1.035   2.132  0.3114 -0.2639  0.2408
   20CHTO   H38 8378   6.313   0.978   2.097  0.6995 -1.7394  1.8308
   20CHTO   O16 8379   6.791   1.315   2.181  0.1031  0.7494  0.0151
   20CHTO   C24 8380   6.823   1.141   2.172  0.5881 -0.0929 -0.1234
   20CHTO   H52 8381   6.735   1.085   2.141  0.0084  1.8746 -2.1504
   20CHTO   C26 8382   6.874   1.091   2.309  0.0134 -0.2614 -0.6660
   20CHTO   H54 8383   6.973   1.136   2.331 -0.2754  0.2647 -0.4431
   20CHTO   O20 8384   6.778   1.117   2.416 -0.4416 -0.4183  0.3421
   20CHTO   H36 8385   6.799   1.071   2.495  1.5551 -1.3149 -0.6666
   20CHTO   C30 8386   6.910   0.938   2.299 -0.0953  0.4868 -0.1844
   20CHTO   H58 8387   6.820   0.875   2.287  0.3077  0.5266 -4.0909
   20CHTO    N6 8388   6.976   0.886   2.426 -0.9061 -0.6685 -0.2723
   20CHTO   H45 8389   7.068   0.830   2.425 -1.0424 -0.9018  0.4170
   20CHTO   H46 8390   6.902   0.826   2.478 -1.5480 -0.1416 -0.5672
   20CHTO   C33 8391   6.998   0.899   2.170  0.2940 -0.1086 -1.3787
   20CHTO   H61 8392   7.103   0.917   2.194 -0.9336  2.2279  2.8118
   20CHTO   O18 8393   6.960   0.976   2.053  0.2452  0.0954  0.2041
   20CHTO   C28 8394   6.928   1.119   2.064 -0.5585  0.4162 -0.1618
   20CHTO   H56 8395   7.010   1.189   2.079 -2.1783  2.2752  0.4017
   20CHTO   C35 8396   6.869   1.161   1.922  0.0899  0.5003 -0.2004
   20CHTO   O24 8397   6.863   1.306   1.899  0.0348 -0.1613  0.6608
   20CHTO   H39 8398   6.806   1.327   1.827  0.4188 -0.2651  0.3312
   20CHTO    O9 8399   6.993   0.758   2.149 -0.0890  0.2849  0.5257
   20CHTO   C13 8400   6.883   0.693   2.048 -1.1941 -0.5554 -0.2748
   20CHTO   H26 8401   6.944   0.676   1.956 -0.5211 -1.8758  0.4021
   20CHTO   C11 8402   6.749   0.774   2.009  0.4025 -0.4425 -0.4046
   20CHTO   H24 8403   6.784   0.854   1.942  0.3909  0.9857  1.2470
   20CHTO    O8 8404   6.686   0.825   2.127 -0.7179  0.0456 -0.4522
   20CHTO    H3 8405   6.631   0.901   2.118 -0.2336  0.6301  1.3637
   20CHTO    C9 8406   6.656   0.676   1.934 -0.4122  0.5830  0.1317
   20CHTO   H22 8407   6.707   0.646   1.842  0.2158  0.0901  0.6366
   20CHTO    N2 8408   6.529   0.739   1.884 -0.6781 -0.4513 -0.0217
   20CHTO   H10 8409   6.548   0.840   1.849 -0.1451 -0.3194  0.6448
   20CHTO   H11 8410   6.454   0.747   1.961  0.4704  1.0740  0.9826
   20CHTO    C7 8411   6.618   0.549   2.015  0.2815 -0.2144 -0.0496
   20CHTO   H20 8412   6.570   0.485   1.938  0.9380  0.6379 -1.1791
   20CHTO    O4 8413   6.737   0.478   2.062  0.7845  0.7384  0.1342
   20CHTO   C14 8414   6.859   0.543   2.111  0.1526  0.5994  0.3585
   20CHTO   H27 8415   6.944   0.482   2.075 -0.4107 -0.5238  0.9083
   20CHTO   C18 8416   6.862   0.533   2.267  0.1729  0.6412  0.6195
   20CHTO   O13 8417   6.745   0.604   2.323  0.1093 -0.3407 -0.5464
   20CHTO    H7 8418   6.758   0.618   2.415 -0.2080  1.0706 -0.7180
   20CHTO    O2 8419   6.531   0.591   2.150  0.2615  0.3553  0.1878
   20CHTO    C1 8420   6.435   0.502   2.202  0.5677 -0.1358 -0.2704
   20CHTO   H14 8421   6.414   0.534   2.306  1.8971 -0.7058  0.1876
   20CHTO    C2 8422   6.477   0.356   2.207 -0.5196 -0.4279 -0.0236
   20CHTO   H15 8423   6.500   0.323   2.105  1.8246  0.5232  0.1665
   20CHTO    O6 8424   6.596   0.346   2.296 -0.7463  0.0261 -0.3201
   20CHTO    H1 8425   6.580   0.302   2.377  1.0032 -2.2581 -1.1415
   20CHTO    C3 8426   6.361   0.269   2.266 -0.3391  0.2112 -0.0658
   20CHTO   H16 8427   6.341   0.304   2.368 -0.0379 -0.5854  0.2696
   20CHTO    N1 8428   6.398   0.122   2.269  0.9054  0.4117 -0.1549
   20CHTO    H8 8429   6.322   0.046   2.283  1.8745 -0.2618  1.7322
   20CHTO    H9 8430   6.461   0.108   2.356  0.8511  0.8614 -0.0407
   20CHTO    C4 8431   6.225   0.300   2.185 -1.0266 -0.1336  0.0771
   20CHTO   H17 8432   6.225   0.254   2.086  0.4308 -0.4421  0.2145
   20CHTO    O1 8433   6.204   0.436   2.163  0.0560 -0.3932  0.1443
   20CHTO    C5 8434   6.307   0.526   2.123  0.1672  0.4032  0.3253
   20CHTO   H18 8435   6.329   0.517   2.016 -1.4847 -2.4736  0.2060
   20CHTO   C16 8436   6.246   0.673   2.148  0.1533 -0.3721  0.5155
   20CHTO   O11 8437   6.145   0.708   2.056 -0.2662  0.0251 -0.4219
   20CHTO    H5 8438   6.060   0.683   2.084  0.8377 -2.9191  0.5083
   20CHTO    O3 8439   6.113   0.236   2.262  0.1935  0.2853  0.0335
   20CHTO    C6 8440   5.989   0.231   2.188 -0.2877  0.6808  1.2085
   20CHTO   H19 8441   5.985   0.294   2.098  2.1800  1.1558  1.3954
   20CHTO    C8 8442   5.966   0.085   2.140  0.3619 -0.0479  0.2655
   20CHTO   H21 8443   5.988   0.020   2.224 -1.8082 -1.0323  0.1123
   20CHTO    O7 8444   6.061   0.061   2.035 -0.6022 -0.2752  0.5120
   20CHTO    H2 8445   6.144   0.063   2.077  1.3453  1.0269 -3.1735
   20CHTO   C12 8446   5.818   0.067   2.083 -1.0073  0.0152 -0.1950
   20CHTO   H25 8447   5.816   0.129   1.991 -1.5108 -0.6121 -0.6056
   20CHTO    N3 8448   5.795  -0.071   2.037 -0.6579 -0.1973 -0.0960
   20CHTO   H12 8449   5.693  -0.086   2.004 -0.4394 -0.5866 -0.5806
   20CHTO   H13 8450   5.817  -0.141   2.117 -1.0549  0.2524  0.4123
   20CHTO   C15 8451   5.713   0.128   2.182 -0.5807  0.0049 -0.3678
   20CHTO   H28 8452   5.707   0.073   2.276  0.4879  0.3700 -0.0781
   20CHTO   O10 8453   5.587   0.135   2.114  0.1909 -0.2548 -0.4336
   20CHTO    H4 8454   5.520   0.095   2.165 -0.9474  3.1779  0.8691
   20CHTO    O5 8455   5.740   0.266   2.208  0.2811 -0.3800 -0.0119
   20CHTO   C10 8456   5.868   0.275   2.274  0.2844 -0.4972  0.3382
   20CHTO   H23 8457   5.874   0.207   2.359  0.1185  0.7523  1.3592
   20CHTO   C17 8458   5.892   0.417   2.329 -0.2524  0.4500  0.0293
   20CHTO   O12 8459   5.998   0.435   2.428  0.4781 -0.3789 -0.4712
   20CHTO    H6 8460   5.966   0.434   2.516 -0.3854 -0.6233 -0.7879
   21GLOH   H03 8461   3.876   0.644   2.161 -0.7327 -0.5485  0.8728
   21GLOH    O1 8462   3.881   0.597   2.076 -0.5871  0.8871  0.0796
   21GLOH    C1 8463   3.987   0.509   2.073 -0.5794 -0.0641 -0.6513
   21GLOH   H02 8464   4.021   0.479   2.172  1.0082  0.7385 -0.9270
   21GLOH   H08 8465   4.079   0.552   2.031 -1.4522  0.7216 -1.7900
   21GLOH    C2 8466   3.967   0.377   1.993  0.2811 -0.0042  0.3940
   21GLOH   H04 8467   3.969   0.396   1.884  0.3365  1.7544  0.6780
   21GLOH    O2 8468   4.074   0.287   2.019 -0.3004  0.2384  0.6853
   21GLOH   H05 8469   4.151   0.334   1.982  0.8078 -1.4615  0.7864
   21GLOH    C3 8470   3.831   0.314   2.030 -0.4175  0.3378  0.4855
   21GLOH   H06 8471   3.812   0.299   2.136 -0.4573 -0.1048  0.4179
   21GLOH   H07 8472   3.833   0.214   1.986 -1.7185  0.0276  1.1169
   21GLOH    O3 8473   3.724   0.392   1.964  0.0932 -0.3645 -0.2618
   21GLOH   H01 8474   3.642   0.391   2.017 -1.1824  1.2005 -2.1436
   22GLOH   H03 8475   4.631   0.927   0.934  2.2776 -0.5469  0.6711
   22GLOH    O1 8476   4.628   1.023   0.949 -0.0336 -0.4381 -0.4235
   22GLOH    C1 8477   4.488   1.059   0.921  0.4577  0.2618 -0.2519
   22GLOH   H02 8478   4.440   1.051   1.018  0.2607 -1.4494 -0.4831
   22GLOH   H08 8479   4.440   0.983   0.861 -0.6360  0.1578  0.7457
   22GLOH    C2 8480   4.470   1.186   0.842 -0.3476 -0.2748 -0.1767
   22GLOH   H04 8481   4.493   1.175   0.735  0.3249  1.2767 -0.1960
   22GLOH    O2 8482   4.336   1.223   0.855 -0.8458  0.3354  0.3343
   22GLOH   H05 8483   4.292   1.231   0.768 -1.0035 -1.4929  0.2352
   22GLOH    C3 8484   4.555   1.301   0.904  0.0585  0.0754 -0.3963
   22GLOH   H06 8485   4.510   1.316   1.002 -1.8947 -0.9775 -1.1149
   22GLOH   H07 8486   4.537   1.393   0.847  0.5672  0.2924 -0.2108
   22GLOH    O3 8487   4.701   1.282   0.926  0.7705  0.2589  0.4085
   22GLOH   H01 8488   4.711   1.185   0.922  1.3699  0.3742 -1.0097
   23GLOH   H03 8489   2.778   5.253   0.941 -0.4382  0.5154 -0.6869
   23GLOH    O1 8490   2.787   5.345   0.972  0.1558  0.0129  0.6676
   23GLOH    C1 8491   2.786   5.423   0.850  0.0992 -0.0076 -0.0061
   23GLOH   H02 8492   2.734   5.374   0.768 -0.8382 -1.2136  1.2768
   23GLOH   H08 8493   2.886   5.442   0.811 -0.1183  1.2319  0.0054
   23GLOH    C2 8494   2.704   5.558   0.875 -0.4468  0.0897 -0.3929
   23GLOH   H04 8495   2.702   5.621   0.785 -0.3500  0.1709 -0.3385
   23GLOH    O2 8496   2.568   5.529   0.914 -0.4534 -0.1303 -0.0671
   23GLOH   H05 8497   2.524   5.479   0.842  0.7696 -2.2416  0.6173
   23GLOH    C3 8498   2.767   5.659   0.979 -0.4634  0.5628  0.0693
   23GLOH   H06 8499   2.746   5.621   1.079 -0.1819  2.0052  0.6972
   23GLOH   H07 8500   2.724   5.757   0.955 -1.4038  0.4326  1.1680
   23GLOH    O3 8501   2.917   5.666   0.978  0.1334  0.0905  0.3076
   23GLOH   H01 8502   2.941   5.671   0.883  1.6460  0.6109  0.7069
   24GLOH   H03 8503   4.815   2.157   0.461  0.8431 -0.7398  0.0552
   24GLOH    O1 8504   4.884   2.212   0.419  0.1659  0.2344  0.1919
   24GLOH    C1 8505   4.992   2.117   0.394 -0.0321 -0.6050  0.2180
   24GLOH   H02 8506   4.961   2.049   0.314 -2.4033 -0.8108  1.2811
   24GLOH   H08 8507   5.001   2.053   0.482  1.4404 -1.2743 -0.3951
   24GLOH    C2 8508   5.127   2.184   0.373  1.0802  0.2544 -0.1698
   24GLOH   H04 8509   5.122   2.279   0.429 -0.8524  0.4768 -0.6859
   24GLOH    O2 8510   5.235   2.105   0.432 -0.5686 -0.4998  0.5166
   24GLOH   H05 8511   5.231   2.014   0.397 -1.1370 -0.7478  1.1975
   24GLOH    C3 8512   5.158   2.205   0.223 -0.1039  0.3849 -0.1637
   24GLOH   H06 8513   5.187   2.107   0.185 -0.3566 -0.5011  1.8792
   24GLOH   H07 8514   5.247   2.266   0.216  0.3559 -0.1347  1.0203
   24GLOH    O3 8515   5.047   2.264   0.145 -0.3519 -0.3191  0.0213
   24GLOH   H01 8516   5.039   2.352   0.186  0.2402 -1.0731  1.8516
   25GLOH   H03 8517   3.343   1.061   1.270 -0.6678 -0.1497 -0.3259
   25GLOH    O1 8518   3.324   0.966   1.261 -0.5048 -0.2288  0.1276
   25GLOH    C1 8519   3.436   0.890   1.313  0.5049  0.2965 -0.1618
   25GLOH   H02 8520   3.406   0.788   1.290  0.3084  0.5261 -0.9379
   25GLOH   H08 8521   3.438   0.904   1.421 -0.6844  1.1080 -0.2371
   25GLOH    C2 8522   3.572   0.925   1.247  0.4622  0.4004  0.0015
   25GLOH   H04 8523   3.551   0.969   1.148  0.3136 -0.5859 -0.4045
   25GLOH    O2 8524   3.640   1.027   1.328 -0.3871 -0.4599  0.0718
   25GLOH   H05 8525   3.670   1.096   1.267  0.0967 -0.2275  0.5747
   25GLOH    C3 8526   3.653   0.798   1.235  0.5158 -0.4824  0.2722
   25GLOH   H06 8527   3.636   0.745   1.329  1.6608 -1.2789  0.0384
   25GLOH   H07 8528   3.757   0.831   1.228  0.5123 -0.0897  1.8971
   25GLOH    O3 8529   3.609   0.716   1.125 -0.0224  0.1866 -0.1934
   25GLOH   H01 8530   3.550   0.644   1.153  1.0588 -0.4048  0.6189
   26GLOH   H03 8531   4.123   3.235   2.176 -2.1008 -2.6377 -0.3882
   26GLOH    O1 8532   4.187   3.171   2.211  0.2759 -0.1602 -0.0483
   26GLOH    C1 8533   4.309   3.240   2.243  0.7627  0.2739 -0.4687
   26GLOH   H02 8534   4.288   3.341   2.278 -3.6100 -1.0181  1.0142
   26GLOH   H08 8535   4.379   3.250   2.160  1.2846 -1.4968 -0.2606
   26GLOH    C2 8536   4.386   3.170   2.356 -0.2059 -0.5243  0.6536
   26GLOH   H04 8537   4.419   3.073   2.317 -3.0622 -1.6099  0.7869
   26GLOH    O2 8538   4.507   3.242   2.393  0.0068  0.7004  0.1473
   26GLOH   H05 8539   4.572   3.179   2.431 -0.8300 -0.1907  0.1228
   26GLOH    C3 8540   4.292   3.144   2.473 -0.3268 -0.6901  0.3189
   26GLOH   H06 8541   4.340   3.105   2.562 -0.5529 -1.5554  0.0630
   26GLOH   H07 8542   4.217   3.068   2.451 -1.9984  0.4325  2.0087
   26GLOH    O3 8543   4.225   3.263   2.521 -0.1750  0.2545  0.8598
   26GLOH   H01 8544   4.133   3.273   2.490  0.7004 -0.4206 -2.0723
   27GLOH   H03 8545   3.308   5.454   1.370 -1.8712 -0.6794 -0.1339
   27GLOH    O1 8546   3.281   5.503   1.449 -0.5166  0.5807 -0.4338
   27GLOH    C1 8547   3.383   5.544   1.539  0.3949 -0.8780  0.7430
   27GLOH   H02 8548   3.479   5.537   1.487 -0.2181 -1.6458 -0.2875
   27GLOH   H08 8549   3.383   5.477   1.624  0.9294 -1.8558 -0.0135
   27GLOH    C2 8550   3.358   5.686   1.595  0.4417 -0.1004  0.1615
   27GLOH   H04 8551   3.325   5.765   1.526 -1.2409  0.1383  1.2185
   27GLOH    O2 8552   3.248   5.699   1.682 -0.3667 -0.1120  0.5644
   27GLOH   H05 8553   3.253   5.791   1.712 -2.3753  0.0535  0.4893
   27GLOH    C3 8554   3.487   5.740   1.653 -0.1754  0.7371  0.2284
   27GLOH   H06 8555   3.490   5.849   1.649  0.4643  0.6845 -0.8195
   27GLOH   H07 8556   3.572   5.708   1.593 -0.5815  1.4979 -0.7743
   27GLOH    O3 8557   3.508   5.690   1.790  0.0305  0.0741 -0.2961
   27GLOH   H01 8558   3.435   5.725   1.844 -0.0639 -0.6639  0.0576
   28GLOH   H03 8559   3.616   9.802   1.261 -0.7238  0.7013 -2.0946
   28GLOH    O1 8560   3.688   9.741   1.235 -0.3332  0.2224  0.0230
   28GLOH    C1 8561   3.784   9.797   1.135 -0.2043 -0.2265  0.1946
   28GLOH   H02 8562   3.750   9.762   1.038  0.6698  0.5337 -0.3904
   28GLOH   H08 8563   3.879   9.743   1.138  0.2259  0.5744  1.9394
   28GLOH    C2 8564   3.813   9.948   1.127  0.7636  0.9187 -0.2447
   28GLOH   H04 8565   3.721  10.000   1.096  0.7551  0.8013 -0.4137
   28GLOH    O2 8566   3.851  10.005   1.253 -0.1614  0.0941 -0.5013
   28GLOH   H05 8567   3.875  10.098   1.237 -1.2185  0.2835 -0.9987
   28GLOH    C3 8568   3.919   9.970   1.020 -0.5952 -0.7263 -0.1002
   28GLOH   H06 8569   4.017   9.932   1.047 -0.6082  0.2766  1.4142
   28GLOH   H07 8570   3.934  10.078   1.019  2.1209 -1.0378  2.0074
   28GLOH    O3 8571   3.875   9.935   0.890  0.4085 -0.2669 -0.0701
   28GLOH   H01 8572   3.813  10.001   0.854 -1.4730 -0.6230  2.4062
   29GLOH   H03 8573   1.956   1.858   0.671  0.1114  1.6024  1.2703
   29GLOH    O1 8574   1.985   1.920   0.601  0.3860 -0.1360 -0.1752
   29GLOH    C1 8575   2.115   1.980   0.626 -0.8010 -0.3318 -0.8768
   29GLOH   H02 8576   2.185   1.907   0.665 -2.0681  0.1320  2.3530
   29GLOH   H08 8577   2.109   2.050   0.709 -0.2871 -0.3913 -0.7878
   29GLOH    C2 8578   2.199   2.045   0.515  0.4309 -0.4289  0.4386
   29GLOH   H04 8579   2.231   1.969   0.442 -3.2028 -2.1195  0.4558
   29GLOH    O2 8580   2.103   2.124   0.439  0.2373  0.2636  0.0696
   29GLOH   H05 8581   2.047   2.174   0.500 -0.3840 -0.1907 -0.1255
   29GLOH    C3 8582   2.320   2.113   0.570  0.1938 -0.3433 -0.6939
   29GLOH   H06 8583   2.361   2.053   0.650 -1.3876 -0.9708 -0.3436
   29GLOH   H07 8584   2.277   2.196   0.627 -0.0503 -0.4947 -0.6571
   29GLOH    O3 8585   2.414   2.153   0.472 -0.1612  0.7948  0.4296
   29GLOH   H01 8586   2.405   2.095   0.394 -1.4846 -0.2853  1.3608
   30GLOH   H03 8587   2.358   4.991   1.533  0.8287 -0.2080 -1.1550
   30GLOH    O1 8588   2.406   5.010   1.616 -0.6951 -0.5115 -0.1945
   30GLOH    C1 8589   2.331   4.951   1.725  0.1900 -0.7808 -0.2558
   30GLOH   H02 8590   2.299   4.851   1.695  0.4805 -1.1048  0.5015
   30GLOH   H08 8591   2.243   5.013   1.745  1.5663  1.3586 -0.7029
   30GLOH    C2 8592   2.413   4.963   1.854  0.9701  0.0271 -0.6983
   30GLOH   H04 8593   2.414   5.071   1.872 -0.8047 -0.1722  0.7965
   30GLOH    O2 8594   2.348   4.890   1.960  0.2018  0.0003  0.3651
   30GLOH   H05 8595   2.403   4.891   2.039 -2.6472 -0.4495  2.4557
   30GLOH    C3 8596   2.557   4.902   1.837 -0.1137 -0.2169 -0.8023
   30GLOH   H06 8597   2.550   4.794   1.826  0.6238 -0.2370 -1.0804
   30GLOH   H07 8598   2.619   4.923   1.924 -1.5706  0.0178  0.1956
   30GLOH    O3 8599   2.623   4.964   1.726 -0.1672 -0.3972 -0.0722
   30GLOH   H01 8600   2.553   4.994   1.665  0.7466 -1.3334 -1.6125
   31GLOH   H03 8601   4.759   1.517   2.297 -1.0537  0.7266  1.2742
   31GLOH    O1 8602   4.854   1.524   2.314 -0.9347  0.3101  0.8132
   31GLOH    C1 8603   4.898   1.656   2.364 -0.1658  0.7936  0.0460
   31GLOH   H02 8604   4.869   1.664   2.469  2.5350 -0.1914  0.9176
   31GLOH   H08 8605   4.854   1.737   2.306 -1.7593 -0.9717 -1.2458
   31GLOH    C2 8606   5.052   1.678   2.371 -0.0234 -0.0540 -0.5038
   31GLOH   H04 8607   5.099   1.673   2.272  0.3055  0.3365 -0.3719
   31GLOH    O2 8608   5.058   1.814   2.418  0.5158 -0.4015  0.3358
   31GLOH   H05 8609   5.119   1.869   2.365  0.7045  0.3168  1.2854
   31GLOH    C3 8610   5.126   1.575   2.458 -0.2965  0.4194 -0.0574
   31GLOH   H06 8611   5.116   1.610   2.561  0.3045  1.2449 -0.2641
   31GLOH   H07 8612   5.232   1.584   2.433 -0.3952 -0.7111 -0.8829
   31GLOH    O3 8613   5.080   1.440   2.433 -0.2384  0.5733  0.4238
   31GLOH   H01 8614   5.009   1.438   2.366 -0.4753  0.1580  0.6871
   32GLOH   H03 8615   3.134   0.353   0.017 -0.3021 -0.0878 -0.8613
   32GLOH    O1 8616   3.137   0.449   0.036 -0.2019 -0.1607 -0.5016
   32GLOH    C1 8617   3.015   0.497   0.088 -0.0274 -0.0478  0.2604
   32GLOH   H02 8618   2.978   0.426   0.163  0.8423 -0.7856 -0.0005
   32GLOH   H08 8619   2.947   0.496   0.002  0.5035  2.9307 -0.2330
   32GLOH    C2 8620   3.001   0.640   0.148  0.1944  0.7226 -0.5793
   32GLOH   H04 8621   3.033   0.721   0.080  0.5293  0.1452 -1.1130
   32GLOH    O2 8622   2.859   0.681   0.154 -0.1476  0.5995  0.9744
   32GLOH   H05 8623   2.818   0.679   0.066  0.8794 -0.0115  0.5033
   32GLOH    C3 8624   3.080   0.666   0.278  0.5252 -0.2272  0.5145
   32GLOH   H06 8625   3.073   0.580   0.344  0.2367  0.1668  1.0051
   32GLOH   H07 8626   3.056   0.755   0.337  1.7320  0.7196 -0.4009
   32GLOH    O3 8627   3.225   0.676   0.247  0.0914 -0.5564 -0.4701
   32GLOH   H01 8628   3.260   0.585   0.236 -0.7766 -0.9478 -0.0424
   33GLOH   H03 8629   2.817   5.888   0.024 -1.2588 -0.5507 -1.5151
   33GLOH    O1 8630   2.877   5.823  -0.016  0.1638  0.0030 -0.3117
   33GLOH    C1 8631   2.926   5.743   0.094  0.1343 -0.3246  0.7816
   33GLOH   H02 8632   2.983   5.655   0.062  0.1426 -0.1630  0.3426
   33GLOH   H08 8633   2.835   5.714   0.146  0.7017  0.3378  2.1673
   33GLOH    C2 8634   3.012   5.829   0.194  0.3829 -0.5573  0.0302
   33GLOH   H04 8635   2.951   5.904   0.244  0.6935  0.1173 -0.5925
   33GLOH    O2 8636   3.074   5.760   0.299 -0.0574  0.5365 -0.2555
   33GLOH   H05 8637   3.153   5.722   0.258  0.0111  0.2661  0.1256
   33GLOH    C3 8638   3.119   5.901   0.106 -0.0295  0.7993 -0.3318
   33GLOH   H06 8639   3.187   5.957   0.170 -1.9584 -0.1031  2.5859
   33GLOH   H07 8640   3.072   5.976   0.043 -0.8830  1.0654  0.6144
   33GLOH    O3 8641   3.194   5.812   0.019  0.1754  0.9744  0.4712
   33GLOH   H01 8642   3.245   5.753   0.079  1.8699 -1.4728 -3.1917
   34GLOH   H03 8643   3.667   0.394   0.916 -0.5279  0.2386 -1.5825
   34GLOH    O1 8644   3.641   0.300   0.916  0.5617 -0.0789 -0.0578
   34GLOH    C1 8645   3.513   0.275   0.975  0.2256 -0.1273 -0.0124
   34GLOH   H02 8646   3.498   0.335   1.065 -0.7226  0.3354 -0.4805
   34GLOH   H08 8647   3.503   0.172   1.010 -1.0462 -0.0960 -0.2604
   34GLOH    C2 8648   3.394   0.295   0.880  0.0179  0.5249 -0.5315
   34GLOH   H04 8649   3.407   0.217   0.803  1.5362  0.6573 -0.4332
   34GLOH    O2 8650   3.268   0.275   0.942  0.0568  0.3969  0.2896
   34GLOH   H05 8651   3.216   0.230   0.873 -1.3598  1.7358  0.4677
   34GLOH    C3 8652   3.398   0.431   0.812 -0.5260 -0.8646 -0.2248
   34GLOH   H06 8653   3.418   0.512   0.882  1.6091 -1.8978  0.4116
   34GLOH   H07 8654   3.304   0.458   0.765 -0.5542  0.0742  0.3448
   34GLOH    O3 8655   3.505   0.416   0.717 -0.0921 -0.2240 -0.5841
   34GLOH   H01 8656   3.469   0.382   0.633 -0.6000  0.9198 -0.8365
   35GLOH   H03 8657   2.725   5.163   1.381 -0.0002  2.1274  0.0292
   35GLOH    O1 8658   2.821   5.146   1.384 -0.3393 -0.0793 -0.4059
   35GLOH    C1 8659   2.863   5.257   1.471 -0.1149 -0.2092  0.8525
   35GLOH   H02 8660   2.878   5.224   1.574  1.3738 -0.6310  0.5138
   35GLOH   H08 8661   2.789   5.337   1.476 -0.8032 -0.8947  1.8911
   35GLOH    C2 8662   3.006   5.310   1.433 -0.6683  0.4432 -0.1531
   35GLOH   H04 8663   3.014   5.324   1.324  0.4357 -1.1832 -0.2870
   35GLOH    O2 8664   3.024   5.435   1.502  0.2061  0.1725  0.5843
   35GLOH   H05 8665   3.107   5.474   1.470  0.6049 -2.3644 -1.7006
   35GLOH    C3 8666   3.108   5.204   1.486 -0.3731  0.3791  0.7323
   35GLOH   H06 8667   3.097   5.207   1.595 -0.6954 -0.4363  0.7275
   35GLOH   H07 8668   3.211   5.230   1.461 -0.0530 -1.2292  0.3730
   35GLOH    O3 8669   3.090   5.072   1.435 -0.2570 -0.0119 -0.0594
   35GLOH   H01 8670   3.019   5.042   1.495 -0.2782  1.2663  0.5628
   36GLOH   H03 8671   3.574   7.559   2.644 -0.0012  0.4048  0.3377
   36GLOH    O1 8672   3.482   7.543   2.616  0.0743 -0.0023  0.3239
   36GLOH    C1 8673   3.450   7.417   2.674 -0.1124 -0.3739  0.0294
   36GLOH   H02 8674   3.441   7.429   2.782 -0.3518  0.7099 -0.1007
   36GLOH   H08 8675   3.527   7.344   2.650 -0.0965 -0.1303 -0.6977
   36GLOH    C2 8676   3.318   7.364   2.616  0.0609  0.8182 -0.4735
   36GLOH   H04 8677   3.330   7.333   2.511 -1.3645  2.4213 -1.1473
   36GLOH    O2 8678   3.282   7.247   2.692 -0.0333  0.4075 -0.4400
   36GLOH   H05 8679   3.201   7.214   2.649 -0.4276 -0.6980  1.1385
   36GLOH    C3 8680   3.211   7.476   2.618  0.2369  0.3395 -0.5120
   36GLOH   H06 8681   3.179   7.505   2.719 -1.3234 -1.3220 -0.5066
   36GLOH   H07 8682   3.120   7.431   2.579  1.0408 -1.2349 -0.5947
   36GLOH    O3 8683   3.242   7.590   2.538  0.5298 -0.3138  0.1962
   36GLOH   H01 8684   3.330   7.622   2.567  0.5561 -0.3386  0.1444
   37GLOH   H03 8685   4.718   3.825   2.034 -0.6166 -3.1205 -0.7750
   37GLOH    O1 8686   4.813   3.801   2.031 -0.0048 -0.8083 -0.3245
   37GLOH    C1 8687   4.859   3.777   1.897 -0.3307  0.1655 -0.7760
   37GLOH   H02 8688   4.959   3.819   1.890 -0.3369  1.3379  4.2250
   37GLOH   H08 8689   4.796   3.828   1.824 -0.1255 -0.7332 -1.5932
   37GLOH    C2 8690   4.863   3.628   1.859 -0.0974 -0.2926 -0.2342
   37GLOH   H04 8691   4.767   3.580   1.883  0.6000 -2.1685 -1.1441
   37GLOH    O2 8692   4.897   3.602   1.726 -0.1799 -0.2537 -0.4616
   37GLOH   H05 8693   4.833   3.543   1.682 -0.5266 -0.2847  0.0934
   37GLOH    C3 8694   4.973   3.564   1.943  0.3517 -0.0221  0.7271
   37GLOH   H06 8695   5.050   3.641   1.949  0.0163  0.3918 -0.2389
   37GLOH   H07 8696   5.015   3.479   1.890  1.3849  1.4132 -0.8004
   37GLOH    O3 8697   4.926   3.543   2.078  0.2525 -0.4862  0.0411
   37GLOH   H01 8698   4.906   3.632   2.110  1.7956  0.7611 -2.3048
   38GLOH   H03 8699   2.739   6.793   2.192 -0.8249  2.0995 -0.4912
   38GLOH    O1 8700   2.814   6.779   2.131 -0.6902 -0.6895  0.2735
   38GLOH    C1 8701   2.875   6.652   2.148 -0.0796 -0.3228  0.7521
   38GLOH   H02 8702   2.881   6.630   2.255 -0.8696 -2.3433  0.4048
   38GLOH   H08 8703   2.981   6.662   2.126 -0.2848  0.8234  0.2814
   38GLOH    C2 8704   2.807   6.542   2.065  0.0765 -0.1068  0.1473
   38GLOH   H04 8705   2.777   6.586   1.969  0.1589  0.4299  0.3634
   38GLOH    O2 8706   2.893   6.423   2.054 -0.3017  0.1064 -0.0488
   38GLOH   H05 8707   2.981   6.446   2.020 -0.8882  0.6247 -1.2550
   38GLOH    C3 8708   2.670   6.502   2.123 -0.1297 -0.2591 -0.2749
   38GLOH   H06 8709   2.600   6.585   2.124 -0.6286 -0.6989  1.3573
   38GLOH   H07 8710   2.670   6.473   2.228 -0.7430 -0.3030 -0.2897
   38GLOH    O3 8711   2.608   6.396   2.049 -0.2618  0.0126  0.0461
   38GLOH   H01 8712   2.573   6.438   1.968  2.3004  1.0283 -0.5972
   39GLOH   H03 8713   2.250   5.362   0.365  0.2606 -1.1403  0.2849
   39GLOH    O1 8714   2.347   5.370   0.378  0.2241 -0.5546  0.1688
   39GLOH    C1 8715   2.416   5.350   0.254 -0.0832 -0.1336 -0.0208
   39GLOH   H02 8716   2.522   5.374   0.262  0.0301 -0.2033 -1.2162
   39GLOH   H08 8717   2.382   5.419   0.178  0.2566 -0.4185 -0.4354
   39GLOH    C2 8718   2.393   5.216   0.189  0.3453  0.3788  0.4394
   39GLOH   H04 8719   2.289   5.195   0.159  0.6274  0.5879 -0.7328
   39GLOH    O2 8720   2.478   5.217   0.071  0.8971  0.0852  0.0070
   39GLOH   H05 8721   2.567   5.180   0.086  1.8909  2.0149 -1.0164
   39GLOH    C3 8722   2.432   5.103   0.280  0.5740  0.1587  0.4117
   39GLOH   H06 8723   2.528   5.118   0.329  0.8940 -2.2581  0.5976
   39GLOH   H07 8724   2.434   5.017   0.214  3.4769  0.3537  0.2167
   39GLOH    O3 8725   2.335   5.067   0.387  0.1437  0.0359 -0.0179
   39GLOH   H01 8726   2.339   5.135   0.457 -0.1452 -0.8135  0.8328
   40GLOH   H03 8727   4.086   0.425   1.032 -1.6699  0.4226  0.7215
   40GLOH    O1 8728   4.135   0.372   1.097  0.1709  0.2791 -0.7259
   40GLOH    C1 8729   4.276   0.412   1.108  0.1802 -0.4168 -0.0231
   40GLOH   H02 8730   4.335   0.352   1.177  0.3987  0.3209  0.4445
   40GLOH   H08 8731   4.287   0.512   1.151  1.7126 -1.1060  1.2228
   40GLOH    C2 8732   4.342   0.406   0.968 -0.1403 -0.2219 -0.0084
   40GLOH   H04 8733   4.273   0.455   0.897  1.4839 -0.3172 -1.6864
   40GLOH    O2 8734   4.468   0.466   0.961 -0.5073 -0.1908 -0.3038
   40GLOH   H05 8735   4.460   0.562   0.974 -1.9574 -0.3451  0.0312
   40GLOH    C3 8736   4.356   0.256   0.924  0.4551  0.2732 -0.3626
   40GLOH   H06 8737   4.420   0.207   0.997 -0.4792 -0.0004  0.2845
   40GLOH   H07 8738   4.402   0.242   0.826  1.0847  1.8182 -0.2963
   40GLOH    O3 8739   4.225   0.197   0.924  0.4001 -0.5492  0.8408
   40GLOH   H01 8740   4.167   0.232   0.994 -0.8226 -4.0862  1.6816
   41GLOH   H03 8741   2.253   9.593   1.024  2.0113  0.6630 -0.1987
   41GLOH    O1 8742   2.251   9.666   1.088 -0.5768  0.2074  0.2829
   41GLOH    C1 8743   2.314   9.623   1.213  0.1846 -0.0730 -0.1333
   41GLOH   H02 8744   2.389   9.551   1.182  0.3218 -0.0121  0.0612
   41GLOH   H08 8745   2.234   9.580   1.273  0.5260  0.9524  1.0550
   41GLOH    C2 8746   2.385   9.733   1.289 -0.7444 -0.1509  0.2257
   41GLOH   H04 8747   2.477   9.768   1.240 -0.7194  1.0207  1.0820
   41GLOH    O2 8748   2.301   9.843   1.305  0.3602 -0.1076 -0.1536
   41GLOH   H05 8749   2.248   9.870   1.228  2.2063 -0.5675 -1.6374
   41GLOH    C3 8750   2.438   9.706   1.425  0.1075 -0.2594  0.1077
   41GLOH   H06 8751   2.481   9.606   1.421 -1.0983 -0.7316 -1.5525
   41GLOH   H07 8752   2.362   9.699   1.503  1.2434 -1.1483  1.1554
   41GLOH    O3 8753   2.545   9.796   1.456 -0.1338 -0.6208 -0.6531
   41GLOH   H01 8754   2.508   9.885   1.472  0.9076 -0.6628  2.3053
   42GLOH   H03 8755   3.404   8.119   0.965 -1.1709 -1.1718  1.6517
   42GLOH    O1 8756   3.478   8.073   1.009  0.6893 -0.3109 -0.4321
   42GLOH    C1 8757   3.599   8.148   0.995  0.1056 -0.4372 -0.2771
   42GLOH   H02 8758   3.606   8.232   1.064  2.4104 -0.0802 -0.9281
   42GLOH   H08 8759   3.592   8.200   0.900  0.2693  2.0475  1.0353
   42GLOH    C2 8760   3.727   8.063   1.002  0.3593  0.2018  0.0584
   42GLOH   H04 8761   3.709   7.984   0.929  1.9046  1.1711 -1.4097
   42GLOH    O2 8762   3.847   8.148   0.971  0.4623  0.4310 -0.7162
   42GLOH   H05 8763   3.874   8.130   0.879 -1.5542 -2.5973 -0.8049
   42GLOH    C3 8764   3.737   7.994   1.145 -0.3309 -0.7939 -0.4434
   42GLOH   H06 8765   3.775   8.066   1.217 -1.4569 -2.6379  2.0604
   42GLOH   H07 8766   3.818   7.920   1.143  0.0717 -0.3433 -0.8687
   42GLOH    O3 8767   3.619   7.940   1.206  0.2961  0.2363 -0.9143
   42GLOH   H01 8768   3.543   7.964   1.149 -0.2922 -0.9297 -0.6288
   43GLOH   H03 8769   4.334   1.352   2.326  0.4453  1.7447 -2.1983
   43GLOH    O1 8770   4.419   1.316   2.294  0.4007 -0.1065 -0.3991
   43GLOH    C1 8771   4.406   1.321   2.149 -0.2597  0.3594  0.1913
   43GLOH   H02 8772   4.329   1.391   2.116 -2.1555 -1.0534  1.5326
   43GLOH   H08 8773   4.371   1.222   2.121 -0.3310  0.7529 -1.1633
   43GLOH    C2 8774   4.532   1.379   2.081 -0.5267 -0.6040  0.4144
   43GLOH   H04 8775   4.601   1.294   2.074 -2.1054 -1.7872 -1.2658
   43GLOH    O2 8776   4.500   1.415   1.947 -0.0517  0.0876  0.0139
   43GLOH   H05 8777   4.406   1.436   1.934  0.7806  1.9665 -3.5097
   43GLOH    C3 8778   4.586   1.503   2.159 -0.5982  0.7054 -0.7578
   43GLOH   H06 8779   4.508   1.579   2.152 -0.0134  1.3219 -0.5746
   43GLOH   H07 8780   4.675   1.549   2.116  0.4366  0.1326  0.7273
   43GLOH    O3 8781   4.612   1.470   2.293  0.2106  0.3526  0.0162
   43GLOH   H01 8782   4.549   1.401   2.320 -2.3040  2.2028 -0.9240
   44GLOH   H03 8783   3.200   5.062   1.893  0.0279 -0.0494 -0.5234
   44GLOH    O1 8784   3.230   4.969   1.893  0.3066  0.0418 -0.1640
   44GLOH    C1 8785   3.331   4.950   1.795  0.9293  0.0238 -0.5154
   44GLOH   H02 8786   3.417   5.010   1.826 -1.3813  1.9644  2.3797
   44GLOH   H08 8787   3.305   4.987   1.695 -2.9254  1.4774  0.9559
   44GLOH    C2 8788   3.367   4.803   1.777  0.2032 -0.2600  0.6499
   44GLOH   H04 8789   3.275   4.743   1.766 -0.8907  1.7450 -1.6835
   44GLOH    O2 8790   3.443   4.795   1.653 -0.0424 -0.2935  0.3060
   44GLOH   H05 8791   3.410   4.861   1.589  2.2364  0.1197 -0.5236
   44GLOH    C3 8792   3.441   4.749   1.898 -0.3938  0.2776 -0.2749
   44GLOH   H06 8793   3.388   4.797   1.980 -0.5954 -0.6225  0.1243
   44GLOH   H07 8794   3.541   4.791   1.888 -0.5047  0.6618  0.2068
   44GLOH    O3 8795   3.449   4.607   1.910  0.5351  0.0793  0.0935
   44GLOH   H01 8796   3.468   4.571   1.822  0.0540 -1.5437  0.6265
   45GLOH   H03 8797   1.723   3.333   0.913 -0.3639 -0.7075 -0.4159
   45GLOH    O1 8798   1.765   3.356   0.828 -0.3645  0.2710 -0.1670
   45GLOH    C1 8799   1.907   3.334   0.859  0.0967 -0.2043  0.4626
   45GLOH   H02 8800   1.941   3.422   0.914  1.9798  0.5132 -1.8109
   45GLOH   H08 8801   1.971   3.339   0.771  1.1382 -0.3577  1.1940
   45GLOH    C2 8802   1.922   3.202   0.939 -0.1552  0.2378 -0.3795
   45GLOH   H04 8803   1.898   3.124   0.865  1.6322 -0.3675 -0.3400
   45GLOH    O2 8804   2.061   3.187   0.966  0.7270 -0.4353  0.0683
   45GLOH   H05 8805   2.076   3.097   0.999  3.3071 -0.0567 -0.0052
   45GLOH    C3 8806   1.833   3.195   1.060  0.0242  0.4144 -0.2462
   45GLOH   H06 8807   1.882   3.268   1.124  2.8583 -0.3973 -1.3925
   45GLOH   H07 8808   1.844   3.096   1.103  1.7824  0.0500 -1.4588
   45GLOH    O3 8809   1.699   3.220   1.022 -0.0738 -0.3065 -0.1870
   45GLOH   H01 8810   1.653   3.202   1.106  0.5054  1.3470  0.5126
   46GLOH   H03 8811   3.770   0.312   0.442  1.1835  0.2710  1.0109
   46GLOH    O1 8812   3.707   0.239   0.458  0.0298  1.0673  0.2495
   46GLOH    C1 8813   3.768   0.112   0.485  0.6873  0.1878  0.1476
   46GLOH   H02 8814   3.854   0.116   0.553  0.2385  0.1777  0.7231
   46GLOH   H08 8815   3.797   0.060   0.394  0.1247 -0.8920  0.5785
   46GLOH    C2 8816   3.664   0.022   0.556 -0.4352 -0.9234  0.2184
   46GLOH   H04 8817   3.571   0.013   0.497 -0.1217 -0.8957 -0.2857
   46GLOH    O2 8818   3.718  -0.111   0.578  0.0555 -0.4073  0.2463
   46GLOH   H05 8819   3.651  -0.172   0.542 -1.6277  2.3183 -1.4562
   46GLOH    C3 8820   3.614   0.083   0.690  0.1662  1.1981  0.2326
   46GLOH   H06 8821   3.529   0.027   0.729 -1.2343  2.3089 -1.2105
   46GLOH   H07 8822   3.569   0.175   0.653 -1.1654  0.2912 -0.4608
   46GLOH    O3 8823   3.713   0.105   0.791 -0.1509 -0.0333  0.5229
   46GLOH   H01 8824   3.697   0.192   0.831 -0.4925 -0.6766  1.8052
   47GLOH   H03 8825   2.947   7.500   1.716 -1.2565 -0.1809  0.1311
   47GLOH    O1 8826   2.924   7.426   1.657 -0.7349 -0.3226  0.1083
   47GLOH    C1 8827   2.816   7.471   1.571  0.1004 -0.6331 -1.0835
   47GLOH   H02 8828   2.809   7.580   1.569  0.8918 -0.4975  1.3607
   47GLOH   H08 8829   2.723   7.429   1.610  0.9378 -2.2945 -0.8404
   47GLOH    C2 8830   2.820   7.413   1.427 -0.1855 -0.1693 -0.6930
   47GLOH   H04 8831   2.793   7.306   1.432  2.0027 -0.7215  0.1612
   47GLOH    O2 8832   2.722   7.483   1.350 -0.0583  0.0246  0.1702
   47GLOH   H05 8833   2.659   7.420   1.313 -0.1130 -0.6979  1.4570
   47GLOH    C3 8834   2.957   7.412   1.357 -0.2044  0.4249  0.2392
   47GLOH   H06 8835   3.031   7.379   1.430 -0.6251 -2.4955 -0.5770
   47GLOH   H07 8836   2.972   7.516   1.328 -1.2328 -0.4484 -3.5859
   47GLOH    O3 8837   2.944   7.327   1.237  0.0685 -0.9270 -0.3338
   47GLOH   H01 8838   2.892   7.376   1.171  1.6241  0.3696 -0.6398
   48GLOH   H03 8839   3.018   9.768   1.078 -0.4137  1.0771  0.1781
   48GLOH    O1 8840   3.076   9.825   1.023  0.2380  0.2232 -0.0436
   48GLOH    C1 8841   3.149   9.898   1.119  0.2179 -0.5550 -0.1823
   48GLOH   H02 8842   3.195   9.839   1.200  0.2289  1.2387  1.1428
   48GLOH   H08 8843   3.090   9.975   1.169 -0.7166 -2.0992  1.1508
   48GLOH    C2 8844   3.268   9.966   1.051 -0.0397 -0.1281 -0.1700
   48GLOH   H04 8845   3.220  10.044   0.989  0.3176 -0.2579 -0.6079
   48GLOH    O2 8846   3.350  10.024   1.153  0.2837 -0.5435  0.0379
   48GLOH   H05 8847   3.320  10.116   1.159  2.1237  0.0260  0.9690
   48GLOH    C3 8848   3.359   9.870   0.974  0.2457  0.2973  0.7943
   48GLOH   H06 8849   3.402   9.808   1.053 -2.7090  0.5899  2.6846
   48GLOH   H07 8850   3.431   9.931   0.920 -0.4466  1.4698  1.1839
   48GLOH    O3 8851   3.293   9.789   0.880  0.0875  0.0944 -0.6917
   48GLOH   H01 8852   3.201   9.782   0.911  0.9206 -0.1910  1.8211
   49GLOH   H03 8853   5.487   3.056   1.130  0.2468 -0.4000  0.2267
   49GLOH    O1 8854   5.551   3.027   1.063 -0.0839 -0.5069 -0.0415
   49GLOH    C1 8855   5.658   3.126   1.068 -0.3894 -0.0635 -0.3310
   49GLOH   H02 8856   5.737   3.097   0.998 -1.1696 -4.0041  0.3211
   49GLOH   H08 8857   5.697   3.125   1.169 -0.0225  0.0388 -0.4698
   49GLOH    C2 8858   5.595   3.263   1.037 -0.3970 -0.1898  0.7740
   49GLOH   H04 8859   5.510   3.249   0.970  0.9255  0.4889 -1.0784
   49GLOH    O2 8860   5.556   3.328   1.155  0.4055  0.9002 -0.3634
   49GLOH   H05 8861   5.476   3.288   1.193  1.0535 -0.1490 -0.0938
   49GLOH    C3 8862   5.693   3.346   0.955  0.1949 -1.0811 -0.7394
   49GLOH   H06 8863   5.791   3.345   1.003  1.5865  0.5064 -3.4681
   49GLOH   H07 8864   5.665   3.450   0.967 -2.9153 -1.7305 -1.7320
   49GLOH    O3 8865   5.703   3.306   0.823 -0.0616 -0.0163  0.1722
   49GLOH   H01 8866   5.614   3.319   0.785 -0.8563 -0.3217  1.8843
   50GLOH   H03 8867   3.613   5.482   0.711  0.6512  0.2760 -0.4194
   50GLOH    O1 8868   3.611   5.571   0.751 -0.1102  0.1460 -0.1559
   50GLOH    C1 8869   3.727   5.589   0.836  0.4204 -0.5601  0.6057
   50GLOH   H02 8870   3.716   5.690   0.874  0.7339  0.0941 -0.9719
   50GLOH   H08 8871   3.819   5.578   0.778  0.7497  3.0133  0.3361
   50GLOH    C2 8872   3.721   5.490   0.949  0.2763  0.1190 -0.3869
   50GLOH   H04 8873   3.726   5.386   0.914 -0.5942 -0.3238  0.7766
   50GLOH    O2 8874   3.820   5.519   1.049 -0.0308  0.0916 -0.3320
   50GLOH   H05 8875   3.862   5.435   1.076 -0.8844 -0.2027  0.0868
   50GLOH    C3 8876   3.579   5.513   1.013 -0.6095  0.2783  0.4587
   50GLOH   H06 8877   3.504   5.483   0.940 -0.4089  2.7738 -0.8310
   50GLOH   H07 8878   3.559   5.618   1.033  1.0138  0.3033  2.1003
   50GLOH    O3 8879   3.565   5.425   1.127 -0.0753 -0.1650 -0.5557
   50GLOH   H01 8880   3.644   5.442   1.181 -0.7431 -0.1959  0.4378
   51GLOH   H03 8881   4.125   5.145   1.598 -0.5678  1.1749 -2.6208
   51GLOH    O1 8882   4.179   5.071   1.566 -0.1155  0.4307 -0.2337
   51GLOH    C1 8883   4.223   5.097   1.430 -0.5244 -0.0313 -0.5571
   51GLOH   H02 8884   4.241   5.000   1.385 -0.7539 -0.3536  0.0463
   51GLOH   H08 8885   4.322   5.142   1.423 -1.3357  1.8838  0.0626
   51GLOH    C2 8886   4.110   5.173   1.354  0.8766 -0.1749  0.2731
   51GLOH   H04 8887   4.082   5.267   1.403 -0.6092 -0.9250  0.8993
   51GLOH    O2 8888   4.161   5.192   1.226  0.2150 -0.4413  0.7178
   51GLOH   H05 8889   4.085   5.211   1.168  0.1009  0.1577  1.0650
   51GLOH    C3 8890   3.987   5.081   1.349  0.0914  0.4601 -0.0420
   51GLOH   H06 8891   3.978   5.043   1.451  0.1577  1.3991  0.3189
   51GLOH   H07 8892   4.007   4.989   1.293  1.2698  0.1014  0.9442
   51GLOH    O3 8893   3.863   5.140   1.316  0.0245 -0.2021  0.5786
   51GLOH   H01 8894   3.790   5.076   1.325 -0.4201  0.0154 -1.2179
   52GLOH   H03 8895   2.639   7.867   0.607  0.2387 -0.9024  1.1458
   52GLOH    O1 8896   2.546   7.884   0.583  0.3283 -0.5179  1.0557
   52GLOH    C1 8897   2.529   7.897   0.444  1.1935  0.5641  0.6388
   52GLOH   H02 8898   2.598   7.974   0.409 -0.4135  1.6645 -0.1874
   52GLOH   H08 8899   2.436   7.947   0.418  0.5141 -1.0501 -0.0837
   52GLOH    C2 8900   2.546   7.760   0.369 -0.2795 -0.3414  0.1093
   52GLOH   H04 8901   2.511   7.773   0.266 -0.4809  0.8756  0.3265
   52GLOH    O2 8902   2.689   7.731   0.384 -0.6238  0.1259  0.7050
   52GLOH   H05 8903   2.718   7.643   0.354  3.9686  1.8585 -0.3138
   52GLOH    C3 8904   2.475   7.643   0.438 -0.3203 -0.2722  0.7851
   52GLOH   H06 8905   2.517   7.630   0.538 -0.1968  1.1009  0.9323
   52GLOH   H07 8906   2.514   7.560   0.381 -0.2663 -0.0607  0.5126
   52GLOH    O3 8907   2.328   7.645   0.447  0.4229  0.2939  0.8533
   52GLOH   H01 8908   2.296   7.719   0.391  0.8471  0.3225  0.6389
   53GLOH   H03 8909   2.450   4.160   1.088  1.0486 -1.5903  0.3798
   53GLOH    O1 8910   2.408   4.126   1.170  0.0974 -0.3909  0.3967
   53GLOH    C1 8911   2.435   4.201   1.288  0.6164 -0.6985  0.0780
   53GLOH   H02 8912   2.384   4.155   1.373 -0.8226 -1.4635 -1.1616
   53GLOH   H08 8913   2.407   4.306   1.280 -0.8306 -0.7849  3.0516
   53GLOH    C2 8914   2.586   4.192   1.322 -0.4958 -0.0642  0.6062
   53GLOH   H04 8915   2.614   4.086   1.313  1.2095  0.4810 -1.0112
   53GLOH    O2 8916   2.658   4.268   1.225 -0.8219 -0.4682  0.7403
   53GLOH   H05 8917   2.733   4.219   1.189 -1.5725 -0.7768 -0.4151
   53GLOH    C3 8918   2.609   4.242   1.463  0.6853 -0.6993 -0.1184
   53GLOH   H06 8919   2.617   4.350   1.456  3.1026 -0.9578 -2.1427
   53GLOH   H07 8920   2.706   4.197   1.483  0.3432 -1.7267 -0.6779
   53GLOH    O3 8921   2.518   4.203   1.572 -0.5403  0.0570 -0.2416
   53GLOH   H01 8922   2.566   4.155   1.642 -0.4361  0.0210 -0.3371
   54GLOH   H03 8923   4.884   3.986   0.551  2.0814  0.6602 -0.5443
   54GLOH    O1 8924   4.932   3.919   0.603  0.6942  0.5193  0.5818
   54GLOH    C1 8925   5.053   3.901   0.530 -0.2448 -0.1520 -0.4974
   54GLOH   H02 8926   5.054   3.983   0.457  0.4719  1.8152  1.6745
   54GLOH   H08 8927   5.064   3.809   0.472  3.7945  0.9729 -1.7337
   54GLOH    C2 8928   5.175   3.922   0.631  0.9397  0.6346 -0.1346
   54GLOH   H04 8929   5.165   4.028   0.661 -0.6531  0.6750 -0.7642
   54GLOH    O2 8930   5.176   3.834   0.747 -0.2440 -0.0158 -0.0641
   54GLOH   H05 8931   5.096   3.864   0.794  1.3424  2.5915  1.1150
   54GLOH    C3 8932   5.305   3.896   0.562  0.0277  0.3957 -0.0656
   54GLOH   H06 8933   5.307   3.789   0.539  1.2948  0.2636  0.6085
   54GLOH   H07 8934   5.382   3.916   0.637 -1.7102 -0.8849  2.1095
   54GLOH    O3 8935   5.316   3.968   0.434  0.1710  0.4599 -0.2622
   54GLOH   H01 8936   5.292   4.058   0.461  0.7766  0.1591  1.3751
   55GLOH   H03 8937   3.034   7.150   0.847 -0.0520  0.2774 -4.5321
   55GLOH    O1 8938   3.091   7.229   0.840  0.7744  0.1707 -0.2878
   55GLOH    C1 8939   3.137   7.261   0.973  0.3937 -0.6433 -0.7435
   55GLOH   H02 8940   3.235   7.215   0.977  0.6821 -0.1344 -1.7957
   55GLOH   H08 8941   3.079   7.215   1.053  1.0190  0.2404  0.2125
   55GLOH    C2 8942   3.150   7.410   0.998  1.1059 -0.3886 -0.1238
   55GLOH   H04 8943   3.051   7.455   0.983 -0.1779 -2.6364  1.2524
   55GLOH    O2 8944   3.181   7.422   1.134  0.1321 -0.3138 -0.1604
   55GLOH   H05 8945   3.124   7.360   1.183  0.8795 -1.0043 -0.1476
   55GLOH    C3 8946   3.243   7.474   0.908 -0.3692  0.2390  0.9095
   55GLOH   H06 8947   3.341   7.432   0.930 -0.3749 -0.1414  0.2234
   55GLOH   H07 8948   3.231   7.580   0.932 -2.5493  0.2198  0.0406
   55GLOH    O3 8949   3.198   7.458   0.775 -0.2663  0.4259  0.6622
   55GLOH   H01 8950   3.153   7.371   0.770  1.2132 -0.3106 -0.0456
   56GLOH   H03 8951   4.123   0.751   0.754 -0.3816  1.0488 -0.3862
   56GLOH    O1 8952   4.123   0.774   0.849 -0.3947 -0.3707 -0.0192
   56GLOH    C1 8953   4.127   0.919   0.858  0.4539  0.1362 -0.4732
   56GLOH   H02 8954   4.173   0.963   0.770 -0.4896 -0.4447 -1.2685
   56GLOH   H08 8955   4.176   0.954   0.949  0.6739 -0.5040 -0.3417
   56GLOH    C2 8956   3.985   0.977   0.874  0.3695  0.3489 -0.2222
   56GLOH   H04 8957   3.945   0.920   0.959 -0.6077  1.0091 -0.2385
   56GLOH    O2 8958   3.999   1.117   0.904  0.0509 -0.9165  0.1383
   56GLOH   H05 8959   4.033   1.128   0.995 -1.3464 -1.2535  0.7128
   56GLOH    C3 8960   3.911   0.951   0.743  0.0675 -0.7804  0.2874
   56GLOH   H06 8961   3.898   0.843   0.738 -1.9635 -0.6105  1.1521
   56GLOH   H07 8962   3.971   0.972   0.655 -0.0009 -0.8733  0.2183
   56GLOH    O3 8963   3.784   1.009   0.725 -0.0076 -0.1333 -0.2033
   56GLOH   H01 8964   3.717   0.951   0.765 -0.3686 -0.3905 -1.1587
   57GLOH   H03 8965   2.449   6.014   0.878 -0.4828 -1.6602 -0.9930
   57GLOH    O1 8966   2.491   5.958   0.946  0.0002 -0.6253 -0.4195
   57GLOH    C1 8967   2.552   6.032   1.051  0.0853  0.3019 -0.7935
   57GLOH   H02 8968   2.600   5.962   1.120  3.8494  1.7094 -1.8609
   57GLOH   H08 8969   2.481   6.096   1.105  0.4453  0.4236 -0.4547
   57GLOH    C2 8970   2.670   6.107   0.979 -0.3534  0.6165 -0.4327
   57GLOH   H04 8971   2.625   6.169   0.899 -2.7807 -1.2042 -0.5223
   57GLOH    O2 8972   2.745   6.199   1.061  1.0328 -0.4201  0.3285
   57GLOH   H05 8973   2.687   6.276   1.072  1.3500 -0.6027  3.8635
   57GLOH    C3 8974   2.770   6.006   0.913  0.4816  0.3657 -0.5546
   57GLOH   H06 8975   2.713   5.938   0.849  1.8292  0.1624 -1.5442
   57GLOH   H07 8976   2.804   5.939   0.992 -2.0485  0.9941  1.1363
   57GLOH    O3 8977   2.878   6.059   0.841  0.1651  0.7175 -0.2028
   57GLOH   H01 8978   2.941   6.097   0.906  1.2293  0.4756 -1.0859
   58GLOH   H03 8979   3.248   8.169   1.612  0.3958 -0.7264  0.2477
   58GLOH    O1 8980   3.172   8.141   1.666 -0.1477  0.0240 -0.1133
   58GLOH    C1 8981   3.129   8.006   1.637 -0.5806  0.6701  0.6219
   58GLOH   H02 8982   3.206   7.931   1.654  0.5337  1.7860  0.6129
   58GLOH   H08 8983   3.098   8.012   1.533  1.1546 -2.7591 -0.1485
   58GLOH    C2 8984   3.004   7.965   1.716  0.6066 -0.3413 -0.3015
   58GLOH   H04 8985   2.925   8.036   1.687 -0.7841 -1.2626  1.1463
   58GLOH    O2 8986   2.959   7.827   1.690 -0.2336  0.3818 -0.1713
   58GLOH   H05 8987   2.965   7.809   1.594  0.5456  2.6722 -0.5759
   58GLOH    C3 8988   3.017   7.988   1.867 -0.0648  0.0352 -0.0830
   58GLOH   H06 8989   3.095   7.919   1.899  0.7100  2.0163  2.5140
   58GLOH   H07 8990   2.931   7.946   1.919 -1.2932  1.5696 -0.8475
   58GLOH    O3 8991   3.053   8.125   1.907 -0.1678  0.2618 -0.6940
   58GLOH   H01 8992   3.078   8.170   1.825 -0.5791  1.8764  0.0483
   59GLOH   H03 8993   5.002   4.428   0.136 -2.6369 -0.7759 -1.8874
   59GLOH    O1 8994   4.941   4.438   0.211  0.1238  0.5340  0.2370
   59GLOH    C1 8995   4.816   4.388   0.159  0.8186  0.3555 -0.3912
   59GLOH   H02 8996   4.762   4.472   0.117  2.0399  2.2083  1.6353
   59GLOH   H08 8997   4.751   4.352   0.240  0.6859  0.5405 -0.4158
   59GLOH    C2 8998   4.825   4.273   0.062 -0.1238  0.5537  0.1762
   59GLOH   H04 8999   4.884   4.192   0.109  0.2409  0.5538 -0.2750
   59GLOH    O2 9000   4.695   4.218   0.022  0.0351  0.0989  0.7958
   59GLOH   H05 9001   4.704   4.122   0.016  0.2871  0.1953 -0.6477
   59GLOH    C3 9002   4.909   4.324  -0.055 -0.5143  0.1436 -0.0778
   59GLOH   H06 9003   4.857   4.399  -0.115 -0.7095 -0.4177 -0.6262
   59GLOH   H07 9004   4.919   4.234  -0.117 -0.1059 -1.0796  1.7230
   59GLOH    O3 9005   5.041   4.370  -0.015 -0.1218  0.0294  0.0578
   59GLOH   H01 9006   5.096   4.293  -0.037 -3.0276 -1.7110 -1.5253
   60GLOH   H03 9007   4.066   4.964   1.069 -0.5790 -1.6652  0.1385
   60GLOH    O1 9008   3.984   4.963   1.016 -0.4790  0.1586 -0.0830
   60GLOH    C1 9009   4.021   5.000   0.880  0.4210  0.1835 -0.3709
   60GLOH   H02 9010   3.938   5.001   0.810 -0.3062 -0.5560  0.4679
   60GLOH   H08 9011   4.079   4.918   0.838 -0.0167 -1.9401  2.9833
   60GLOH    C2 9012   4.085   5.140   0.873 -0.2096  0.2374  0.2984
   60GLOH   H04 9013   4.168   5.135   0.945 -0.4820 -2.2618  0.4896
   60GLOH    O2 9014   4.145   5.167   0.748 -0.2637 -0.3086  0.1308
   60GLOH   H05 9015   4.107   5.245   0.704 -0.5492 -0.2115  0.5379
   60GLOH    C3 9016   3.982   5.249   0.901 -0.1840 -0.3435  0.3550
   60GLOH   H06 9017   3.889   5.227   0.847 -0.9283 -1.8110  2.1629
   60GLOH   H07 9018   4.016   5.350   0.877  0.0824 -0.1924  1.3501
   60GLOH    O3 9019   3.944   5.245   1.039  0.3042  0.2992 -0.1668
   60GLOH   H01 9020   3.909   5.155   1.055 -0.7182  1.1963  2.9039
   61GLOH   H03 9021   1.698   3.709   0.202 -1.6071 -0.8028  0.1380
   61GLOH    O1 9022   1.689   3.728   0.297 -0.2363 -0.2902  0.1804
   61GLOH    C1 9023   1.799   3.808   0.343 -0.2230  0.2255  0.2500
   61GLOH   H02 9024   1.769   3.912   0.356  0.8147  0.4104  1.2265
   61GLOH   H08 9025   1.879   3.810   0.268 -2.5226  0.0358 -2.2921
   61GLOH    C2 9026   1.851   3.755   0.478  0.2540  0.3778  0.3189
   61GLOH   H04 9027   1.858   3.645   0.475  2.3069  0.4887 -0.0689
   61GLOH    O2 9028   1.981   3.809   0.492 -0.5586  0.3255  0.1000
   61GLOH   H05 9029   2.044   3.753   0.443  3.3429  3.0319  1.8127
   61GLOH    C3 9030   1.767   3.805   0.597 -0.0364  0.2713  0.8113
   61GLOH   H06 9031   1.731   3.903   0.567 -1.6993 -1.2358 -2.3405
   61GLOH   H07 9032   1.832   3.813   0.684 -0.5450  0.0075  1.2139
   61GLOH    O3 9033   1.650   3.729   0.634  0.3685  0.2003  0.3804
   61GLOH   H01 9034   1.636   3.669   0.558  0.4361  1.8059 -0.9210
   62GLOH   H03 9035   3.620   5.083   0.894 -0.4315 -2.0133 -0.8749
   62GLOH    O1 9036   3.568   5.108   0.816  0.2157  0.3409 -0.5932
   62GLOH    C1 9037   3.443   5.167   0.855  0.0853 -0.2191  0.6596
   62GLOH   H02 9038   3.439   5.275   0.838 -0.4579 -0.4661 -0.8091
   62GLOH   H08 9039   3.426   5.154   0.962 -1.3749  0.4412  0.5280
   62GLOH    C2 9040   3.315   5.094   0.798  0.1337 -0.7100 -0.5058
   62GLOH   H04 9041   3.323   4.985   0.800 -1.1299 -0.8086 -0.5900
   62GLOH    O2 9042   3.206   5.149   0.866  0.3481  0.5147 -0.1501
   62GLOH   H05 9043   3.193   5.238   0.828 -0.9136  0.8877  1.0676
   62GLOH    C3 9044   3.300   5.131   0.650  0.1186 -0.0245 -0.2455
   62GLOH   H06 9045   3.398   5.107   0.610 -0.5693 -1.5837 -1.0260
   62GLOH   H07 9046   3.291   5.239   0.635  0.2429  0.3735  2.2620
   62GLOH    O3 9047   3.205   5.050   0.584  0.0313 -0.3744 -0.0307
   62GLOH   H01 9048   3.194   5.084   0.493 -1.0411 -1.1444 -0.2013
   63GLOH   H03 9049   4.091   3.933   1.057 -1.0298  0.1286 -0.2986
   63GLOH    O1 9050   4.035   3.963   1.131 -0.4405 -0.4261  0.3777
   63GLOH    C1 9051   4.110   4.066   1.201 -0.1189  0.4202 -0.2915
   63GLOH   H02 9052   4.057   4.161   1.197 -2.1371 -0.6162  0.6769
   63GLOH   H08 9053   4.207   4.082   1.156 -0.0110  1.8158  0.4321
   63GLOH    C2 9054   4.132   4.026   1.349  0.1589 -0.1720  0.0759
   63GLOH   H04 9055   4.187   4.106   1.401  1.0782 -1.2736  0.8088
   63GLOH    O2 9056   4.007   4.002   1.422 -0.8875 -0.1218 -0.9682
   63GLOH   H05 9057   3.964   3.915   1.421 -0.5081 -0.4064  2.4494
   63GLOH    C3 9058   4.225   3.905   1.352  0.2460  0.2512 -0.6819
   63GLOH   H06 9059   4.200   3.834   1.273  0.0669  2.7134 -2.8968
   63GLOH   H07 9060   4.216   3.858   1.450 -0.1025 -1.0560 -1.3332
   63GLOH    O3 9061   4.361   3.949   1.331  0.0570 -0.1643 -0.2851
   63GLOH   H01 9062   4.395   3.978   1.418 -0.9252 -0.6554  0.2714
   64GLOH   H03 9063   4.269   3.586   0.148 -0.7686  0.5427 -0.0574
   64GLOH    O1 9064   4.268   3.684   0.148 -0.0069  0.5494 -0.6367
   64GLOH    C1 9065   4.185   3.721   0.250 -0.1892 -0.6599  0.5074
   64GLOH   H02 9066   4.247   3.745   0.335  0.2677  1.8793 -0.4954
   64GLOH   H08 9067   4.115   3.642   0.275  1.0650 -1.9230  0.0880
   64GLOH    C2 9068   4.101   3.842   0.196 -0.0069 -0.2254 -0.3086
   64GLOH   H04 9069   4.163   3.916   0.144 -0.7509 -2.8854 -5.1981
   64GLOH    O2 9070   4.001   3.797   0.105  0.1616  0.5057  0.0722
   64GLOH   H05 9071   4.037   3.744   0.032  0.3355  1.2370 -0.3841
   64GLOH    C3 9072   4.035   3.905   0.321  0.4923  0.1860  1.0610
   64GLOH   H06 9073   3.982   3.834   0.385  0.2301 -1.0732 -0.5100
   64GLOH   H07 9074   3.970   3.985   0.286  3.0997  1.0473 -2.0429
   64GLOH    O3 9075   4.135   3.961   0.405  0.2363 -0.1592 -0.0505
   64GLOH   H01 9076   4.163   4.045   0.365  0.2713 -1.2561 -2.3994
   65GLOH   H03 9077   2.749   9.043   2.539  0.5291 -0.5075 -0.7328
   65GLOH    O1 9078   2.725   9.135   2.519  0.1066 -0.4686 -0.0672
   65GLOH    C1 9079   2.669   9.200   2.633  0.5079 -0.5252 -0.3100
   65GLOH   H02 9080   2.674   9.309   2.625  0.9325 -0.3464  1.9826
   65GLOH   H08 9081   2.722   9.173   2.725 -2.0083  1.1310  1.6977
   65GLOH    C2 9082   2.518   9.169   2.655  0.5036 -0.4793  0.3563
   65GLOH   H04 9083   2.501   9.061   2.646  0.0596 -0.3239 -0.7552
   65GLOH    O2 9084   2.470   9.224   2.781  0.1899 -0.0302 -0.0576
   65GLOH   H05 9085   2.478   9.321   2.773 -1.7010  0.1285 -0.4985
   65GLOH    C3 9086   2.439   9.234   2.542  0.4936  0.5596 -0.1804
   65GLOH   H06 9087   2.479   9.203   2.446 -0.0804  2.6263 -1.0976
   65GLOH   H07 9088   2.468   9.339   2.547 -1.4461  1.0827  0.6027
   65GLOH    O3 9089   2.292   9.221   2.551  0.6886  0.7610  0.3721
   65GLOH   H01 9090   2.262   9.216   2.644  3.0666  0.7499  1.1761
   66GLOH   H03 9091   3.346   7.966   2.557  0.8485 -1.7224 -0.2382
   66GLOH    O1 9092   3.407   7.972   2.481  0.5243  0.5810 -0.3514
   66GLOH    C1 9093   3.538   7.944   2.533 -1.1892  0.3342 -0.3197
   66GLOH   H02 9094   3.610   8.006   2.479 -1.5974  0.8135 -0.3182
   66GLOH   H08 9095   3.564   7.839   2.526 -2.3759  0.0782 -0.9465
   66GLOH    C2 9096   3.548   7.989   2.682 -0.1675 -0.0050  0.2892
   66GLOH   H04 9097   3.456   7.948   2.727  0.0973 -1.3413 -0.3784
   66GLOH    O2 9098   3.664   7.934   2.744 -0.1606  0.5883 -0.4415
   66GLOH   H05 9099   3.683   7.976   2.830  0.0155 -0.8660  0.2496
   66GLOH    C3 9100   3.548   8.142   2.701  0.6661 -0.0873 -0.4634
   66GLOH   H06 9101   3.445   8.169   2.680  0.4566 -0.9217 -0.5444
   66GLOH   H07 9102   3.617   8.197   2.637  0.4641  0.9810  0.2330
   66GLOH    O3 9103   3.566   8.182   2.839  0.5824  0.4422  0.2633
   66GLOH   H01 9104   3.641   8.139   2.884  1.1264  1.1510  0.0347
   67GLOH   H03 9105   3.192   5.240  -0.188 -0.2320 -0.9463  0.6980
   67GLOH    O1 9106   3.204   5.303  -0.115 -0.2748  0.1848 -0.2629
   67GLOH    C1 9107   3.094   5.385  -0.081  0.3000 -0.0770  0.5445
   67GLOH   H02 9108   3.040   5.419  -0.169 -2.3415  1.3532  2.6233
   67GLOH   H08 9109   3.126   5.477  -0.030 -1.8990 -1.3785  4.5077
   67GLOH    C2 9110   2.984   5.311  -0.001 -0.1435 -0.3796  0.3641
   67GLOH   H04 9111   2.907   5.388   0.012  0.4049  0.5391 -1.6393
   67GLOH    O2 9112   2.923   5.206  -0.074 -0.2388  0.1767  0.8786
   67GLOH   H05 9113   2.858   5.251  -0.131  0.9149  2.4730  1.3328
   67GLOH    C3 9114   3.052   5.251   0.123 -0.2639  0.0022 -0.4956
   67GLOH   H06 9115   3.130   5.182   0.093 -0.0236  0.6067 -1.3042
   67GLOH   H07 9116   2.975   5.195   0.176  0.2227 -0.5882 -0.4149
   67GLOH    O3 9117   3.117   5.353   0.204 -0.8994  0.1509 -0.5561
   67GLOH   H01 9118   3.211   5.340   0.183 -0.2057  1.5546  1.4512
   68GLOH   H03 9119   2.406   5.237   2.628  0.4630 -0.4314 -0.0860
   68GLOH    O1 9120   2.364   5.271   2.547  0.0400  0.4621  0.5121
   68GLOH    C1 9121   2.353   5.412   2.556 -0.2566 -0.8649  0.0878
   68GLOH   H02 9122   2.388   5.454   2.461 -0.2053  1.1289  0.9540
   68GLOH   H08 9123   2.415   5.453   2.636 -0.6424  0.9668 -0.5151
   68GLOH    C2 9124   2.212   5.477   2.556 -0.1361 -0.0050 -0.2769
   68GLOH   H04 9125   2.202   5.580   2.591  0.5359 -0.2144  0.5348
   68GLOH    O2 9126   2.150   5.484   2.424  0.0370  0.1429 -0.2833
   68GLOH   H05 9127   2.194   5.554   2.373 -1.0106  0.9650 -0.0655
   68GLOH    C3 9128   2.125   5.398   2.647  0.0320  0.0807  0.3327
   68GLOH   H06 9129   2.175   5.366   2.739 -2.6827 -1.0231  1.4758
   68GLOH   H07 9130   2.096   5.311   2.588  2.1061  1.2977 -2.5968
   68GLOH    O3 9131   2.011   5.466   2.696 -0.3631 -0.0356 -0.0850
   68GLOH   H01 9132   1.963   5.510   2.623 -1.1422 -1.6558 -0.5679
   69GLOH   H03 9133   2.286   3.742   0.699 -0.8100  0.5810  1.0387
   69GLOH    O1 9134   2.316   3.821   0.747 -0.0831  0.4612  0.7931
   69GLOH    C1 9135   2.193   3.894   0.776 -0.4158 -0.1985  0.2630
   69GLOH   H02 9136   2.184   3.934   0.877 -1.4937  1.0040 -0.2998
   69GLOH   H08 9137   2.106   3.828   0.773 -0.1220 -0.6102  0.6712
   69GLOH    C2 9138   2.156   4.015   0.681 -0.2478 -0.3700  0.3090
   69GLOH   H04 9139   2.222   4.099   0.710 -0.0941 -1.0403  1.9604
   69GLOH    O2 9140   2.161   3.979   0.539 -0.3165 -0.2028  0.3175
   69GLOH   H05 9141   2.087   3.918   0.521  0.1125 -1.0622  1.4262
   69GLOH    C3 9142   2.019   4.058   0.724 -0.3534 -0.3428  0.4009
   69GLOH   H06 9143   1.958   3.976   0.686 -0.1776 -1.1981  1.9124
   69GLOH   H07 9144   1.997   4.147   0.665 -1.1461  0.8517  2.4606
   69GLOH    O3 9145   2.011   4.087   0.864 -0.3641  0.2123  0.0976
   69GLOH   H01 9146   1.966   4.006   0.896 -0.7407 -0.4993 -2.1012
   70GLOH   H03 9147   3.267   7.192   0.178  2.0237 -0.5721  0.2141
   70GLOH    O1 9148   3.255   7.195   0.275  0.3061 -0.2923  0.0138
   70GLOH    C1 9149   3.129   7.233   0.331 -0.5085 -0.7043  0.8928
   70GLOH   H02 9150   3.108   7.333   0.293  0.1224 -0.6421  0.7139
   70GLOH   H08 9151   3.139   7.228   0.439 -2.0690  1.7168  1.1862
   70GLOH    C2 9152   3.011   7.140   0.297  0.8615 -0.7355 -0.2894
   70GLOH   H04 9153   2.921   7.202   0.309  1.3165  0.0183 -0.7068
   70GLOH    O2 9154   3.002   7.106   0.161  0.3309  0.0462  0.7874
   70GLOH   H05 9155   2.907   7.104   0.143  0.2270  1.6291  1.0338
   70GLOH    C3 9156   3.009   7.017   0.393  0.2060  0.1366 -0.0982
   70GLOH   H06 9157   3.031   7.047   0.495 -1.6134 -1.3072  0.7475
   70GLOH   H07 9158   3.091   6.949   0.370  0.1434 -0.6872  2.0456
   70GLOH    O3 9159   2.881   6.954   0.390 -0.4139  1.0061  0.2527
   70GLOH   H01 9160   2.882   6.901   0.308 -3.2791 -1.6240  1.7866
   71GLOH   H03 9161   3.109   1.348   1.878  0.1596 -2.0452  0.3250
   71GLOH    O1 9162   3.095   1.388   1.966 -0.1031  0.1040 -0.6539
   71GLOH    C1 9163   3.117   1.525   1.976  0.5811  0.2181  0.0969
   71GLOH   H02 9164   3.035   1.558   2.039 -1.0695 -4.1467  0.4641
   71GLOH   H08 9165   3.092   1.577   1.884 -0.9108 -2.3852 -1.0309
   71GLOH    C2 9166   3.257   1.559   2.027  0.6194  0.6098 -0.0481
   71GLOH   H04 9167   3.331   1.531   1.950  1.1722 -0.6004  0.9025
   71GLOH    O2 9168   3.284   1.695   2.052 -0.0800 -0.3422  0.1523
   71GLOH   H05 9169   3.216   1.726   2.113 -0.2383 -2.1746  0.9454
   71GLOH    C3 9170   3.300   1.482   2.156  0.2416 -0.6696  0.0354
   71GLOH   H06 9171   3.233   1.519   2.234  0.3485  1.3526 -0.8231
   71GLOH   H07 9172   3.402   1.512   2.178  0.3241 -0.8138 -0.1521
   71GLOH    O3 9173   3.283   1.340   2.153 -0.4159 -0.1545 -0.3813
   71GLOH   H01 9174   3.290   1.309   2.060  0.4433 -1.0059 -0.0349
   72GLOH   H03 9175   4.045  10.142   2.108  2.9193  1.2040  1.9562
   72GLOH    O1 9176   4.021  10.074   2.174  0.5204  0.2975  0.1964
   72GLOH    C1 9177   3.953   9.965   2.099  0.1845  0.4140 -0.0667
   72GLOH   H02 9178   4.016   9.889   2.054 -2.2109 -2.0990  0.6976
   72GLOH   H08 9179   3.883  10.012   2.031  0.1984  0.4890 -0.0293
   72GLOH    C2 9180   3.869   9.889   2.203  0.6037 -0.4251  0.1607
   72GLOH   H04 9181   3.789   9.958   2.237 -0.1967 -1.4113  0.3146
   72GLOH    O2 9182   3.808   9.779   2.138 -0.4092  0.6848  0.0341
   72GLOH   H05 9183   3.777   9.720   2.208 -0.2760  1.5668  0.8548
   72GLOH    C3 9184   3.947   9.841   2.323 -0.3575  0.1494 -0.0595
   72GLOH   H06 9185   3.994   9.931   2.362 -1.1678  1.4979 -2.1430
   72GLOH   H07 9186   4.023   9.770   2.290 -1.3293 -0.3992 -1.1761
   72GLOH    O3 9187   3.860   9.788   2.426  0.5021  0.2253  0.2612
   72GLOH   H01 9188   3.907   9.707   2.455 -0.8663 -0.1788  1.4206
   73GLOH   H03 9189   3.781   0.521   1.560 -0.2851 -0.8447  0.1023
   73GLOH    O1 9190   3.767   0.504   1.465 -0.1332 -0.0661 -0.0653
   73GLOH    C1 9191   3.862   0.402   1.427  0.2932  0.0351  0.5606
   73GLOH   H02 9192   3.869   0.325   1.503 -1.3707  0.4823  1.1903
   73GLOH   H08 9193   3.964   0.443   1.425  1.2595 -2.3060  0.8927
   73GLOH    C2 9194   3.831   0.332   1.292 -0.3627 -0.1868 -0.3010
   73GLOH   H04 9195   3.811   0.411   1.218 -0.5402  0.8835  0.8780
   73GLOH    O2 9196   3.928   0.242   1.248 -0.4963 -0.8767  0.3013
   73GLOH   H05 9197   4.003   0.298   1.224 -0.6095  0.1184  2.1392
   73GLOH    C3 9198   3.698   0.255   1.302 -0.4759  0.2968  0.2597
   73GLOH   H06 9199   3.709   0.167   1.365  0.0277 -0.2213 -0.5328
   73GLOH   H07 9200   3.666   0.223   1.203 -2.0251 -1.4621  1.2980
   73GLOH    O3 9201   3.606   0.346   1.355  0.1382 -0.6077 -0.3123
   73GLOH   H01 9202   3.645   0.407   1.419 -1.0897 -0.2698  0.1234
   74GLOH   H03 9203   5.232   3.404   0.232 -1.1298  1.1786 -0.7805
   74GLOH    O1 9204   5.214   3.324   0.180  0.0326  0.0938  0.4461
   74GLOH    C1 9205   5.181   3.359   0.044 -0.3438 -0.3260 -0.0346
   74GLOH   H02 9206   5.259   3.408  -0.013 -1.7610  2.1117  0.0553
   74GLOH   H08 9207   5.094   3.425   0.037  0.0788  0.0447 -2.1916
   74GLOH    C2 9208   5.131   3.242  -0.039  0.3079  1.2507 -0.1790
   74GLOH   H04 9209   5.032   3.215   0.001  1.7630 -1.2969  1.8904
   74GLOH    O2 9210   5.109   3.252  -0.181  0.0895 -0.4709 -0.6597
   74GLOH   H05 9211   5.060   3.171  -0.206 -0.8407 -0.0893 -0.0923
   74GLOH    C3 9212   5.220   3.113  -0.014 -0.2388  0.0607  0.1450
   74GLOH   H06 9213   5.313   3.139  -0.063 -0.8116 -0.0291 -1.0064
   74GLOH   H07 9214   5.172   3.028  -0.063  0.8824 -2.4695  3.2543
   74GLOH    O3 9215   5.262   3.082   0.122  0.0100 -0.3897 -0.0117
   74GLOH   H01 9216   5.246   3.167   0.166  0.9486 -0.8547  1.2364
   75GLOH   H03 9217   2.672   4.397   2.649 -0.1121  0.8118  0.2481
   75GLOH    O1 9218   2.672   4.413   2.553  0.3042  0.6129  0.2099
   75GLOH    C1 9219   2.686   4.557   2.536 -0.3888  0.1063  0.2115
   75GLOH   H02 9220   2.752   4.589   2.617 -0.8297  1.3250  0.1107
   75GLOH   H08 9221   2.593   4.611   2.551 -1.2312 -1.1961 -0.2435
   75GLOH    C2 9222   2.735   4.595   2.399  0.2713  0.0640  0.8709
   75GLOH   H04 9223   2.665   4.554   2.325 -0.4856  0.6575  1.2500
   75GLOH    O2 9224   2.751   4.741   2.376  0.2662  0.2946  0.3391
   75GLOH   H05 9225   2.682   4.798   2.413 -0.1999 -1.7305  2.6890
   75GLOH    C3 9226   2.869   4.519   2.371  0.4047  0.7328 -0.0968
   75GLOH   H06 9227   2.939   4.540   2.453  0.5847  0.0186 -0.0698
   75GLOH   H07 9228   2.909   4.556   2.276 -0.8209  1.3715 -0.3667
   75GLOH    O3 9229   2.850   4.376   2.358 -1.0367 -0.0073 -0.2574
   75GLOH   H01 9230   2.791   4.355   2.433  0.9795  0.9007  1.6254
   76GLOH   H03 9231   3.367   7.903   2.079 -1.7068 -1.3726  0.1517
   76GLOH    O1 9232   3.350   7.898   1.983 -0.1412  0.0909 -0.2195
   76GLOH    C1 9233   3.395   8.021   1.924  0.0770 -0.3308  0.2129
   76GLOH   H02 9234   3.320   8.098   1.908  0.7803  0.3216  0.0071
   76GLOH   H08 9235   3.421   7.995   1.821 -0.2501 -0.0560  0.0597
   76GLOH    C2 9236   3.517   8.071   2.008  0.6105  0.9134 -1.0942
   76GLOH   H04 9237   3.596   7.994   2.007 -0.0592  0.0303  3.3114
   76GLOH    O2 9238   3.585   8.185   1.949  0.6492  0.0171  0.2200
   76GLOH   H05 9239   3.543   8.218   1.868  0.4042  2.4810  1.3052
   76GLOH    C3 9240   3.489   8.089   2.155 -0.5352 -0.0263 -0.5298
   76GLOH   H06 9241   3.408   8.160   2.172 -1.4191 -1.3845  1.0790
   76GLOH   H07 9242   3.575   8.136   2.203 -1.6765  2.4667 -0.8267
   76GLOH    O3 9243   3.452   7.960   2.211  0.2307 -0.8828  0.5943
   76GLOH   H01 9244   3.442   7.965   2.308  1.6981  0.2031  0.7037
   77GLOH   H03 9245   2.273   9.032   1.161  2.8499  0.0190  2.6002
   77GLOH    O1 9246   2.339   9.072   1.101  0.3102  0.6133  0.0810
   77GLOH    C1 9247   2.377   9.197   1.162 -0.0721 -0.4719 -0.0824
   77GLOH   H02 9248   2.286   9.241   1.204  2.0958  2.7857  1.3168
   77GLOH   H08 9249   2.415   9.267   1.088  1.7373 -0.8448  0.4665
   77GLOH    C2 9250   2.473   9.187   1.284 -0.4163 -0.1310  0.3431
   77GLOH   H04 9251   2.571   9.170   1.238  0.4518 -0.1519  2.1703
   77GLOH    O2 9252   2.474   9.314   1.359  0.0701 -0.4749 -0.1954
   77GLOH   H05 9253   2.390   9.336   1.403  0.1283 -1.5831  0.4737
   77GLOH    C3 9254   2.445   9.065   1.377 -0.0981  0.0509 -0.3199
   77GLOH   H06 9255   2.513   9.079   1.461  0.1045  0.5711 -0.5746
   77GLOH   H07 9256   2.485   8.975   1.330 -0.0636 -0.0926 -0.0227
   77GLOH    O3 9257   2.309   9.047   1.414 -0.2314 -0.0401 -0.2309
   77GLOH   H01 9258   2.283   8.953   1.408  0.9498 -0.3630 -0.3389
   78GLOH   H03 9259   4.441   3.590   1.994  2.2283 -1.4444 -0.0704
   78GLOH    O1 9260   4.467   3.617   1.904  0.6449 -0.4068 -0.2396
   78GLOH    C1 9261   4.353   3.615   1.813  0.5000 -0.1711 -0.3739
   78GLOH   H02 9262   4.286   3.698   1.837 -0.0763 -1.0324  1.0333
   78GLOH   H08 9263   4.285   3.530   1.820 -2.2056  1.8754 -0.8863
   78GLOH    C2 9264   4.384   3.638   1.664  0.2354 -0.1292  0.3414
   78GLOH   H04 9265   4.445   3.554   1.628  2.9235  2.1071 -0.5321
   78GLOH    O2 9266   4.261   3.645   1.589  0.0724 -0.3885  0.0828
   78GLOH   H05 9267   4.295   3.653   1.498 -0.1497 -1.1054 -0.0672
   78GLOH    C3 9268   4.480   3.757   1.650 -0.3984  0.4194 -0.1661
   78GLOH   H06 9269   4.430   3.842   1.696  0.8406  1.9596 -1.6551
   78GLOH   H07 9270   4.502   3.782   1.546 -0.0711 -0.7070 -0.3798
   78GLOH    O3 9271   4.605   3.721   1.707 -0.1443 -0.2533 -0.1603
   78GLOH   H01 9272   4.575   3.662   1.779 -2.2536  2.0175  0.9044
   79GLOH   H03 9273   4.173   0.684   1.893 -0.2896  0.2421 -1.8734
   79GLOH    O1 9274   4.252   0.626   1.891 -0.2081  0.2500  0.1998
   79GLOH    C1 9275   4.304   0.635   1.752 -0.4083  0.2535 -0.2354
   79GLOH   H02 9276   4.403   0.595   1.732 -0.0672  1.7460 -1.6453
   79GLOH   H08 9277   4.298   0.741   1.726  1.2647  0.1999 -0.8799
   79GLOH    C2 9278   4.214   0.558   1.654  0.0834  0.1645  0.7635
   79GLOH   H04 9279   4.108   0.590   1.656  0.2710  0.8452  0.2115
   79GLOH    O2 9280   4.256   0.577   1.516 -0.5567  0.1346 -0.2153
   79GLOH   H05 9281   4.275   0.671   1.500  0.7369 -0.1068 -0.1300
   79GLOH    C3 9282   4.237   0.408   1.680  0.3403  0.5328  0.1345
   79GLOH   H06 9283   4.338   0.387   1.646  0.4418 -0.9731  1.2877
   79GLOH   H07 9284   4.182   0.344   1.611 -2.1987  0.3959  2.1703
   79GLOH    O3 9285   4.222   0.379   1.818  0.2878 -0.1509  0.9186
   79GLOH   H01 9286   4.245   0.460   1.866  0.4397 -1.0401  2.3644
   80GLOH   H03 9287   3.506   9.347   1.466 -0.0759 -0.1914 -0.1402
   80GLOH    O1 9288   3.452   9.390   1.535  0.1011  0.0659 -0.1632
   80GLOH    C1 9289   3.353   9.470   1.467  0.0871  0.2122  1.1603
   80GLOH   H02 9290   3.253   9.441   1.500 -0.1769  0.9349  1.0043
   80GLOH   H08 9291   3.360   9.454   1.360 -0.4916  1.4590  0.9302
   80GLOH    C2 9292   3.362   9.626   1.505 -0.2320  0.2994 -0.3256
   80GLOH   H04 9293   3.462   9.658   1.471  0.5765  0.1288  1.8639
   80GLOH    O2 9294   3.258   9.709   1.438 -0.5905  0.1018 -0.2103
   80GLOH   H05 9295   3.300   9.790   1.406 -1.6369  0.7701  0.1009
   80GLOH    C3 9296   3.373   9.642   1.655  0.0194 -0.8408 -0.0108
   80GLOH   H06 9297   3.278   9.605   1.692  0.0428  0.5944  1.5308
   80GLOH   H07 9298   3.370   9.749   1.675 -0.6098 -0.5590 -1.5351
   80GLOH    O3 9299   3.489   9.574   1.707 -0.0185 -0.2308 -0.2584
   80GLOH   H01 9300   3.484   9.482   1.675  3.0569 -0.3556 -0.5504
   81GLOH   H03 9301   2.161   4.465   0.749  0.0257  1.3770  0.4322
   81GLOH    O1 9302   2.214   4.480   0.668 -0.2597 -0.0991 -0.0393
   81GLOH    C1 9303   2.321   4.387   0.646  0.0530 -0.0684  0.0382
   81GLOH   H02 9304   2.283   4.313   0.576  0.7262  0.0360 -0.4407
   81GLOH   H08 9305   2.352   4.337   0.738 -0.0489 -0.7062 -0.2689
   81GLOH    C2 9306   2.443   4.452   0.571 -0.0426 -0.3629  0.9457
   81GLOH   H04 9307   2.483   4.533   0.634  1.5169  0.4737 -1.0614
   81GLOH    O2 9308   2.549   4.354   0.547 -0.2419 -0.5722  0.3287
   81GLOH   H05 9309   2.507   4.273   0.514  2.7268 -1.5337 -1.2664
   81GLOH    C3 9310   2.393   4.517   0.437 -0.3875 -0.0729  0.3236
   81GLOH   H06 9311   2.343   4.442   0.375 -1.1888  1.3054 -0.7122
   81GLOH   H07 9312   2.472   4.551   0.370 -0.4525 -1.1473 -0.3185
   81GLOH    O3 9313   2.295   4.614   0.467  0.2377 -0.4303 -0.5142
   81GLOH   H01 9314   2.242   4.587   0.544 -2.7084  1.3662 -1.8375
   82GLOH   H03 9315   3.729   9.061   1.874  0.8609  0.5472  1.4248
   82GLOH    O1 9316   3.686   9.142   1.841 -0.4442 -0.6809  0.0364
   82GLOH    C1 9317   3.741   9.177   1.708 -0.7170  0.3181 -0.9322
   82GLOH   H02 9318   3.661   9.162   1.635 -1.7851  0.3933  0.1977
   82GLOH   H08 9319   3.832   9.121   1.685 -0.9536 -0.3826 -0.1677
   82GLOH    C2 9320   3.784   9.318   1.694  0.3244  0.1075  0.3258
   82GLOH   H04 9321   3.693   9.380   1.684 -1.5551 -2.0828  2.9341
   82GLOH    O2 9322   3.858   9.367   1.807 -0.4361  0.3203 -0.1162
   82GLOH   H05 9323   3.788   9.391   1.870  0.1935  1.8007  0.0448
   82GLOH    C3 9324   3.872   9.341   1.573  0.3462 -0.4119  0.5933
   82GLOH   H06 9325   3.964   9.282   1.571 -0.0089 -0.9424 -0.7650
   82GLOH   H07 9326   3.904   9.445   1.582  1.9094 -0.8200 -0.0477
   82GLOH    O3 9327   3.798   9.326   1.450 -0.4926 -0.8128 -0.5120
   82GLOH   H01 9328   3.766   9.414   1.423  0.9241  0.1512  0.8708
   83GLOH   H03 9329   2.108   0.391   2.800 -0.4748 -2.2065  0.6917
   83GLOH    O1 9330   2.048   0.403   2.724  0.3985 -0.5467  0.2300
   83GLOH    C1 9331   1.989   0.272   2.706  0.6563 -0.4437  0.7786
   83GLOH   H02 9332   1.905   0.281   2.638  1.4109  0.0057 -0.1081
   83GLOH   H08 9333   1.944   0.245   2.802 -1.3615  1.5589  0.4352
   83GLOH    C2 9334   2.088   0.161   2.668  0.6267 -0.1638  0.1570
   83GLOH   H04 9335   2.183   0.163   2.724  1.5678  1.4543 -1.4565
   83GLOH    O2 9336   2.034   0.035   2.706 -0.2958 -0.5008  0.4147
   83GLOH   H05 9337   1.988   0.010   2.624 -0.6931  0.6016  0.2811
   83GLOH    C3 9338   2.110   0.168   2.513  0.2340  0.8519 -0.0038
   83GLOH   H06 9339   2.177   0.089   2.479  0.7749  2.2619 -2.2622
   83GLOH   H07 9340   2.172   0.254   2.488  2.3962 -1.1790 -1.9419
   83GLOH    O3 9341   2.000   0.174   2.429 -0.9883  0.1285 -0.2918
   83GLOH   H01 9342   2.039   0.182   2.340  0.1666 -1.7249  0.0086
   84GLOH   H03 9343   3.293   4.530  -0.068  0.2622 -0.0328 -1.0513
   84GLOH    O1 9344   3.204   4.492  -0.054  0.5228 -0.3093 -0.1248
   84GLOH    C1 9345   3.139   4.546   0.054 -0.1169  0.2730  1.1205
   84GLOH   H02 9346   3.033   4.524   0.043  0.0748 -0.4801  0.7550
   84GLOH   H08 9347   3.146   4.654   0.042  0.5454 -0.1340 -2.8194
   84GLOH    C2 9348   3.191   4.519   0.195 -0.4121 -0.3840 -0.0951
   84GLOH   H04 9349   3.219   4.412   0.192 -0.0574 -0.4600  3.4175
   84GLOH    O2 9350   3.310   4.595   0.223 -0.1726 -0.0821  0.4894
   84GLOH   H05 9351   3.302   4.679   0.174 -0.5223 -1.5429 -2.0392
   84GLOH    C3 9352   3.076   4.529   0.298 -0.3635 -0.0717 -0.8574
   84GLOH   H06 9353   3.033   4.628   0.278  0.6040  0.1172 -2.0791
   84GLOH   H07 9354   3.116   4.533   0.399 -0.2178 -2.0853 -0.8202
   84GLOH    O3 9355   2.968   4.430   0.285 -0.6741  0.1933 -0.1277
   84GLOH   H01 9356   2.900   4.437   0.354  0.7649  1.6519  1.1852
   85GLOH   H03 9357   3.480   3.741   1.123 -1.2058 -0.9349  0.9730
   85GLOH    O1 9358   3.477   3.791   1.207 -0.5198 -0.0317  0.4687
   85GLOH    C1 9359   3.580   3.893   1.192  0.2323 -0.1137  0.4060
   85GLOH   H02 9360   3.540   3.980   1.243  1.2166  1.0850 -0.8496
   85GLOH   H08 9361   3.581   3.928   1.089  2.2300 -3.8756 -0.9623
   85GLOH    C2 9362   3.727   3.867   1.233 -0.2748  0.3920  0.3941
   85GLOH   H04 9363   3.765   3.783   1.173  0.6516  1.6087 -0.7583
   85GLOH    O2 9364   3.803   3.990   1.203  0.1707 -0.1480 -0.4819
   85GLOH   H05 9365   3.899   3.976   1.190  0.7157  0.3184  2.5846
   85GLOH    C3 9366   3.746   3.826   1.383  0.4587 -0.3933 -0.2264
   85GLOH   H06 9367   3.678   3.742   1.400 -0.2922  0.4003  0.7589
   85GLOH   H07 9368   3.713   3.912   1.442  0.9569  0.7696 -1.6065
   85GLOH    O3 9369   3.873   3.794   1.429 -0.5139 -0.6439 -0.1212
   85GLOH   H01 9370   3.908   3.717   1.381 -1.0905 -0.9406 -0.0747
   86GLOH   H03 9371   3.177   7.654   2.429  1.7114 -0.7758 -2.1681
   86GLOH    O1 9372   3.126   7.712   2.369  0.3079 -0.0777 -0.3519
   86GLOH    C1 9373   3.198   7.696   2.245 -0.5843  0.0741 -0.2721
   86GLOH   H02 9374   3.212   7.588   2.243 -0.2055  0.1288 -0.4647
   86GLOH   H08 9375   3.295   7.744   2.239 -1.1758  1.3650  0.2045
   86GLOH    C2 9376   3.105   7.740   2.124  0.1090  0.3075 -0.3164
   86GLOH   H04 9377   3.078   7.846   2.131 -0.4095  0.0679  1.8553
   86GLOH    O2 9378   3.176   7.711   1.999  0.6049  0.5001 -0.5801
   86GLOH   H05 9379   3.245   7.778   1.989  0.3387  1.2864  2.2908
   86GLOH    C3 9380   2.979   7.653   2.138  0.1684  0.2207 -0.2240
   86GLOH   H06 9381   3.015   7.550   2.132 -0.0129  0.1812 -0.6155
   86GLOH   H07 9382   2.917   7.674   2.051 -0.8135 -0.6250  0.2581
   86GLOH    O3 9383   2.901   7.671   2.260 -0.3475 -0.1696 -0.5449
   86GLOH   H01 9384   2.971   7.697   2.322  0.7821 -0.1269 -1.7995
   87GLOH   H03 9385   4.066   5.394   0.043 -2.3556 -0.0436  0.3806
   87GLOH    O1 9386   4.083   5.406   0.139  0.4886 -0.1848 -0.0577
   87GLOH    C1 9387   4.218   5.353   0.163  0.4248  0.2617 -0.3993
   87GLOH   H02 9388   4.236   5.358   0.270 -2.3942 -1.7348  0.2010
   87GLOH   H08 9389   4.296   5.416   0.119  1.4089 -0.2147  0.6145
   87GLOH    C2 9390   4.229   5.207   0.108  0.3908  0.0718 -0.2603
   87GLOH   H04 9391   4.221   5.212  -0.002  0.3070  0.5557 -0.2323
   87GLOH    O2 9392   4.360   5.148   0.140  0.3171  0.3060 -0.2164
   87GLOH   H05 9393   4.380   5.160   0.234  0.0857 -2.4569  0.2245
   87GLOH    C3 9394   4.108   5.120   0.157  0.2743 -0.1426 -0.5875
   87GLOH   H06 9395   4.111   5.034   0.090  1.0908 -0.6030  0.0283
   87GLOH   H07 9396   4.013   5.171   0.140 -1.0137 -1.7983  1.3543
   87GLOH    O3 9397   4.112   5.079   0.291 -0.1530  0.3275  0.3846
   87GLOH   H01 9398   4.149   4.989   0.295 -2.4951 -0.6147  2.7404
   88GLOH   H03 9399   5.502   2.911   0.945 -0.1554 -0.3056  0.9799
   88GLOH    O1 9400   5.450   2.849   0.891  0.0066  0.4004  0.0061
   88GLOH    C1 9401   5.483   2.855   0.745 -0.1414 -0.5948  0.5123
   88GLOH   H02 9402   5.587   2.832   0.725 -0.2571  0.2470 -1.1977
   88GLOH   H08 9403   5.469   2.955   0.703 -1.5179 -0.2694  1.7148
   88GLOH    C2 9404   5.395   2.759   0.660 -0.8241 -0.1229 -0.3513
   88GLOH   H04 9405   5.292   2.794   0.680 -0.6896  0.4658 -0.6737
   88GLOH    O2 9406   5.432   2.786   0.524  0.1798  0.0090  0.1624
   88GLOH   H05 9407   5.359   2.747   0.473  1.1440 -0.7421 -0.6667
   88GLOH    C3 9408   5.403   2.612   0.710 -0.0715 -0.5250  0.4312
   88GLOH   H06 9409   5.509   2.586   0.706 -0.5321 -2.1562 -2.0617
   88GLOH   H07 9410   5.339   2.545   0.654 -0.9532  0.7949 -0.1479
   88GLOH    O3 9411   5.358   2.616   0.845  0.2168 -0.2695  0.3405
   88GLOH   H01 9412   5.398   2.693   0.890 -0.0285 -0.3787  0.7460
   89GLOH   H03 9413   2.607   6.559   0.540 -0.0153 -0.6092  1.5229
   89GLOH    O1 9414   2.520   6.530   0.506  0.2844  0.1908  0.0556
   89GLOH    C1 9415   2.544   6.543   0.364  0.5907 -0.4051 -0.8644
   89GLOH   H02 9416   2.628   6.477   0.340  1.3630 -0.1653  1.1122
   89GLOH   H08 9417   2.566   6.646   0.337 -0.6729  0.6997  2.0924
   89GLOH    C2 9418   2.431   6.504   0.274  0.0556  0.0056  0.3262
   89GLOH   H04 9419   2.409   6.396   0.274 -0.5077  0.1043 -2.0543
   89GLOH    O2 9420   2.302   6.558   0.318  0.2564  0.5103 -0.3133
   89GLOH   H05 9421   2.259   6.477   0.350  0.5175  0.2560 -0.6102
   89GLOH    C3 9422   2.456   6.543   0.122 -0.3323 -0.0860 -0.1376
   89GLOH   H06 9423   2.472   6.648   0.098 -2.7128  0.5379  0.7950
   89GLOH   H07 9424   2.365   6.523   0.065 -0.1017  0.8193 -0.8240
   89GLOH    O3 9425   2.568   6.476   0.069  0.1613 -0.1120 -0.1694
   89GLOH   H01 9426   2.631   6.536   0.025 -0.7214 -0.0579 -1.3937
   90GLOH   H03 9427   2.054   6.006   2.223 -2.2378  0.5581 -1.1220
   90GLOH    O1 9428   2.061   6.076   2.291 -0.0818 -0.5419 -0.1624
   90GLOH    C1 9429   1.962   6.042   2.393  0.3871 -0.7093 -0.6751
   90GLOH   H02 9430   1.987   5.945   2.436  1.4501  0.1242  0.6238
   90GLOH   H08 9431   1.862   6.034   2.350 -0.7679  0.4252  1.7613
   90GLOH    C2 9432   1.963   6.145   2.506  0.2928  0.0669 -0.5558
   90GLOH   H04 9433   1.911   6.237   2.476 -1.4791 -0.4289  0.8401
   90GLOH    O2 9434   1.876   6.090   2.607 -0.4286 -0.0716  0.1835
   90GLOH   H05 9435   1.850   6.163   2.665  1.8828  2.8748 -2.3511
   90GLOH    C3 9436   2.099   6.192   2.557 -0.7905  0.5864 -0.1326
   90GLOH   H06 9437   2.144   6.110   2.613  0.3600  1.8025  0.7555
   90GLOH   H07 9438   2.087   6.274   2.628  1.2382  1.1647 -0.4085
   90GLOH    O3 9439   2.190   6.226   2.451 -0.2957  0.1062 -0.3222
   90GLOH   H01 9440   2.157   6.188   2.368 -1.3358 -0.2860  0.2487
   91GLOH   H03 9441   3.755   8.511   2.156 -2.9815  0.6358 -0.8985
   91GLOH    O1 9442   3.748   8.601   2.195  0.2240  0.5421 -0.0014
   91GLOH    C1 9443   3.786   8.587   2.334 -0.0657 -0.5447  0.3401
   91GLOH   H02 9444   3.714   8.627   2.405 -2.5800 -1.1267 -1.8183
   91GLOH   H08 9445   3.878   8.642   2.354  0.0772 -0.4666 -0.4855
   91GLOH    C2 9446   3.819   8.446   2.380 -1.0811  0.0819 -0.0946
   91GLOH   H04 9447   3.885   8.397   2.307 -0.4018 -0.2850  0.7601
   91GLOH    O2 9448   3.893   8.454   2.500 -0.2448  0.0930 -0.5351
   91GLOH   H05 9449   3.932   8.366   2.512  0.4955  0.1750 -2.2458
   91GLOH    C3 9450   3.688   8.365   2.395  0.3478  0.0307 -0.2428
   91GLOH   H06 9451   3.636   8.396   2.486 -0.2346  0.9176 -0.8656
   91GLOH   H07 9452   3.702   8.259   2.413  1.4169  0.3423  0.7654
   91GLOH    O3 9453   3.596   8.375   2.282  0.3734  0.2479 -0.0518
   91GLOH   H01 9454   3.650   8.359   2.202  0.3717 -0.2195  0.0393
   92GLOH   H03 9455   3.697   9.403   0.979  1.3880  0.9304 -0.0840
   92GLOH    O1 9456   3.747   9.326   0.947  0.3903  0.0759  0.3875
   92GLOH    C1 9457   3.667   9.264   0.849 -0.3143 -0.5042 -0.5574
   92GLOH   H02 9458   3.567   9.254   0.891 -1.2900  1.1147 -2.4052
   92GLOH   H08 9459   3.718   9.174   0.815  0.1426 -0.9256  1.2041
   92GLOH    C2 9460   3.648   9.348   0.723  0.3036 -0.0151  0.1962
   92GLOH   H04 9461   3.742   9.394   0.691  0.2603  0.1209  0.2630
   92GLOH    O2 9462   3.574   9.279   0.616 -0.2475  0.2336 -0.3201
   92GLOH   H05 9463   3.593   9.184   0.630 -1.3190  0.1913  0.9807
   92GLOH    C3 9464   3.571   9.474   0.758  0.2903 -0.0239  0.0104
   92GLOH   H06 9465   3.464   9.451   0.768  0.2541  0.5242  0.9940
   92GLOH   H07 9466   3.571   9.547   0.677  2.5629 -0.4297 -0.3654
   92GLOH    O3 9467   3.617   9.540   0.872  0.7403 -0.4349 -0.2895
   92GLOH   H01 9468   3.691   9.598   0.844  0.7200  0.1034  0.7470
   93GLOH   H03 9469   3.999   5.444   0.281  0.2929 -1.1573  0.9044
   93GLOH    O1 9470   3.921   5.440   0.339 -0.0598  0.3441  0.5744
   93GLOH    C1 9471   3.880   5.307   0.387 -1.3909  0.4281 -0.0637
   93GLOH   H02 9472   3.869   5.241   0.301  1.5467  0.5110 -0.5618
   93GLOH   H08 9473   3.783   5.307   0.437 -1.2009 -2.9298  0.4633
   93GLOH    C2 9474   3.975   5.248   0.497 -0.0532 -0.2776 -0.0445
   93GLOH   H04 9475   4.077   5.218   0.472 -0.1831  0.0170 -0.9557
   93GLOH    O2 9476   3.983   5.348   0.604  0.3826  0.1401 -0.0915
   93GLOH   H05 9477   3.919   5.418   0.583  1.1764  0.8988 -0.0109
   93GLOH    C3 9478   3.910   5.118   0.551 -0.4090  1.0977  1.0757
   93GLOH   H06 9479   3.810   5.138   0.587 -1.2587  0.6444 -0.9284
   93GLOH   H07 9480   3.970   5.077   0.633  0.1630  2.2923  1.2548
   93GLOH    O3 9481   3.908   5.022   0.441  0.2589  0.3735  0.8125
   93GLOH   H01 9482   3.979   5.048   0.379 -1.0851  1.7828 -0.1634
   94GLOH   H03 9483   2.831   6.744   1.783 -0.7241  0.4266 -0.3195
   94GLOH    O1 9484   2.917   6.759   1.827 -0.7170 -0.2181 -0.1115
   94GLOH    C1 9485   2.962   6.890   1.802  0.1566 -0.5643  0.1557
   94GLOH   H02 9486   2.954   6.914   1.696  0.5048 -0.1476  0.2208
   94GLOH   H08 9487   3.067   6.903   1.829  0.1370 -1.2282  0.5511
   94GLOH    C2 9488   2.871   6.995   1.872 -0.5030 -0.2438 -0.5065
   94GLOH   H04 9489   2.767   6.969   1.845 -0.6686 -0.2398  0.1318
   94GLOH    O2 9490   2.890   6.990   2.016  0.5655 -0.1487  0.3886
   94GLOH   H05 9491   2.887   6.898   2.049  2.0288 -0.5078 -0.4215
   94GLOH    C3 9492   2.902   7.145   1.833  0.6845 -0.2501 -0.2081
   94GLOH   H06 9493   3.006   7.171   1.853  1.0725 -0.8574 -1.3433
   94GLOH   H07 9494   2.841   7.213   1.891  0.5164 -0.2617 -0.3726
   94GLOH    O3 9495   2.873   7.185   1.697  0.3653 -0.6104  0.2029
   94GLOH   H01 9496   2.908   7.276   1.690  0.3826 -0.7518 -2.1196
   95GLOH   H03 9497   2.877   9.293   1.057 -0.1368  0.8369 -1.1410
   95GLOH    O1 9498   2.808   9.231   1.028 -0.0854  0.4023 -0.3212
   95GLOH    C1 9499   2.840   9.171   0.904 -0.0532  0.2179  0.2568
   95GLOH   H02 9500   2.799   9.070   0.893 -1.3799  0.9739 -2.1940
   95GLOH   H08 9501   2.947   9.157   0.895 -0.3299 -0.3999 -2.8084
   95GLOH    C2 9502   2.799   9.258   0.785 -0.0834 -0.0964 -0.8637
   95GLOH   H04 9503   2.856   9.353   0.787 -1.3844  0.7103 -1.5907
   95GLOH    O2 9504   2.844   9.186   0.666 -0.0897 -0.5579 -0.0213
   95GLOH   H05 9505   2.798   9.101   0.670 -0.0714 -0.4483  5.3156
   95GLOH    C3 9506   2.648   9.297   0.782 -0.4593 -0.2484 -0.3110
   95GLOH   H06 9507   2.594   9.211   0.744 -1.3582  0.2573 -0.1959
   95GLOH   H07 9508   2.641   9.379   0.710 -1.5937 -1.3635 -1.4877
   95GLOH    O3 9509   2.608   9.343   0.912 -0.3147 -0.0224  0.3246
   95GLOH   H01 9510   2.646   9.281   0.977 -0.8898 -1.7619 -0.9626
   96GLOH   H03 9511   4.105   9.389   2.183 -2.6881 -0.3907 -0.1609
   96GLOH    O1 9512   4.116   9.386   2.279  0.7109 -0.0953 -0.4956
   96GLOH    C1 9513   4.067   9.512   2.345 -0.2046  0.1759  0.2293
   96GLOH   H02 9514   3.974   9.552   2.305  0.6325  1.4520 -0.4465
   96GLOH   H08 9515   4.139   9.593   2.332  0.0649 -0.2003 -0.6116
   96GLOH    C2 9516   4.049   9.487   2.496 -0.4580  0.4003  0.0447
   96GLOH   H04 9517   4.145   9.444   2.529 -1.0873  0.4128  1.9542
   96GLOH    O2 9518   4.017   9.613   2.559  0.4521 -0.3294 -0.2757
   96GLOH   H05 9519   3.993   9.601   2.652 -0.5692 -1.4889 -0.6657
   96GLOH    C3 9520   3.944   9.383   2.522  0.1209  0.3951 -0.4497
   96GLOH   H06 9521   3.926   9.377   2.630  0.1017  1.2999 -0.4002
   96GLOH   H07 9522   3.980   9.284   2.495 -1.5504 -0.2081 -0.5347
   96GLOH    O3 9523   3.815   9.397   2.460 -0.2176 -0.1849  0.3468
   96GLOH   H01 9524   3.763   9.316   2.478 -0.2431 -0.0433  0.9153
   97GLOH   H03 9525   3.777   9.242   0.004 -0.0915  1.0508 -0.0646
   97GLOH    O1 9526   3.801   9.257   0.097 -0.0902 -0.4018  0.1704
   97GLOH    C1 9527   3.733   9.362   0.167  0.2326  0.3682 -0.2803
   97GLOH   H02 9528   3.625   9.352   0.163  0.2167  0.4842 -0.1351
   97GLOH   H08 9529   3.755   9.458   0.120 -1.5641  1.5842  1.2727
   97GLOH    C2 9530   3.771   9.382   0.318  0.2063  0.6188  0.1928
   97GLOH   H04 9531   3.749   9.280   0.354 -1.7087  1.0386  0.2879
   97GLOH    O2 9532   3.914   9.414   0.333 -0.3634 -0.0541 -0.3877
   97GLOH   H05 9533   3.966   9.332   0.331 -0.8879 -0.4087  0.7227
   97GLOH    C3 9534   3.676   9.488   0.383 -0.0797  0.1254 -0.0512
   97GLOH   H06 9535   3.673   9.581   0.326  1.5728  0.9449  1.1468
   97GLOH   H07 9536   3.715   9.515   0.482 -1.1600  1.1690  0.1053
   97GLOH    O3 9537   3.541   9.438   0.403  0.1660  0.2884 -0.0273
   97GLOH   H01 9538   3.542   9.352   0.449  2.1078 -0.2367 -1.0312
   98GLOH   H03 9539   2.492   1.518   0.975 -0.4749  0.8175 -0.1075
   98GLOH    O1 9540   2.439   1.469   1.041 -0.0206  0.2532 -0.1559
   98GLOH    C1 9541   2.525   1.431   1.147 -0.2353  0.1719  0.8216
   98GLOH   H02 9542   2.586   1.348   1.111 -0.2944 -0.3079  1.7937
   98GLOH   H08 9543   2.471   1.380   1.226 -0.7931  1.3208  1.1923
   98GLOH    C2 9544   2.622   1.542   1.203  0.2932 -0.0151 -0.0319
   98GLOH   H04 9545   2.695   1.571   1.126 -0.4881  1.5002 -0.2366
   98GLOH    O2 9546   2.558   1.662   1.252 -0.6588 -0.0249 -0.2592
   98GLOH   H05 9547   2.632   1.723   1.268  0.2992 -0.3985 -3.0084
   98GLOH    C3 9548   2.698   1.480   1.319  0.4435 -0.1853 -0.1339
   98GLOH   H06 9549   2.639   1.481   1.411 -0.6465 -1.3751 -0.8113
   98GLOH   H07 9550   2.781   1.548   1.343  0.1845  0.1491 -0.1857
   98GLOH    O3 9551   2.760   1.351   1.292  0.2601  0.6853 -0.3419
   98GLOH   H01 9552   2.802   1.316   1.373  1.9190 -0.2387 -1.5923
   99GLOH   H03 9553   1.989   1.475   1.578  0.2946  2.8182  0.3042
   99GLOH    O1 9554   1.905   1.459   1.625  0.4581  0.2630 -0.2054
   99GLOH    C1 9555   1.922   1.435   1.769 -0.0290  0.1204  0.0218
   99GLOH   H02 9556   1.861   1.495   1.835 -0.1098 -0.8878  0.8726
   99GLOH   H08 9557   2.024   1.456   1.800 -0.0149  1.9260 -1.1485
   99GLOH    C2 9558   1.895   1.293   1.800  0.3340 -0.6989 -0.4102
   99GLOH   H04 9559   1.936   1.234   1.716 -1.6812  1.1547 -2.7673
   99GLOH    O2 9560   1.955   1.244   1.923  0.4454  0.3689  0.3632
   99GLOH   H05 9561   1.944   1.147   1.927 -2.1353  0.6860  2.3039
   99GLOH    C3 9562   1.746   1.252   1.788  0.1115 -0.6354 -0.6296
   99GLOH   H06 9563   1.682   1.304   1.859 -1.8510 -4.2363  0.3278
   99GLOH   H07 9564   1.746   1.145   1.806  0.2407 -0.6662 -0.8190
   99GLOH    O3 9565   1.696   1.292   1.656 -0.5204 -0.3305 -0.4903
   99GLOH   H01 9566   1.763   1.359   1.632 -0.0409 -0.8632 -0.6555
  100GLOH   H03 9567   2.995   2.174   1.418 -1.1908  0.1188 -0.5986
  100GLOH    O1 9568   2.988   2.176   1.515 -0.0311  0.2787 -0.5078
  100GLOH    C1 9569   3.068   2.068   1.572  0.1842  0.1732 -0.3506
  100GLOH   H02 9570   3.002   1.998   1.623  1.1884 -1.5240 -1.3207
  100GLOH   H08 9571   3.140   2.109   1.643  0.1262 -0.9048  0.3426
  100GLOH    C2 9572   3.155   1.995   1.469 -0.0314  0.0636 -0.2552
  100GLOH   H04 9573   3.097   1.933   1.400  0.6644  1.4820 -2.1792
  100GLOH    O2 9574   3.251   2.076   1.391  0.1015 -0.8633  0.3199
  100GLOH   H05 9575   3.243   2.034   1.303 -1.7750 -2.0178  0.9876
  100GLOH    C3 9576   3.247   1.896   1.533  0.1448  0.3406 -0.5395
  100GLOH   H06 9577   3.328   1.954   1.576  0.6770 -1.1825  0.5796
  100GLOH   H07 9578   3.293   1.837   1.454 -2.3219 -0.2854 -1.5733
  100GLOH    O3 9579   3.169   1.821   1.623 -0.1473 -0.3978 -0.1649
  100GLOH   H01 9580   3.164   1.868   1.708  0.7094  2.5066 -1.6665
  101GLOH   H03 9581   5.275   4.441  -0.024 -2.1281 -1.0923  0.8950
  101GLOH    O1 9582   5.313   4.426   0.064  0.0458  0.6211  0.2953
  101GLOH    C1 9583   5.448   4.373   0.052 -0.0532  0.5299  0.5975
  101GLOH   H02 9584   5.522   4.450   0.074 -0.5220  0.7861  1.2936
  101GLOH   H08 9585   5.472   4.344  -0.050  1.1938 -0.2522  1.0977
  101GLOH    C2 9586   5.462   4.247   0.138  0.4617 -0.2838  0.0308
  101GLOH   H04 9587   5.375   4.185   0.111  1.0756 -1.1319  0.0010
  101GLOH    O2 9588   5.580   4.179   0.118  0.0513 -0.1427 -0.2972
  101GLOH   H05 9589   5.654   4.231   0.153 -0.2910  1.4086 -1.7766
  101GLOH    C3 9590   5.457   4.280   0.290 -0.1627 -0.5230  0.3058
  101GLOH   H06 9591   5.552   4.323   0.322  1.0592 -2.6307 -0.4272
  101GLOH   H07 9592   5.452   4.185   0.342  2.0937 -0.0900  1.3715
  101GLOH    O3 9593   5.336   4.359   0.311 -0.1931 -0.5014 -0.5701
  101GLOH   H01 9594   5.335   4.440   0.257 -1.6812  0.1262  0.3495
  102GLOH   H03 9595   4.644   4.066   1.595 -0.4588 -0.6462  0.2809
  102GLOH    O1 9596   4.721   4.064   1.655 -0.0844 -0.2211 -0.1848
  102GLOH    C1 9597   4.685   4.104   1.783 -0.2805 -0.2412 -1.4584
  102GLOH   H02 9598   4.691   4.013   1.843  0.6275  2.1840  2.2894
  102GLOH   H08 9599   4.584   4.144   1.784  0.1969  0.9958 -0.9419
  102GLOH    C2 9600   4.790   4.205   1.834 -0.1369 -0.3913  0.9512
  102GLOH   H04 9601   4.792   4.288   1.762 -2.8760 -0.9249  0.2132
  102GLOH    O2 9602   4.756   4.242   1.971 -0.2000  0.1534 -0.4992
  102GLOH   H05 9603   4.662   4.261   1.961 -0.6792 -0.9059  1.7410
  102GLOH    C3 9604   4.924   4.139   1.844 -0.6664  0.9595  0.3706
  102GLOH   H06 9605   4.911   4.061   1.919 -0.3443  0.1425 -0.4099
  102GLOH   H07 9606   4.998   4.211   1.879  1.0022 -1.1246  1.2758
  102GLOH    O3 9607   4.961   4.071   1.719  0.0073  0.0886 -0.0705
  102GLOH   H01 9608   4.877   4.032   1.686  0.2231 -2.6600  2.4820
  103GLOH   H03 9609   4.377   8.762   0.389 -0.2215  3.6267 -0.1012
  103GLOH    O1 9610   4.417   8.762   0.478 -0.0303 -0.9475 -0.0674
  103GLOH    C1 9611   4.507   8.877   0.482 -0.0984  0.3919 -0.2803
  103GLOH   H02 9612   4.594   8.864   0.418 -0.0685 -0.2912 -0.1060
  103GLOH   H08 9613   4.548   8.894   0.581  0.2692  0.4934 -0.4496
  103GLOH    C2 9614   4.448   9.003   0.428  1.1305 -0.4952 -0.2509
  103GLOH   H04 9615   4.513   9.090   0.448  1.7209 -1.0945  0.4791
  103GLOH    O2 9616   4.414   9.004   0.293 -0.2896 -0.5936 -0.9975
  103GLOH   H05 9617   4.372   9.088   0.268 -0.8320 -1.0666 -1.6872
  103GLOH    C3 9618   4.319   9.037   0.505  0.2343  0.1988 -0.4472
  103GLOH   H06 9619   4.242   8.968   0.474  1.4321 -0.8565 -1.0982
  103GLOH   H07 9620   4.286   9.137   0.477 -1.5414 -0.3046 -0.2184
  103GLOH    O3 9621   4.325   9.033   0.652 -0.5608  0.2312 -0.3227
  103GLOH   H01 9622   4.357   8.944   0.677  2.6815  1.5519  0.4740
  104GLOH   H03 9623   2.009   1.095   0.711 -0.3695  1.7250 -2.5720
  104GLOH    O1 9624   2.045   1.178   0.747  0.0280  0.5897 -0.2060
  104GLOH    C1 9625   2.188   1.185   0.725  0.4339 -0.7948 -0.0209
  104GLOH   H02 9626   2.224   1.086   0.697  3.0297  0.2779 -0.5971
  104GLOH   H08 9627   2.246   1.225   0.807  0.2310 -1.1030  0.2748
  104GLOH    C2 9628   2.224   1.278   0.608 -0.3045  0.0383 -0.0535
  104GLOH   H04 9629   2.165   1.242   0.522  0.9139  0.2178 -0.9849
  104GLOH    O2 9630   2.199   1.415   0.627  0.7821  0.2280 -0.7141
  104GLOH   H05 9631   2.105   1.439   0.629  0.3804 -1.2319 -1.3160
  104GLOH    C3 9632   2.367   1.266   0.560 -0.1103  0.2467 -0.3160
  104GLOH   H06 9633   2.433   1.296   0.642 -0.3488  2.5385 -0.9286
  104GLOH   H07 9634   2.380   1.335   0.476 -2.4077  0.1158 -0.7952
  104GLOH    O3 9635   2.395   1.132   0.513  0.0337 -0.0374  0.1853
  104GLOH   H01 9636   2.479   1.124   0.463  0.4572 -1.4170  1.0811
  105GLOH   H03 9637   4.275   2.494   1.320 -0.5457 -1.3503  0.2242
  105GLOH    O1 9638   4.323   2.439   1.385  0.1744 -0.1231  0.7525
  105GLOH    C1 9639   4.297   2.304   1.344  0.1051  0.1367 -0.2515
  105GLOH   H02 9640   4.380   2.236   1.362  1.1634  1.6941  0.8365
  105GLOH   H08 9641   4.291   2.307   1.235 -0.0215  1.5773 -0.2206
  105GLOH    C2 9642   4.164   2.250   1.386 -0.2627 -0.3344  0.3149
  105GLOH   H04 9643   4.086   2.310   1.337 -0.2281  1.4129  2.3111
  105GLOH    O2 9644   4.159   2.109   1.359 -0.0567  0.0508  0.2139
  105GLOH   H05 9645   4.069   2.087   1.332  0.9490 -0.4908 -2.9217
  105GLOH    C3 9646   4.150   2.273   1.538 -0.1954  0.2444 -0.1252
  105GLOH   H06 9647   4.243   2.241   1.585 -0.1116  1.4988  0.5875
  105GLOH   H07 9648   4.075   2.205   1.577  0.5749 -2.0719 -2.5191
  105GLOH    O3 9649   4.127   2.407   1.588  0.0585  0.0247  0.0881
  105GLOH   H01 9650   4.214   2.447   1.567 -1.6959  3.8052 -0.5793
  106GLOH   H03 9651   4.250   9.201  -0.147 -1.0411  0.4598 -0.4245
  106GLOH    O1 9652   4.204   9.160  -0.072  0.3435 -0.3726 -0.0212
  106GLOH    C1 9653   4.211   9.017  -0.096  0.7571  0.4299  1.1527
  106GLOH   H02 9654   4.308   8.986  -0.056  1.5622 -1.5751 -2.1188
  106GLOH   H08 9655   4.217   8.992  -0.202  1.5528 -0.1267  1.3207
  106GLOH    C2 9656   4.093   8.937  -0.040 -0.5371  0.6971  0.2205
  106GLOH   H04 9657   3.999   8.981  -0.077 -1.0317  1.2017  2.0242
  106GLOH    O2 9658   4.114   8.798  -0.082 -0.2509 -0.6039 -0.3866
  106GLOH   H05 9659   4.038   8.752  -0.044  2.4361 -2.8886  2.4306
  106GLOH    C3 9660   4.082   8.960   0.113  0.5363 -0.1085  0.2400
  106GLOH   H06 9661   4.053   9.065   0.122 -1.2387 -0.5322 -0.3571
  106GLOH   H07 9662   4.175   8.943   0.167 -0.0477 -0.8104  1.0305
  106GLOH    O3 9663   3.976   8.879   0.180  0.5940 -0.5069  0.4974
  106GLOH   H01 9664   4.016   8.790   0.190 -1.1872 -1.1489  1.9974
  107GLOH   H03 9665   5.030   2.761   1.695  0.2311 -0.3785  1.8293
  107GLOH    O1 9666   5.089   2.837   1.715 -0.4469  0.5226  0.4869
  107GLOH    C1 9667   5.055   2.912   1.828 -0.1888 -0.2877  0.1829
  107GLOH   H02 9668   4.958   2.961   1.821 -1.0601 -1.9700  0.1713
  107GLOH   H08 9669   5.131   2.988   1.842  0.1099 -0.7880  1.3334
  107GLOH    C2 9670   5.074   2.830   1.959  0.0971  0.0316  0.5750
  107GLOH   H04 9671   5.162   2.769   1.937 -0.4036 -0.2393 -0.7583
  107GLOH    O2 9672   5.078   2.910   2.079  0.2169 -0.0405 -0.0214
  107GLOH   H05 9673   4.996   2.957   2.101  0.0491  0.8204 -2.2570
  107GLOH    C3 9674   4.969   2.713   1.973 -0.5125 -0.2594 -0.2370
  107GLOH   H06 9675   4.986   2.655   2.064 -2.0221 -1.2873 -0.5892
  107GLOH   H07 9676   4.983   2.642   1.891 -0.1442 -0.8927  0.3664
  107GLOH    O3 9677   4.839   2.767   1.980  0.7718 -0.5205  0.1881
  107GLOH   H01 9678   4.855   2.853   2.024  1.9950 -0.0821 -1.0656
  108GLOH   H03 9679   2.883   1.818   0.414 -1.4124 -1.4660 -0.2243
  108GLOH    O1 9680   2.881   1.881   0.341 -0.0727 -0.2028  0.7925
  108GLOH    C1 9681   2.750   1.913   0.292 -0.2625 -0.0417  0.8231
  108GLOH   H02 9682   2.764   1.985   0.212 -0.4121 -1.2959 -0.3590
  108GLOH   H08 9683   2.685   1.962   0.365  0.0484  0.2638  0.8954
  108GLOH    C2 9684   2.685   1.783   0.237  0.5177 -0.8717 -0.6482
  108GLOH   H04 9685   2.647   1.725   0.322 -0.1308  0.6434  0.1190
  108GLOH    O2 9686   2.569   1.813   0.159 -0.3664  0.1065 -0.2335
  108GLOH   H05 9687   2.552   1.733   0.107  2.5906 -0.4781 -0.3839
  108GLOH    C3 9688   2.778   1.683   0.172  0.3734 -0.5966  0.0363
  108GLOH   H06 9689   2.721   1.591   0.156 -1.2469 -0.0096  2.2470
  108GLOH   H07 9690   2.850   1.645   0.244  1.5590  0.7901 -0.3707
  108GLOH    O3 9691   2.857   1.725   0.058 -0.2236  0.1133  0.1442
  108GLOH   H01 9692   2.925   1.784   0.095 -0.7631  0.7397  0.1456
  109GLOH   H03 9693   3.055   1.671   1.613  1.6071 -2.6069  0.8527
  109GLOH    O1 9694   2.965   1.634   1.611  0.4108  0.1760  0.4696
  109GLOH    C1 9695   2.880   1.704   1.701 -0.2506 -0.2267 -0.0896
  109GLOH   H02 9696   2.895   1.811   1.686 -1.1238 -0.2812 -1.4907
  109GLOH   H08 9697   2.912   1.690   1.804 -1.3030 -0.5586  0.1999
  109GLOH    C2 9698   2.736   1.664   1.689  0.3838 -0.0768  0.0222
  109GLOH   H04 9699   2.692   1.705   1.781  0.6926 -1.2721  0.7160
  109GLOH    O2 9700   2.677   1.728   1.574  0.0864  0.4645  0.2339
  109GLOH   H05 9701   2.580   1.729   1.579  0.1504 -1.0838  2.5506
  109GLOH    C3 9702   2.702   1.515   1.694  0.1490  0.4240 -0.0243
  109GLOH   H06 9703   2.737   1.481   1.597 -1.0971 -2.1099  0.3788
  109GLOH   H07 9704   2.595   1.498   1.708  0.0590  0.7696 -0.3117
  109GLOH    O3 9705   2.770   1.454   1.802  0.0937  0.7297 -0.2050
  109GLOH   H01 9706   2.725   1.482   1.884 -3.1644  1.9083 -2.2843
  110GLOH   H03 9707   2.261   1.110   1.212 -0.3324 -0.7451 -1.5986
  110GLOH    O1 9708   2.185   1.129   1.271  0.5205 -0.7701 -0.4690
  110GLOH    C1 9709   2.168   1.274   1.278  1.0367  0.1424  0.0850
  110GLOH   H02 9710   2.119   1.316   1.190  0.5381 -0.3241  0.1345
  110GLOH   H08 9711   2.264   1.325   1.281  0.7712  0.6472  0.2136
  110GLOH    C2 9712   2.087   1.321   1.404  0.2115 -0.0048  0.2160
  110GLOH   H04 9713   2.130   1.295   1.502  0.2929  1.5525  0.6020
  110GLOH    O2 9714   2.069   1.459   1.410  0.3817  0.1782 -0.1913
  110GLOH   H05 9715   2.153   1.507   1.399  0.3413  0.1021 -0.8459
  110GLOH    C3 9716   1.953   1.253   1.399 -0.1024 -0.8244  0.2381
  110GLOH   H06 9717   1.923   1.245   1.295  1.4393 -1.3724 -0.1747
  110GLOH   H07 9718   1.874   1.309   1.449  0.0692  0.2793 -0.7310
  110GLOH    O3 9719   1.977   1.119   1.442  0.0911  0.2588 -0.3063
  110GLOH   H01 9720   2.059   1.087   1.400 -0.0423 -0.6181  0.0998
  111GLOH   H03 9721   3.156   4.979   2.351  1.1201  0.1144 -0.8183
  111GLOH    O1 9722   3.139   4.891   2.391  0.8336  0.5733  0.0798
  111GLOH    C1 9723   3.072   4.810   2.292  0.2175  0.3650  0.0237
  111GLOH   H02 9724   2.987   4.861   2.249 -0.2833 -1.0752 -0.7476
  111GLOH   H08 9725   3.040   4.716   2.339  0.3172  0.0675 -0.4977
  111GLOH    C2 9726   3.163   4.796   2.165 -0.1958 -0.3864 -0.4394
  111GLOH   H04 9727   3.199   4.897   2.144 -0.5085 -0.5915 -2.0369
  111GLOH    O2 9728   3.286   4.720   2.172  0.0693 -0.6910 -0.1552
  111GLOH   H05 9729   3.267   4.633   2.134 -0.7460 -0.5328 -0.1166
  111GLOH    C3 9730   3.082   4.755   2.042 -1.0436 -0.3627  0.0526
  111GLOH   H06 9731   3.018   4.674   2.077  1.5902 -1.5563  2.3324
  111GLOH   H07 9732   3.146   4.719   1.960  1.1020 -1.8012  2.2735
  111GLOH    O3 9733   3.010   4.859   1.982 -0.8818 -0.6754 -0.6197
  111GLOH   H01 9734   3.072   4.906   1.922  0.3049  0.0641  1.1404
  112GLOH   H03 9735   3.252   5.942   2.429 -0.3757 -0.3230 -0.4909
  112GLOH    O1 9736   3.215   6.026   2.397 -0.2734  0.0138  0.2709
  112GLOH    C1 9737   3.260   6.150   2.461 -0.5709 -0.4410  0.2327
  112GLOH   H02 9738   3.354   6.188   2.422 -1.2025  1.0487  0.1046
  112GLOH   H08 9739   3.288   6.130   2.565  1.6460  2.5155  0.2824
  112GLOH    C2 9740   3.154   6.260   2.458 -0.4040  0.3232 -0.1852
  112GLOH   H04 9741   3.060   6.233   2.509 -0.0528 -0.7857 -0.0983
  112GLOH    O2 9742   3.211   6.379   2.515  0.0855 -0.6370 -0.2345
  112GLOH   H05 9743   3.156   6.406   2.591  1.8544  0.7716  0.5822
  112GLOH    C3 9744   3.108   6.281   2.311 -0.0171  0.0300 -0.6163
  112GLOH   H06 9745   3.181   6.341   2.256 -0.4703 -0.3330 -1.6241
  112GLOH   H07 9746   3.026   6.352   2.321 -0.2097 -0.3554  0.7007
  112GLOH    O3 9747   3.052   6.161   2.251  0.2232 -0.1536 -0.2376
  112GLOH   H01 9748   3.108   6.087   2.280  2.5734  2.3207  1.8602
  113GLOH   H03 9749   3.414   9.089   0.452  0.1245  0.3847  0.6470
  113GLOH    O1 9750   3.352   9.049   0.515 -0.1803 -0.1519  0.0072
  113GLOH    C1 9751   3.225   9.028   0.460  0.5131 -0.2172  0.0240
  113GLOH   H02 9752   3.235   8.981   0.362  1.4968  1.9691 -0.9643
  113GLOH   H08 9753   3.168   9.119   0.443 -1.2608 -1.2465  0.3062
  113GLOH    C2 9754   3.136   8.939   0.552 -0.3396  0.2186 -0.4753
  113GLOH   H04 9755   3.041   8.921   0.500 -1.2664  0.7331  0.9921
  113GLOH    O2 9756   3.178   8.802   0.535  0.2420  0.2125 -0.1643
  113GLOH   H05 9757   3.137   8.776   0.450  0.3323 -0.6347  0.0443
  113GLOH    C3 9758   3.130   9.006   0.685 -0.6930 -0.0756  0.3782
  113GLOH   H06 9759   3.215   8.981   0.749  0.8681  1.1422 -1.1497
  113GLOH   H07 9760   3.058   8.947   0.741  0.1706  0.2612  1.8618
  113GLOH    O3 9761   3.098   9.149   0.691  0.0081  0.1898  0.1240
  113GLOH   H01 9762   3.001   9.155   0.680  0.1733 -0.4725 -2.0287
  114GLOH   H03 9763   4.178   3.014   2.231  1.4963 -0.3961 -1.2656
  114GLOH    O1 9764   4.184   2.919   2.250  0.3603 -0.3852 -0.8765
  114GLOH    C1 9765   4.077   2.859   2.186 -0.1391 -0.8680 -0.1252
  114GLOH   H02 9766   4.083   2.751   2.172 -0.6715 -0.9548  0.2674
  114GLOH   H08 9767   4.072   2.890   2.082 -1.1507  0.7130  0.3708
  114GLOH    C2 9768   3.943   2.900   2.259 -0.1335 -0.6649  0.4082
  114GLOH   H04 9769   3.915   3.003   2.232 -1.2851 -0.2914  2.8791
  114GLOH    O2 9770   3.832   2.823   2.207  0.0250 -0.2517 -0.3718
  114GLOH   H05 9771   3.848   2.729   2.224 -0.2511  0.0998  1.9742
  114GLOH    C3 9772   3.945   2.881   2.408  0.4726  0.1578 -0.2494
  114GLOH   H06 9773   3.862   2.925   2.463 -0.7872 -2.9511  0.4186
  114GLOH   H07 9774   4.031   2.941   2.435 -0.7108  2.1208 -0.7215
  114GLOH    O3 9775   3.972   2.746   2.459  0.1835  0.5350 -0.5524
  114GLOH   H01 9776   3.960   2.749   2.555  0.5503 -3.5910 -0.3284
  115GLOH   H03 9777   4.175   0.851  -0.028 -0.1531 -0.3496 -2.1468
  115GLOH    O1 9778   4.256   0.798  -0.036  0.3421  0.1151 -0.3448
  115GLOH    C1 9779   4.285   0.739   0.091 -0.0104  0.0323 -0.3786
  115GLOH   H02 9780   4.368   0.668   0.084  1.3794  1.5751  0.0903
  115GLOH   H08 9781   4.201   0.684   0.133  0.5070  0.1466  0.8349
  115GLOH    C2 9782   4.321   0.837   0.204  0.8278 -0.0402 -0.3128
  115GLOH   H04 9783   4.257   0.925   0.188 -1.4044 -1.5777 -0.1907
  115GLOH    O2 9784   4.300   0.785   0.337  0.0262 -0.2447 -0.3104
  115GLOH   H05 9785   4.338   0.839   0.408 -2.3152  0.5344  0.3919
  115GLOH    C3 9786   4.465   0.886   0.182 -0.4046 -0.7444 -0.6932
  115GLOH   H06 9787   4.486   0.908   0.077  0.8437  0.0761 -0.2883
  115GLOH   H07 9788   4.537   0.811   0.213  0.6202 -0.2030 -1.7034
  115GLOH    O3 9789   4.483   1.012   0.261 -0.3739  0.8596  0.6084
  115GLOH   H01 9790   4.441   1.082   0.207 -0.4686  0.3495  0.0089
  116GLOH   H03 9791   4.623   1.779  -0.139  0.1779 -0.6276 -1.0218
  116GLOH    O1 9792   4.675   1.861  -0.143 -0.0675 -0.4405 -0.3262
  116GLOH    C1 9793   4.746   1.875  -0.023  0.0285  0.0123 -0.0475
  116GLOH   H02 9794   4.819   1.956  -0.012 -1.4957  1.3915  0.0240
  116GLOH   H08 9795   4.804   1.785  -0.003 -0.2643  0.2184  1.8407
  116GLOH    C2 9796   4.647   1.896   0.099 -0.3544 -0.5163  0.0432
  116GLOH   H04 9797   4.713   1.876   0.185  0.0646  1.0632  0.1082
  116GLOH    O2 9798   4.595   2.035   0.098 -0.0157 -0.0367 -0.5240
  116GLOH   H05 9799   4.514   2.034   0.044 -0.4457 -0.1565  0.1131
  116GLOH    C3 9800   4.530   1.795   0.100 -0.1128 -0.1729 -0.8767
  116GLOH   H06 9801   4.454   1.822   0.173  2.6724  2.6552  1.1284
  116GLOH   H07 9802   4.582   1.710   0.143  1.4531  0.8288 -0.7318
  116GLOH    O3 9803   4.466   1.777  -0.025  0.5468 -0.3679 -0.5788
  116GLOH   H01 9804   4.442   1.870  -0.044 -0.1691  0.1271  2.4401
  117GLOH   H03 9805   2.213   0.986   1.997 -0.4787  0.5336  0.3082
  117GLOH    O1 9806   2.202   0.975   1.900 -0.0927 -0.0250  0.3232
  117GLOH    C1 9807   2.213   1.109   1.843 -0.0047  0.2909 -0.1652
  117GLOH   H02 9808   2.196   1.187   1.918  0.7513  2.6193 -2.3290
  117GLOH   H08 9809   2.140   1.133   1.766 -1.1153  0.5440  0.9415
  117GLOH    C2 9810   2.347   1.135   1.780  0.3180  0.4052 -0.4640
  117GLOH   H04 9811   2.431   1.091   1.836 -0.4238  0.9951  1.1463
  117GLOH    O2 9812   2.343   1.077   1.648  0.4582 -0.0474 -0.2951
  117GLOH   H05 9813   2.330   0.982   1.663  0.1596  0.2115  1.1960
  117GLOH    C3 9814   2.364   1.290   1.766 -0.2854 -0.7509 -0.1426
  117GLOH   H06 9815   2.271   1.332   1.727 -0.2764 -0.1784  0.4470
  117GLOH   H07 9816   2.444   1.311   1.695  0.7349 -1.5798  0.7307
  117GLOH    O3 9817   2.392   1.373   1.882 -0.0585  0.0826 -0.0739
  117GLOH   H01 9818   2.459   1.335   1.942 -2.0582  0.5214  2.5331
  118GLOH   H03 9819   3.186   8.927   2.387 -0.4788 -0.1460  0.6129
  118GLOH    O1 9820   3.208   8.980   2.466 -0.2156 -0.0546  0.4763
  118GLOH    C1 9821   3.119   9.093   2.471 -0.2368  0.2076  0.1549
  118GLOH   H02 9822   3.065   9.100   2.566 -0.2919 -0.1874  0.1537
  118GLOH   H08 9823   3.043   9.088   2.393 -0.9925  0.1707  0.8771
  118GLOH    C2 9824   3.193   9.223   2.445  0.5176 -0.8542  0.3807
  118GLOH   H04 9825   3.275   9.232   2.518  1.8868  0.7880 -1.3238
  118GLOH    O2 9826   3.260   9.222   2.315  0.2399 -0.1225 -0.1628
  118GLOH   H05 9827   3.347   9.180   2.326  0.9315  0.6952 -2.4481
  118GLOH    C3 9828   3.096   9.343   2.461  0.3942  0.1086  0.2443
  118GLOH   H06 9829   3.010   9.325   2.396  1.6450 -1.5278 -0.9997
  118GLOH   H07 9830   3.142   9.434   2.424  0.0780  1.0954  2.1822
  118GLOH    O3 9831   3.042   9.356   2.594  0.0018  0.0940 -1.0614
  118GLOH   H01 9832   2.975   9.428   2.593  0.2424  0.4590  2.2277
  119GLOH   H03 9833   5.021   3.632   2.413  1.1000  0.7199  2.6227
  119GLOH    O1 9834   5.053   3.714   2.371  0.5618 -0.1587  0.4484
  119GLOH    C1 9835   5.172   3.760   2.443 -0.6883 -0.9430 -0.4872
  119GLOH   H02 9836   5.209   3.852   2.397  0.1960 -0.2079  1.6212
  119GLOH   H08 9837   5.254   3.690   2.425  0.5109  0.1780  0.5030
  119GLOH    C2 9838   5.150   3.786   2.593  0.1827 -0.2345 -0.5590
  119GLOH   H04 9839   5.131   3.686   2.634  2.0876 -1.0297 -1.5462
  119GLOH    O2 9840   5.269   3.839   2.646 -0.1592  0.4932  0.1227
  119GLOH   H05 9841   5.268   3.826   2.742 -1.1137  1.0868  0.1981
  119GLOH    C3 9842   5.029   3.875   2.622  0.0077  0.2780 -0.6109
  119GLOH   H06 9843   4.949   3.834   2.560  0.4222  1.6442 -2.0852
  119GLOH   H07 9844   5.043   3.966   2.565 -3.3049  0.3162 -1.5003
  119GLOH    O3 9845   4.988   3.901   2.753  0.1443 -0.2544 -0.3148
  119GLOH   H01 9846   5.058   3.949   2.800  1.5301 -1.6961 -0.8321
  120GLOH   H03 9847   1.947   2.914   0.643 -0.2677 -0.2435 -1.8227
  120GLOH    O1 9848   2.042   2.934   0.635 -0.1428 -0.2839 -0.5281
  120GLOH    C1 9849   2.049   3.058   0.575 -0.2873 -0.1718  0.2576
  120GLOH   H02 9850   2.003   3.129   0.644 -0.8167  0.2808 -0.5495
  120GLOH   H08 9851   1.986   3.062   0.486  0.0876  2.0856  0.0551
  120GLOH    C2 9852   2.193   3.109   0.542  0.3235  0.0627  0.0593
  120GLOH   H04 9853   2.237   3.045   0.463 -1.1115  0.5691 -1.1898
  120GLOH    O2 9854   2.174   3.242   0.486  0.3628  0.5649  0.0229
  120GLOH   H05 9855   2.263   3.265   0.454 -0.2522  0.6720 -1.6552
  120GLOH    C3 9856   2.284   3.119   0.663 -0.2115  0.1753  0.5226
  120GLOH   H06 9857   2.233   3.182   0.737 -1.8229 -1.9992  1.3058
  120GLOH   H07 9858   2.384   3.148   0.632 -0.6966  0.3983 -0.8554
  120GLOH    O3 9859   2.278   2.992   0.731  0.2707  0.1788 -0.4619
  120GLOH   H01 9860   2.195   2.946   0.713  0.2348  0.2139 -0.3866
  121ACOH    H4 9861   4.349   8.744   0.633 -1.6282  2.0513 -1.1798
  121ACOH    O2 9862   4.292   8.745   0.711 -0.1047  0.6147 -0.0265
  121ACOH    C2 9863   4.275   8.613   0.738  0.0411  0.4754 -0.2376
  121ACOH    O1 9864   4.345   8.518   0.701 -0.4090 -0.7536  0.5782
  121ACOH    C1 9865   4.165   8.597   0.840  0.2692  0.5952  0.0315
  121ACOH    H1 9866   4.181   8.504   0.894  0.1635  0.7091  0.2558
  121ACOH    H2 9867   4.069   8.597   0.789 -0.1149  2.4894  0.7177
  121ACOH    H3 9868   4.165   8.681   0.909  2.0221 -0.3296  1.2267
  122ACOH    H4 9869   1.483   3.137   0.694  0.1729 -1.3163 -1.6153
  122ACOH    O2 9870   1.390   3.147   0.668 -0.1551  0.1333 -0.0137
  122ACOH    C2 9871   1.379   3.215   0.551  0.0769 -0.1771  0.0683
  122ACOH    O1 9872   1.458   3.269   0.478  0.6737  0.1609 -0.2022
  122ACOH    C1 9873   1.239   3.186   0.512 -0.4611  0.2295  0.5204
  122ACOH    H1 9874   1.206   3.235   0.421  0.1509 -0.0900  0.1254
  122ACOH    H2 9875   1.180   3.235   0.590  0.1037  2.1788 -0.2316
  122ACOH    H3 9876   1.220   3.079   0.504 -1.8769  0.4094  1.3181
  123ACOH    H4 9877   4.736   1.401   1.026  0.2226 -1.4574  0.8609
  123ACOH    O2 9878   4.799   1.462   1.067 -0.4028 -0.4758  0.3843
  123ACOH    C2 9879   4.748   1.502   1.181 -0.0622  0.1844  0.0400
  123ACOH    O1 9880   4.655   1.446   1.231  0.1349  0.1371 -0.2796
  123ACOH    C1 9881   4.800   1.625   1.249 -0.4324 -0.0581 -0.6987
  123ACOH    H1 9882   4.903   1.605   1.278 -1.0781  0.5645  2.1532
  123ACOH    H2 9883   4.737   1.655   1.333 -1.9397 -1.1630 -1.4155
  123ACOH    H3 9884   4.814   1.710   1.182 -0.4570  0.3547 -0.1795
  124ACOH    H4 9885   1.990   0.541   2.694 -1.4181 -0.8911  0.1765
  124ACOH    O2 9886   1.943   0.626   2.686 -0.2283 -0.2421 -0.0952
  124ACOH    C2 9887   1.893   0.647   2.562  0.9117  0.5846 -0.1869
  124ACOH    O1 9888   1.935   0.596   2.460  0.1735 -0.5002  0.7000
  124ACOH    C1 9889   1.818   0.775   2.552  0.6906  0.1030 -0.3746
  124ACOH    H1 9890   1.751   0.780   2.466  0.0753  0.8666  0.1344
  124ACOH    H2 9891   1.873   0.869   2.558 -0.5423  0.8294 -0.2205
  124ACOH    H3 9892   1.755   0.772   2.641  0.5471 -3.6461 -0.5179
  125ACOH    H4 9893   2.686   0.442   2.809 -1.1870  0.8956 -0.1184
  125ACOH    O2 9894   2.694   0.462   2.714 -0.1049 -0.0872 -0.2406
  125ACOH    C2 9895   2.698   0.350   2.638  0.6543  0.1491  0.0352
  125ACOH    O1 9896   2.643   0.246   2.666  0.2586  0.3760 -0.4751
  125ACOH    C1 9897   2.735   0.381   2.499  0.4768  0.4359  0.5320
  125ACOH    H1 9898   2.843   0.371   2.503  0.2703 -1.3763  2.5935
  125ACOH    H2 9899   2.686   0.470   2.459  0.1801  0.0177 -0.0473
  125ACOH    H3 9900   2.698   0.310   2.426  0.6995 -0.4149  1.2422
  126ACOH    H4 9901   4.603   0.371   0.930  0.2867  0.6461 -3.0410
  126ACOH    O2 9902   4.676   0.308   0.919 -0.0791 -0.3575 -0.0753
  126ACOH    C2 9903   4.746   0.351   0.813  0.0209 -0.3008  0.4217
  126ACOH    O1 9904   4.732   0.465   0.772 -0.1634  0.0339  0.6382
  126ACOH    C1 9905   4.853   0.259   0.776 -0.3391  0.3719  0.0422
  126ACOH    H1 9906   4.905   0.227   0.866  0.5724 -0.8499 -0.9078
  126ACOH    H2 9907   4.917   0.317   0.709 -0.3325  0.8589  0.4686
  126ACOH    H3 9908   4.809   0.168   0.736  0.2678 -0.2987  0.8871
  127ACOH    H4 9909   3.096   7.180   2.443 -2.2930  0.6515 -0.0633
  127ACOH    O2 9910   3.090   7.110   2.510  0.4745  0.3580 -0.0506
  127ACOH    C2 9911   3.027   7.005   2.441  0.1644 -0.8362  0.6474
  127ACOH    O1 9912   3.018   6.990   2.324 -0.1346 -0.4418 -0.1683
  127ACOH    C1 9913   2.985   6.899   2.536 -0.5320  0.4999 -0.5478
  127ACOH    H1 9914   2.877   6.909   2.540 -0.6190 -0.5858  0.1499
  127ACOH    H2 9915   3.033   6.898   2.634  0.6882  0.6966 -1.1389
  127ACOH    H3 9916   3.012   6.802   2.493  0.9632 -0.0498  1.5605
  128ACOH    H4 9917   5.355   9.377   1.326 -0.2764 -0.6398  0.1324
  128ACOH    O2 9918   5.365   9.312   1.255  0.0723  0.3806 -0.7597
  128ACOH    C2 9919   5.238   9.281   1.234 -0.3452 -0.8011 -0.5912
  128ACOH    O1 9920   5.153   9.364   1.250 -0.2228  0.1691  0.4721
  128ACOH    C1 9921   5.223   9.169   1.144 -0.2395  0.0496 -0.4627
  128ACOH    H1 9922   5.280   9.180   1.051 -0.0411 -0.8013 -0.4472
  128ACOH    H2 9923   5.120   9.148   1.117  0.1289 -0.3458 -1.6312
  128ACOH    H3 9924   5.262   9.084   1.200  2.7105  1.7403  0.1923
  129ACOH    H4 9925   4.617   1.499   1.863  0.5863  0.1059  0.6356
  129ACOH    O2 9926   4.674   1.573   1.834  0.2882  0.0305 -0.1729
  129ACOH    C2 9927   4.722   1.560   1.710  0.3634  0.4373  0.2371
  129ACOH    O1 9928   4.700   1.466   1.639 -0.8063 -0.1367 -0.3543
  129ACOH    C1 9929   4.823   1.660   1.676 -0.2650  0.3619  0.0247
  129ACOH    H1 9930   4.858   1.643   1.574  2.7141  1.0685  0.8778
  129ACOH    H2 9931   4.905   1.657   1.747 -0.9127 -2.0245  0.7371
  129ACOH    H3 9932   4.785   1.762   1.681 -1.2574  0.0207 -0.4553
  130ACOH    H4 9933   4.135   0.222   1.828 -0.2941  0.5279 -0.8877
  130ACOH    O2 9934   4.127   0.125   1.828 -0.5016  0.5445 -0.1941
  130ACOH    C2 9935   4.041   0.095   1.732 -0.0179  0.1737  0.2350
  130ACOH    O1 9936   3.983   0.173   1.661 -0.1501  0.3391  0.0590
  130ACOH    C1 9937   4.009  -0.050   1.734 -0.6610 -0.4648 -0.0877
  130ACOH    H1 9938   3.953  -0.085   1.821 -0.1810  1.9454  1.2509
  130ACOH    H2 9939   4.107  -0.098   1.729 -0.5102 -0.1519 -0.1429
  130ACOH    H3 9940   3.959  -0.071   1.640 -0.1631  1.3678 -0.7805
  131ACOH    H4 9941   4.182   8.783   2.467 -0.9588  1.8669 -1.8917
  131ACOH    O2 9942   4.226   8.753   2.386  0.2098 -0.5559 -0.3862
  131ACOH    C2 9943   4.147   8.762   2.277  0.2309  0.2810 -0.0358
  131ACOH    O1 9944   4.035   8.809   2.271  0.2844  0.1315 -0.9826
  131ACOH    C1 9945   4.214   8.717   2.155  0.1900  0.0475  0.2920
  131ACOH    H1 9946   4.281   8.795   2.117 -2.5654  2.7087  0.6720
  131ACOH    H2 9947   4.145   8.680   2.079 -0.3530 -2.6400  2.0375
  131ACOH    H3 9948   4.269   8.628   2.185  1.7767  0.2369 -1.9050
  132ACOH    H4 9949   1.663   0.753   1.735 -0.4438  0.2156  1.5390
  132ACOH    O2 9950   1.574   0.719   1.717 -0.1608 -0.0963  0.7255
  132ACOH    C2 9951   1.591   0.594   1.668  0.2396  0.1655  0.4824
  132ACOH    O1 9952   1.691   0.524   1.675  0.3092  0.4467 -0.5481
  132ACOH    C1 9953   1.470   0.535   1.607 -0.1879 -0.0181  0.2500
  132ACOH    H1 9954   1.412   0.471   1.674 -1.9704  1.7931  0.4747
  132ACOH    H2 9955   1.505   0.480   1.519 -2.2209 -3.2431  1.3438
  132ACOH    H3 9956   1.405   0.617   1.575 -0.3489 -0.6010 -0.9640
  133ACOH    H4 9957   5.217   2.884   2.181  0.0916 -2.0871 -0.2581
  133ACOH    O2 9958   5.304   2.864   2.221  0.3005 -0.8389 -0.0779
  133ACOH    C2 9959   5.297   2.737   2.259 -0.3256 -0.9763  0.0608
  133ACOH    O1 9960   5.203   2.666   2.238  0.8374 -1.0318  0.2326
  133ACOH    C1 9961   5.434   2.687   2.280  0.1137  0.5874  0.9702
  133ACOH    H1 9962   5.460   2.715   2.382 -0.0397  1.3708  0.7932
  133ACOH    H2 9963   5.494   2.744   2.209 -1.0491  1.0639  0.3566
  133ACOH    H3 9964   5.445   2.580   2.260 -0.0948  1.1931 -2.8505
  134ACOH    H4 9965   2.007   5.110  -0.025 -0.2962 -0.0379  0.1405
  134ACOH    O2 9966   2.069   5.041   0.004 -0.3046 -0.1893 -0.2073
  134ACOH    C2 9967   2.045   5.020   0.136 -0.4817 -0.2358 -0.8525
  134ACOH    O1 9968   1.987   5.087   0.214 -0.6391  0.1183  0.2427
  134ACOH    C1 9969   2.105   4.885   0.172 -0.3098 -0.5840  0.7162
  134ACOH    H1 9970   2.164   4.902   0.261  1.3103 -0.9659 -0.2665
  134ACOH    H2 9971   2.170   4.852   0.091 -1.1272  1.0434 -0.6285
  134ACOH    H3 9972   2.028   4.816   0.206 -3.5785  2.1456 -0.8548
  135ACOH    H4 9973   1.752   7.836   2.281  1.2484  1.7524  1.6439
  135ACOH    O2 9974   1.724   7.896   2.210  0.2168 -0.0843  0.4622
  135ACOH    C2 9975   1.659   7.993   2.276 -0.5094  0.4819 -0.0529
  135ACOH    O1 9976   1.653   8.002   2.400  0.4068 -0.3946 -0.1763
  135ACOH    C1 9977   1.629   8.112   2.190 -0.2271  0.2367 -0.3352
  135ACOH    H1 9978   1.652   8.079   2.089  1.0181 -0.3595  0.1317
  135ACOH    H2 9979   1.701   8.191   2.211  0.7087 -0.7907  0.3664
  135ACOH    H3 9980   1.527   8.146   2.209 -0.1638  0.4024 -0.2884
  136ACOH    H4 9981   1.989   4.658   1.551 -1.3733 -0.2837 -2.8804
  136ACOH    O2 9982   1.929   4.733   1.565 -0.0212  0.3060  0.2320
  136ACOH    C2 9983   1.879   4.751   1.441  0.4125  0.1134 -0.3910
  136ACOH    O1 9984   1.924   4.709   1.335  0.2533  0.0982  0.2027
  136ACOH    C1 9985   1.790   4.872   1.448  0.1333  0.9944 -0.2745
  136ACOH    H1 9986   1.742   4.894   1.353 -0.3346  2.1468  0.2309
  136ACOH    H2 9987   1.844   4.962   1.476  2.1070 -0.4399  0.6663
  136ACOH    H3 9988   1.719   4.851   1.528  0.7255 -2.7382 -0.6328
  137ACOH    H4 9989   3.672   7.731   0.842 -0.7852  2.2524  2.7936
  137ACOH    O2 9990   3.749   7.692   0.888 -0.0705  0.3547  0.0671
  137ACOH    C2 9991   3.695   7.623   0.989 -0.2006  0.1234  0.0707
  137ACOH    O1 9992   3.577   7.610   1.019  0.1052 -0.3949 -0.0181
  137ACOH    C1 9993   3.798   7.591   1.095  0.1839  0.0404  0.3963
  137ACOH    H1 9994   3.754   7.507   1.149  0.4477 -0.9687 -0.9109
  137ACOH    H2 9995   3.804   7.678   1.160  1.6020 -0.8095  1.4206
  137ACOH    H3 9996   3.893   7.574   1.044  0.4669  1.8930  0.2918
  138ACOH    H4 9997   4.417   5.122   2.684 -0.4740  0.7887 -0.0988
  138ACOH    O2 9998   4.462   5.119   2.598  0.2124  0.5286  0.2569
  138ACOH    C2 9999   4.403   5.030   2.515 -0.7137 -0.1030 -0.0270
  138ACOH    O110000   4.316   4.950   2.549 -0.2038  0.2755  0.6002
  138ACOH    C110001   4.462   5.042   2.381 -0.2303 -0.1637  0.5912
  138ACOH    H110002   4.401   4.980   2.314  0.3483 -0.4025  0.2803
  138ACOH    H210003   4.570   5.029   2.382 -0.2691 -1.2707 -2.5832
  138ACOH    H310004   4.441   5.146   2.355 -1.2202 -0.8640 -1.5109
  139ACOH    H410005   5.090   2.192   2.422 -0.3616 -4.4316 -2.0422
  139ACOH    O210006   5.099   2.232   2.334  0.4349 -0.0246 -0.0756
  139ACOH    C210007   5.184   2.158   2.259 -0.6795  0.0244  0.3933
  139ACOH    O110008   5.205   2.040   2.282 -0.3855  0.3965 -0.6058
  139ACOH    C110009   5.253   2.231   2.146  1.2095 -0.3076  0.2477
  139ACOH    H110010   5.184   2.290   2.086  1.0373 -2.0676 -1.3398
  139ACOH    H210011   5.313   2.168   2.080  2.2160  0.2024  0.6763
  139ACOH    H310012   5.315   2.311   2.187  0.8877 -0.5375  1.1949
  140ACOH    H410013   2.910   5.071   0.549  0.0093 -0.3756 -0.7144
  140ACOH    O210014   2.845   5.117   0.494 -0.0631 -0.2253 -0.5045
  140ACOH    C210015   2.862   5.248   0.520  0.9877 -0.0085  0.0552
  140ACOH    O110016   2.929   5.303   0.603 -0.1257  0.0139 -0.3812
  140ACOH    C110017   2.770   5.334   0.438 -0.4880 -0.2074  0.3954
  140ACOH    H110018   2.776   5.300   0.335 -0.7871 -0.4728  0.4658
  140ACOH    H210019   2.806   5.437   0.436 -0.1937 -0.3262 -3.0048
  140ACOH    H310020   2.669   5.329   0.479 -1.3466  0.2344 -1.6347
  141ACOH    H410021   5.080   2.707   1.230  0.2101  0.5008 -0.6616
  141ACOH    O210022   5.158   2.706   1.287  0.0310 -0.5922 -0.4121
  141ACOH    C210023   5.245   2.806   1.263  0.0059  0.2480 -0.0748
  141ACOH    O110024   5.224   2.909   1.196  0.8904 -0.6279 -0.4654
  141ACOH    C110025   5.370   2.796   1.347  0.3262 -0.2259  0.4344
  141ACOH    H110026   5.348   2.853   1.437 -1.8099 -1.7695  0.9197
  141ACOH    H210027   5.455   2.838   1.293 -0.8314 -1.2285 -2.2650
  141ACOH    H310028   5.401   2.698   1.385 -0.9265 -0.2385  1.4637
  142ACOH    H410029   4.229   9.307   2.349 -1.2315 -1.6085  0.5576
  142ACOH    O210030   4.297   9.245   2.381  0.3198 -0.1275  0.1880
  142ACOH    C210031   4.367   9.193   2.273  0.3111 -0.9380  0.2563
  142ACOH    O110032   4.397   9.257   2.173 -0.1142  0.0676  0.0056
  142ACOH    C110033   4.445   9.073   2.316 -0.5476 -0.5872  0.2248
  142ACOH    H110034   4.444   9.065   2.425  0.3393  2.9742  0.5367
  142ACOH    H210035   4.545   9.102   2.287 -0.0495  1.0266  3.3864
  142ACOH    H310036   4.411   8.980   2.269 -0.4307 -0.3957 -0.2411
  143ACOH    H410037   2.352   4.837   1.016 -0.6317  0.6800  0.3768
  143ACOH    O210038   2.289   4.830   0.942  0.1359  0.0798 -0.2375
  143ACOH    C210039   2.175   4.865   1.006 -0.1730  0.4102  0.9607
  143ACOH    O110040   2.162   4.934   1.102  0.2456  0.1549 -0.1383
  143ACOH    C110041   2.063   4.811   0.928  0.0719 -0.2459 -0.1366
  143ACOH    H110042   2.023   4.879   0.852 -2.5802  0.4563  1.8183
  143ACOH    H210043   1.980   4.793   0.997  1.1727 -0.4200  1.1610
  143ACOH    H310044   2.094   4.716   0.885  0.5284 -0.3740  0.4577
  144ACOH    H410045   1.626   2.368   0.520  2.1431  2.6922  1.0554
  144ACOH    O210046   1.555   2.434   0.514 -0.3188  0.0740 -0.2155
  144ACOH    C210047   1.540   2.457   0.386 -0.4609 -0.2801  0.1014
  144ACOH    O110048   1.602   2.417   0.290 -0.1036 -0.0103 -0.1230
  144ACOH    C110049   1.444   2.572   0.365 -0.0256  0.5700 -0.3539
  144ACOH    H110050   1.357   2.529   0.317  0.4301 -0.1258 -0.5676
  144ACOH    H210051   1.495   2.632   0.290 -0.8030  0.2583 -1.1317
  144ACOH    H310052   1.426   2.623   0.460  2.5524 -1.1597  1.1250
  145ACOH    H410053   1.872   4.596   1.171 -0.1623 -0.3279  0.6092
  145ACOH    O210054   1.849   4.548   1.090  0.4437  0.0380  0.2180
  145ACOH    C210055   1.740   4.610   1.038 -0.1651 -0.2797  0.0802
  145ACOH    O110056   1.664   4.679   1.096 -0.5154 -0.4711 -0.3903
  145ACOH    C110057   1.715   4.532   0.918 -1.0070  0.1156 -0.0464
  145ACOH    H110058   1.749   4.429   0.917  1.2146  0.7785 -3.4608
  145ACOH    H210059   1.768   4.584   0.838  0.3486 -1.1214  0.0273
  145ACOH    H310060   1.606   4.538   0.907 -1.1418 -0.1676  1.0570
  146ACOH    H410061   3.039   7.058   2.062  0.0539  0.7228  0.3196
  146ACOH    O210062   3.128   7.095   2.065  0.6618 -0.7148  0.5361
  146ACOH    C210063   3.109   7.218   2.120 -0.5819  0.4451 -0.0718
  146ACOH    O110064   3.015   7.290   2.107  0.2429 -0.0673  0.1921
  146ACOH    C110065   3.243   7.269   2.164 -0.7051 -0.1599  0.1272
  146ACOH    H110066   3.302   7.299   2.077 -1.4580 -1.3015 -0.7994
  146ACOH    H210067   3.289   7.189   2.222 -3.2582 -1.9740 -0.2633
  146ACOH    H310068   3.253   7.352   2.233  2.4273  0.0066 -0.4254
  147ACOH    H410069   2.986   6.473   0.974  3.6281 -0.9267 -0.9186
  147ACOH    O210070   3.024   6.547   1.023 -0.0265  0.2594  0.2851
  147ACOH    C210071   3.030   6.503   1.152  0.4786 -0.8390 -0.8088
  147ACOH    O110072   3.014   6.387   1.186 -0.1319  0.3642 -0.0083
  147ACOH    C110073   3.120   6.593   1.235  0.5027 -0.3094 -0.1670
  147ACOH    H110074   3.226   6.587   1.213  0.5738 -0.4593  0.2063
  147ACOH    H210075   3.117   6.566   1.341 -0.4272 -0.9243 -0.3450
  147ACOH    H310076   3.075   6.692   1.228 -1.8498 -1.2694  0.6689
  148ACOH    H410077   4.028   8.555   1.857 -0.7745  0.5115 -0.2294
  148ACOH    O210078   4.113   8.513   1.879 -0.8257  0.1673 -0.6658
  148ACOH    C210079   4.090   8.385   1.915  0.2018  0.3730 -0.0542
  148ACOH    O110080   3.986   8.328   1.896  0.0375 -0.1622  0.4422
  148ACOH    C110081   4.214   8.304   1.959  0.3993 -0.6666 -0.2832
  148ACOH    H110082   4.215   8.198   1.934  1.1066 -0.3571 -1.6497
  148ACOH    H210083   4.209   8.311   2.067  1.7619 -2.2405 -0.1043
  148ACOH    H310084   4.311   8.342   1.927  0.3251 -0.3549 -0.1453
  149ACOH    H410085   2.915   6.066   0.706 -0.0834 -0.4224 -0.8959
  149ACOH    O210086   2.946   6.086   0.616  0.5251 -0.6967 -0.7505
  149ACOH    C210087   2.864   6.175   0.562 -0.6300  0.1446  0.5338
  149ACOH    O110088   2.792   6.259   0.616 -0.1984  0.3789 -0.0065
  149ACOH    C110089   2.882   6.186   0.413 -0.4998  0.1758  0.5329
  149ACOH    H110090   2.987   6.170   0.391 -0.7997 -1.0911 -0.0439
  149ACOH    H210091   2.845   6.282   0.376 -1.9322  0.3193  2.2639
  149ACOH    H310092   2.830   6.102   0.367  2.5002 -2.2201  1.3580
  150ACOH    H410093   4.199   0.489   0.696  1.1444 -1.5488  0.7583
  150ACOH    O210094   4.285   0.531   0.677  0.2176  0.0032 -0.1045
  150ACOH    C210095   4.342   0.469   0.570  0.6474 -0.0887 -1.4454
  150ACOH    O110096   4.286   0.389   0.494 -0.1574 -0.1813 -0.1038
  150ACOH    C110097   4.467   0.535   0.527 -0.4087 -0.9450 -0.9336
  150ACOH    H110098   4.530   0.456   0.487  0.6274 -1.3970  1.4690
  150ACOH    H210099   4.524   0.594   0.599  0.3803 -0.5209 -1.8968
  150ACOH    H310100   4.450   0.602   0.443  0.8351  1.4932  0.6790
  151ACOH    H410101   4.695   3.551   1.444 -1.9079  0.0003  1.2020
  151ACOH    O210102   4.658   3.463   1.422  0.1622 -0.5636 -0.1925
  151ACOH    C210103   4.675   3.385   1.528  0.2103  0.3178  0.0425
  151ACOH    O110104   4.688   3.428   1.641  0.0071 -0.1707  0.3633
  151ACOH    C110105   4.636   3.247   1.485 -1.1609  0.1812  0.3667
  151ACOH    H110106   4.571   3.240   1.398 -0.1906  1.0991 -0.4533
  151ACOH    H210107   4.605   3.183   1.567 -0.6168 -1.1952 -0.4805
  151ACOH    H310108   4.731   3.201   1.455 -1.1805 -1.1443  2.2901
  152ACOH    H410109   5.084   3.950   1.678 -0.3517 -1.1275 -0.4820
  152ACOH    O210110   5.170   3.925   1.640 -0.0341 -0.5322 -0.1683
  152ACOH    C210111   5.149   3.839   1.541  0.5508 -0.2278  0.5011
  152ACOH    O110112   5.038   3.815   1.494 -0.4349  0.5829  0.3255
  152ACOH    C110113   5.276   3.809   1.470 -0.1013 -0.4742  0.1153
  152ACOH    H110114   5.357   3.873   1.503 -0.3387  0.2741 -0.7207
  152ACOH    H210115   5.260   3.828   1.363  0.8179  1.8864  0.3729
  152ACOH    H310116   5.311   3.706   1.481  0.9581 -0.1499 -0.1668
  153ACOH    H410117   1.992   7.826   0.517 -1.4562 -0.3009  0.0183
  153ACOH    O210118   2.021   7.908   0.560 -0.4028 -0.2192 -0.8550
  153ACOH    C210119   2.107   7.967   0.477  0.4778  0.0753  0.0279
  153ACOH    O110120   2.178   7.913   0.393 -0.2009  0.4674 -0.3183
  153ACOH    C110121   2.124   8.111   0.506  0.8750  0.6744 -0.2068
  153ACOH    H110122   2.195   8.127   0.587  0.3241  0.3262  0.3515
  153ACOH    H210123   2.034   8.164   0.537  0.4451  0.0947 -0.4575
  153ACOH    H310124   2.156   8.159   0.414 -0.4254 -1.6462 -1.9155
  154ACOH    H410125   2.269   4.194   1.190 -0.8565 -2.4048  2.0394
  154ACOH    O210126   2.181   4.235   1.196  0.1694  0.2266  0.2711
  154ACOH    C210127   2.091   4.135   1.210  0.0595  0.2560 -0.1899
  154ACOH    O110128   2.117   4.018   1.247  0.4006 -0.3565 -0.4153
  154ACOH    C110129   1.953   4.184   1.212  0.6693  0.2841 -0.2606
  154ACOH    H110130   1.944   4.273   1.274 -0.6367  0.7582 -1.1216
  154ACOH    H210131   1.888   4.110   1.260 -1.5757  2.5247  0.2891
  154ACOH    H310132   1.920   4.207   1.111  0.4245 -0.2709 -0.3105
  155ACOH    H410133   5.079   2.073   0.973  0.3621  1.0474 -1.4689
  155ACOH    O210134   5.137   2.015   0.921 -0.1803 -0.5896 -0.2693
  155ACOH    C210135   5.064   1.987   0.812  0.1717 -0.2610 -0.0434
  155ACOH    O110136   4.946   2.010   0.799 -0.4418 -0.3488 -0.6147
  155ACOH    C110137   5.141   1.890   0.725  0.3766 -0.7992 -0.4689
  155ACOH    H110138   5.114   1.921   0.624 -0.9644 -0.6076 -0.0653
  155ACOH    H210139   5.115   1.785   0.737 -0.1535 -0.9348 -2.5639
  155ACOH    H310140   5.248   1.902   0.740 -0.1977  1.6726  2.1378
  156ACOH    H410141   4.009   9.384   1.793  0.3798 -0.4259  1.7817
  156ACOH    O210142   4.106   9.394   1.798  0.3531  0.3352  0.9812
  156ACOH    C210143   4.147   9.434   1.918 -0.4575 -0.6740  0.4203
  156ACOH    O110144   4.072   9.450   2.016  0.1919 -0.2084  0.9205
  156ACOH    C110145   4.290   9.472   1.906 -0.4117  0.4584  0.5828
  156ACOH    H110146   4.343   9.419   1.985  2.5231  0.5312 -1.2707
  156ACOH    H210147   4.293   9.581   1.896  0.4765  0.1528 -2.9946
  156ACOH    H310148   4.332   9.431   1.814 -0.3484 -2.4847  1.8652
  157ACOH    H410149   5.115   2.906   1.590 -1.0511  0.9870  0.4545
  157ACOH    O210150   5.135   2.964   1.515  0.0519  0.2922  0.1955
  157ACOH    C210151   5.017   2.998   1.475 -0.8212  0.0054 -0.2935
  157ACOH    O110152   4.910   2.966   1.524 -0.3352  0.0412 -0.0165
  157ACOH    C110153   5.016   3.081   1.351  0.2518 -0.3383 -0.3112
  157ACOH    H110154   4.955   3.171   1.357 -0.4426 -0.6744 -1.9895
  157ACOH    H210155   4.967   3.020   1.275  1.8618  0.3271 -1.9242
  157ACOH    H310156   5.113   3.125   1.326 -1.5818  3.1066 -1.7356
  158ACOH    H410157   3.216   7.746   0.139  0.5479  3.5915 -2.4644
  158ACOH    O210158   3.309   7.718   0.135 -0.3854 -0.2362  0.4056
  158ACOH    C210159   3.347   7.679   0.255 -0.1316 -0.2261  0.1154
  158ACOH    O110160   3.274   7.661   0.354  0.6089  0.2867 -0.0321
  158ACOH    C110161   3.491   7.686   0.282  0.0457 -0.2979  0.3307
  158ACOH    H110162   3.536   7.782   0.256 -1.4631 -0.2887 -2.4241
  158ACOH    H210163   3.548   7.618   0.218 -1.4028 -0.0635 -1.2419
  158ACOH    H310164   3.519   7.667   0.385 -2.8763 -1.0885  0.9902
  159ACOH    H410165   1.847   5.323   2.421 -0.0960  0.3148  0.5774
  159ACOH    O210166   1.756   5.319   2.455  0.0640 -0.9832  0.8693
  159ACOH    C210167   1.766   5.252   2.569  0.6278 -0.6132  0.0646
  159ACOH    O110168   1.868   5.204   2.608  0.1456  0.1754 -0.0095
  159ACOH    C110169   1.640   5.242   2.639 -0.2097 -0.1442  0.9110
  159ACOH    H110170   1.624   5.334   2.695  0.2036  0.3131  0.2907
  159ACOH    H210171   1.645   5.154   2.703  1.9066 -1.7587 -1.3878
  159ACOH    H310172   1.562   5.233   2.564  0.2340 -1.4610  0.5916
  160ACOH    H410173   3.672   7.763   0.058 -0.1454  0.2589 -1.3393
  160ACOH    O210174   3.684   7.669   0.038  0.3532 -0.1838  0.9359
  160ACOH    C210175   3.800   7.637   0.093  1.1602  0.3229  0.2084
  160ACOH    O110176   3.848   7.678   0.196  0.3655 -0.6309  0.0602
  160ACOH    C110177   3.848   7.506   0.047 -0.1998  0.6746 -0.0650
  160ACOH    H110178   3.943   7.480   0.093  1.1344  2.1759 -1.8779
  160ACOH    H210179   3.867   7.514  -0.060 -1.0768  0.7540 -0.2196
  160ACOH    H310180   3.776   7.427   0.066  0.1186  0.3286 -0.2900
  161ACOH    H410181   2.347   5.296   0.878 -0.9542  0.8162  0.5508
  161ACOH    O210182   2.301   5.269   0.959 -0.3124  0.6116  0.8487
  161ACOH    C210183   2.189   5.337   0.954  0.1958 -0.6693  0.6076
  161ACOH    O110184   2.125   5.378   0.856 -0.3162  0.0350  0.3653
  161ACOH    C110185   2.127   5.334   1.092 -0.5698  0.6953 -0.7275
  161ACOH    H110186   2.032   5.280   1.093  0.8630 -1.9415 -0.1144
  161ACOH    H210187   2.118   5.435   1.132  0.2442  1.4788 -2.4822
  161ACOH    H310188   2.186   5.275   1.163 -2.1077 -0.0447 -0.0342
  162ACOH    H410189   2.341   1.506   1.869 -0.0821 -0.1869 -1.5329
  162ACOH    O210190   2.290   1.589   1.866 -0.2368 -0.2038  0.2139
  162ACOH    C210191   2.280   1.634   1.995  0.7030  1.0394  0.1077
  162ACOH    O110192   2.351   1.602   2.084  0.3049  0.1623  0.0724
  162ACOH    C110193   2.183   1.741   2.007  0.3163 -0.0994 -0.2995
  162ACOH    H110194   2.232   1.838   1.995  0.4142 -0.1251 -0.1097
  162ACOH    H210195   2.133   1.720   2.101  2.8078 -1.0052  0.8874
  162ACOH    H310196   2.116   1.721   1.923  1.8038  3.6182 -2.4985
  163ACOH    H410197   4.024   9.000   1.614 -0.0675 -0.1305  0.3542
  163ACOH    O210198   4.090   9.065   1.640  0.1959 -0.3019  0.1096
  163ACOH    C210199   4.157   9.028   1.752 -0.0747  0.1630 -0.8250
  163ACOH    O110200   4.113   8.951   1.836 -0.1985  0.4211  0.2207
  163ACOH    C110201   4.266   9.114   1.793 -0.0534  0.2749  0.1942
  163ACOH    H110202   4.231   9.159   1.886  1.0575  0.5411  0.4877
  163ACOH    H210203   4.291   9.180   1.710 -0.5254  0.8581  0.5172
  163ACOH    H310204   4.357   9.062   1.823 -0.6667 -1.4787 -0.9172
  164ACOH    H410205   4.427   4.991   0.605  0.4812 -0.2297 -1.8655
  164ACOH    O210206   4.509   5.042   0.618  0.0638  0.0001  0.0405
  164ACOH    C210207   4.510   5.101   0.501  0.4831  0.0597  0.3826
  164ACOH    O110208   4.415   5.143   0.436  0.4207  0.2186  0.2725
  164ACOH    C110209   4.643   5.160   0.479 -0.6200 -0.7110 -0.0969
  164ACOH    H110210   4.698   5.191   0.567  0.5093  1.2765 -1.4632
  164ACOH    H210211   4.642   5.245   0.410  3.6789 -0.6476 -0.2398
  164ACOH    H310212   4.712   5.088   0.435 -0.2878 -0.0899 -0.6118
  165ACOH    H410213   3.314   8.338   1.212  0.7728  0.1420  0.6430
  165ACOH    O210214   3.311   8.243   1.191 -0.1316  0.3315 -0.1320
  165ACOH    C210215   3.292   8.186   1.308 -0.3205 -0.1448 -0.0498
  165ACOH    O110216   3.231   8.240   1.402  0.8525 -0.0408 -0.3768
  165ACOH    C110217   3.290   8.037   1.286 -0.7743 -0.6355 -0.0990
  165ACOH    H110218   3.391   7.998   1.293 -0.3436  0.6535  0.9702
  165ACOH    H210219   3.244   8.017   1.189  1.2030  2.4568 -1.7776
  165ACOH    H310220   3.237   7.993   1.370 -2.2872  1.5224  0.1328
  166ACOH    H410221   2.998   5.667   1.091 -1.3375  1.0081  1.0070
  166ACOH    O210222   3.045   5.659   1.176  0.1217  0.1549  0.1364
  166ACOH    C210223   3.067   5.781   1.223 -0.1620  0.4784  0.3113
  166ACOH    O110224   3.023   5.890   1.196  0.2250 -0.0365  0.0435
  166ACOH    C110225   3.139   5.762   1.352 -0.5554 -0.5190  0.5031
  166ACOH    H110226   3.149   5.858   1.402 -0.8580 -0.8596  1.2254
  166ACOH    H210227   3.237   5.726   1.319  0.4716  2.3798  0.2983
  166ACOH    H310228   3.085   5.694   1.417  0.5946  0.6220  2.6911
  167ACOH    H410229   4.384   8.356   0.702 -1.2750 -0.3017  0.2130
  167ACOH    O210230   4.423   8.269   0.685 -0.1315  0.1876  0.3002
  167ACOH    C210231   4.337   8.217   0.596  0.0938  0.0750  0.3252
  167ACOH    O110232   4.249   8.268   0.529  0.1725 -0.4772 -0.3599
  167ACOH    C110233   4.373   8.071   0.574 -0.0320  0.1276  0.2827
  167ACOH    H110234   4.460   8.039   0.632  1.0713  0.2942 -1.2394
  167ACOH    H210235   4.396   8.046   0.470  0.6452  0.3993  0.3621
  167ACOH    H310236   4.291   8.003   0.597 -0.5716  0.6996  0.0670
  168ACOH    H410237   1.921   0.454   1.906 -1.2044 -0.4342 -1.5080
  168ACOH    O210238   1.861   0.491   1.973  0.4739 -0.7971  0.2383
  168ACOH    C210239   1.905   0.608   2.016 -0.1112  0.0654 -0.2773
  168ACOH    O110240   2.011   0.665   1.992  0.4631  0.2851  0.3498
  168ACOH    C110241   1.812   0.673   2.118 -0.7537  0.3782  0.3387
  168ACOH    H110242   1.800   0.608   2.205 -0.6648  1.4044  1.1183
  168ACOH    H210243   1.719   0.676   2.060 -0.5230 -1.0455 -0.1264
  168ACOH    H310244   1.841   0.772   2.152 -0.9548  0.6829 -0.3756
  169ACOH    H410245   5.547   4.039   0.155 -0.6349  0.8139  1.9512
  169ACOH    O210246   5.531   3.944   0.173  0.5075  0.2188 -0.0851
  169ACOH    C210247   5.585   3.908   0.290  0.2653 -0.0739 -0.0465
  169ACOH    O110248   5.630   3.980   0.381  0.0094  0.2317  0.2414
  169ACOH    C110249   5.589   3.763   0.308  0.2980  0.4476 -0.3501
  169ACOH    H110250   5.488   3.723   0.320  0.1520  1.3799  1.7177
  169ACOH    H210251   5.640   3.737   0.401 -0.1694 -1.8971 -0.7140
  169ACOH    H310252   5.628   3.715   0.218  2.5915 -1.8511  1.7781
  170ACOH    H410253   3.964   8.766   1.506 -2.6150 -1.9718  0.4134
  170ACOH    O210254   4.030   8.695   1.504 -0.1986  0.2008 -0.2494
  170ACOH    C210255   3.958   8.591   1.479 -0.0634  0.2898  0.2100
  170ACOH    O110256   3.837   8.578   1.468  0.0027 -0.2964  0.6329
  170ACOH    C110257   4.052   8.475   1.478  0.2662  1.4179 -0.6322
  170ACOH    H110258   4.116   8.471   1.565  1.1326 -2.2663 -1.3652
  170ACOH    H210259   4.113   8.473   1.388  3.9428  2.4142  1.7546
  170ACOH    H310260   3.995   8.382   1.478 -0.4463  1.8304  1.3528
  171ACOH    H410261   5.665   3.432   1.198  2.6830 -2.5001 -0.0999
  171ACOH    O210262   5.730   3.496   1.231 -0.0937  0.5167 -0.2132
  171ACOH    C210263   5.666   3.614   1.256 -0.2619  0.7148  0.4584
  171ACOH    O110264   5.550   3.636   1.236  0.9810  0.3718  0.1206
  171ACOH    C110265   5.773   3.719   1.280 -0.1430 -0.0096  0.4823
  171ACOH    H110266   5.788   3.782   1.192  2.8855  0.8976  1.5650
  171ACOH    H210267   5.865   3.668   1.310  0.5140  0.2020 -1.0770
  171ACOH    H310268   5.738   3.790   1.354 -0.3785  0.5385 -0.1539
  172ACOH    H410269   3.930   5.628   1.062 -0.2330  1.1415  1.8181
  172ACOH    O210270   4.020   5.665   1.059 -0.0724  0.6835 -0.5429
  172ACOH    C210271   4.086   5.600   1.156  0.1322 -0.9667  0.2256
  172ACOH    O110272   4.041   5.512   1.224  0.1328 -0.4441  0.8105
  172ACOH    C110273   4.223   5.640   1.160 -0.1612 -0.5456  0.4891
  172ACOH    H110274   4.243   5.736   1.209  3.3123 -0.6090 -0.6875
  172ACOH    H210275   4.263   5.644   1.059 -2.8028  2.3962 -0.5577
  172ACOH    H310276   4.277   5.570   1.223  0.5153 -0.3950  0.0794
  173ACOH    H410277   4.874   4.341   2.058 -0.1893 -1.1180  0.7736
  173ACOH    O210278   4.960   4.357   2.100 -0.2843 -0.0606  0.5840
  173ACOH    C210279   4.955   4.334   2.226 -0.0562  0.4767 -0.9025
  173ACOH    O110280   4.854   4.339   2.293 -0.7811 -0.2156  0.1700
  173ACOH    C110281   5.096   4.339   2.281 -0.4277  0.2661  0.4125
  173ACOH    H110282   5.087   4.363   2.387 -1.1913  3.0466 -0.2368
  173ACOH    H210283   5.164   4.402   2.224  0.1027 -2.0646 -1.6109
  173ACOH    H310284   5.142   4.242   2.268 -2.1200 -0.5076  0.0397
  174ACOH    H410285   5.814   3.265   0.728 -0.0051  0.9109 -0.8814
  174ACOH    O210286   5.894   3.259   0.673  0.2461 -0.5542 -0.3814
  174ACOH    C210287   5.865   3.305   0.547 -0.7910 -0.3052 -0.1011
  174ACOH    O110288   5.771   3.357   0.498  0.3777  0.0888 -0.3964
  174ACOH    C110289   5.990   3.275   0.470 -0.5475  0.3390 -0.0687
  174ACOH    H110290   6.052   3.360   0.443 -2.8021  1.7730 -0.9149
  174ACOH    H210291   5.947   3.242   0.375 -0.3260 -2.0964  0.6364
  174ACOH    H310292   6.053   3.193   0.504 -0.8150  0.4136  0.6066
  175ACOH    H410293   5.295   2.139   0.567  0.2094  1.2041 -0.7046
  175ACOH    O210294   5.345   2.143   0.650 -0.6315 -0.2139 -0.1248
  175ACOH    C210295   5.274   2.231   0.726 -0.1207  0.8605  0.4739
  175ACOH    O110296   5.165   2.280   0.713 -0.3499  0.4468  0.8045
  175ACOH    C110297   5.346   2.252   0.854 -0.1349  0.3819 -0.8735
  175ACOH    H110298   5.441   2.302   0.837  0.0516 -0.2446 -1.6843
  175ACOH    H210299   5.365   2.154   0.898 -0.2115  0.8388  0.2077
  175ACOH    H310300   5.287   2.314   0.922 -0.5200  0.0082 -0.8658
  176ACOH    H410301   1.903   8.153   0.992 -1.8819 -0.0826 -1.1713
  176ACOH    O210302   1.869   8.244   0.990 -0.4847  0.4857  0.2018
  176ACOH    C210303   1.870   8.302   1.107 -0.1398  0.4831  0.8353
  176ACOH    O110304   1.860   8.246   1.216  0.2213  0.1696  0.2814
  176ACOH    C110305   1.853   8.452   1.107  0.3389  0.0675 -0.0552
  176ACOH    H110306   1.913   8.485   1.023  1.4357 -0.7750  0.3852
  176ACOH    H210307   1.888   8.509   1.193  1.6156 -0.1751 -0.4114
  176ACOH    H310308   1.751   8.484   1.085  1.3839  1.9501 -2.2658
  177ACOH    H410309   2.023   1.335   2.023  0.0294  0.8155 -0.6669
  177ACOH    O210310   2.056   1.404   2.083 -0.0936  0.2067  0.1099
  177ACOH    C210311   2.012   1.398   2.207 -0.5544  0.0173  0.3966
  177ACOH    O110312   1.914   1.330   2.243  0.1382 -0.5560 -0.7910
  177ACOH    C110313   2.047   1.527   2.267  0.3029  0.4720 -0.3213
  177ACOH    H110314   1.977   1.607   2.243 -1.2592 -0.2641  1.7383
  177ACOH    H210315   2.146   1.565   2.240  1.3515 -2.4848 -0.8715
  177ACOH    H310316   2.050   1.507   2.374  1.1612  0.7069 -0.2950
  178ACOH    H410317   4.490   4.385   1.515 -0.1781  0.9082 -0.6531
  178ACOH    O210318   4.550   4.416   1.445  0.7951  0.0109 -0.2353
  178ACOH    C210319   4.461   4.430   1.343 -0.4632 -0.1117  0.4940
  178ACOH    O110320   4.339   4.433   1.338  0.4805 -0.3971 -0.1144
  178ACOH    C110321   4.527   4.460   1.210  0.0875 -0.3589  0.4448
  178ACOH    H110322   4.515   4.566   1.187  0.8491 -0.6590 -1.3788
  178ACOH    H210323   4.485   4.412   1.122  0.6957  1.9234 -1.1168
  178ACOH    H310324   4.631   4.430   1.216 -0.0161 -0.8169  0.0111
  179ACOH    H410325   4.366   0.933   1.941 -0.0359 -1.1731 -0.9239
  179ACOH    O210326   4.459   0.957   1.931 -0.3605  0.6308  0.0307
  179ACOH    C210327   4.474   1.021   1.815 -0.6001 -0.3409  0.0343
  179ACOH    O110328   4.424   1.000   1.707  0.2130  0.3154 -0.5059
  179ACOH    C110329   4.605   1.087   1.813 -0.7327 -0.1814  0.1609
  179ACOH    H110330   4.629   1.127   1.714  0.0859  0.6467  0.6917
  179ACOH    H210331   4.687   1.019   1.836 -0.3975 -0.6841 -2.3144
  179ACOH    H310332   4.617   1.167   1.886  1.8368  0.2763 -0.7078
  180ACOH    H410333   2.392   4.441   2.491  1.1131 -0.9506 -2.0662
  180ACOH    O210334   2.377   4.523   2.440 -0.4868  0.2773  0.2759
  180ACOH    C210335   2.401   4.486   2.312  0.2794 -0.3154  0.3793
  180ACOH    O110336   2.407   4.378   2.254  0.2420  0.5213 -0.0730
  180ACOH    C110337   2.386   4.607   2.232 -0.5403  0.5895  0.1120
  180ACOH    H110338   2.345   4.576   2.136 -1.7888  0.0902  0.7982
  180ACOH    H210339   2.484   4.652   2.214 -0.1531 -0.0490  0.5732
  180ACOH    H310340   2.319   4.683   2.271 -2.1256 -1.0065  0.5628
  181ACOH    H410341   5.766   4.143   0.423 -0.7742  1.9314  1.3260
  181ACOH    O210342   5.852   4.189   0.429  0.3716  0.0597 -0.0126
  181ACOH    C210343   5.880   4.268   0.320 -0.5675 -0.2323 -0.0451
  181ACOH    O110344   5.826   4.290   0.210  0.3545 -0.4183 -0.6425
  181ACOH    C110345   6.004   4.345   0.346  0.1926  0.2765  0.4110
  181ACOH    H110346   5.999   4.440   0.292 -0.5214  1.1154  1.9371
  181ACOH    H210347   6.089   4.286   0.310  1.2444 -0.0383  3.2778
  181ACOH    H310348   6.019   4.360   0.453  1.4387 -1.2276  0.4695
  182ACOH    H410349   3.588   7.359   0.411 -0.2352 -0.4779 -0.2888
  182ACOH    O210350   3.669   7.311   0.436  0.2884  0.8362  0.5929
  182ACOH    C210351   3.705   7.233   0.337  0.4240  0.3752  0.1293
  182ACOH    O110352   3.649   7.223   0.230 -0.2977  0.4281  0.1707
  182ACOH    C110353   3.839   7.170   0.362 -0.3433  0.7322 -0.1901
  182ACOH    H110354   3.846   7.079   0.303 -0.8754  0.4512  0.1738
  182ACOH    H210355   3.850   7.142   0.467  1.6061  0.4491 -0.4549
  182ACOH    H310356   3.917   7.240   0.331  2.6623 -1.2148  2.6260
  183ACOH    H410357   2.794   9.530   2.086 -0.3355  0.1446  2.5419
  183ACOH    O210358   2.882   9.566   2.108  0.0832  0.3334  0.6376
  183ACOH    C210359   2.973   9.524   2.019  0.0252 -0.3353 -0.0208
  183ACOH    O110360   2.959   9.529   1.898 -0.0715  0.0394  0.0224
  183ACOH    C110361   3.101   9.488   2.088 -0.0199 -0.3393 -0.7058
  183ACOH    H110362   3.166   9.442   2.014 -0.8345  1.3061 -2.5090
  183ACOH    H210363   3.093   9.432   2.181  1.6903  1.3607  0.5270
  183ACOH    H310364   3.139   9.585   2.120  1.0831 -0.4723 -1.5870
  184ACOH    H410365   1.777   0.540   0.260 -0.9439 -0.5202  0.2864
  184ACOH    O210366   1.755   0.480   0.186  0.1146 -0.1738 -0.3235
  184ACOH    C210367   1.649   0.538   0.122 -0.2373 -0.4153 -0.3890
  184ACOH    O110368   1.601   0.649   0.142 -0.0023  0.0603  0.2888
  184ACOH    C110369   1.621   0.468   0.000 -0.1493  0.4311  0.4401
  184ACOH    H110370   1.649   0.536  -0.080  0.4009 -0.6217 -0.2716
  184ACOH    H210371   1.516   0.440  -0.004  0.1795 -0.7310 -0.1080
  184ACOH    H310372   1.687   0.381  -0.000  1.6519  1.7718  0.5329
  185ACOH    H410373   4.442   8.899   0.196  0.0004  1.3870 -0.5320
  185ACOH    O210374   4.452   8.832   0.126  0.2692  0.2254  0.5995
  185ACOH    C210375   4.365   8.731   0.145  0.0685 -0.4932 -0.6170
  185ACOH    O110376   4.278   8.712   0.228 -0.2775  0.4892  0.5824
  185ACOH    C110377   4.401   8.624   0.052 -0.4845 -0.1949  0.3013
  185ACOH    H110378   4.315   8.599  -0.009  1.8609 -0.1800 -3.1395
  185ACOH    H210379   4.424   8.531   0.105 -0.3430 -1.4405 -1.8766
  185ACOH    H310380   4.488   8.635  -0.012 -0.3576 -1.4286  0.2474
  186ACOH    H410381   3.036   6.676   1.787  0.5992 -0.4605  0.5483
  186ACOH    O210382   3.109   6.637   1.737  0.0104 -0.2961 -0.4402
  186ACOH    C210383   3.148   6.536   1.818  0.3655  0.0261 -0.6805
  186ACOH    O110384   3.103   6.513   1.929  0.4412 -0.1142  0.0731
  186ACOH    C110385   3.280   6.491   1.779 -0.6665  0.1690  0.1886
  186ACOH    H110386   3.332   6.574   1.731  0.0331  0.1676  0.9355
  186ACOH    H210387   3.270   6.416   1.701 -0.2654  0.2858  0.0227
  186ACOH    H310388   3.342   6.463   1.864  0.7768  0.6209 -0.6852
  187ACOH    H410389   2.722   6.667   0.807  0.4226 -2.0577  1.2411
  187ACOH    O210390   2.818   6.674   0.793  0.0990  0.7053  0.1953
  187ACOH    C210391   2.848   6.632   0.669  0.0456  0.5839 -0.0492
  187ACOH    O110392   2.774   6.600   0.584 -0.4527 -0.1622  0.3196
  187ACOH    C110393   2.996   6.635   0.647  0.5210  0.1912 -0.3384
  187ACOH    H110394   3.033   6.548   0.703 -0.5020 -0.8752 -1.3070
  187ACOH    H210395   3.043   6.727   0.683  0.2056 -0.2700  1.3068
  187ACOH    H310396   3.025   6.614   0.545  2.1697  0.1125  0.1275
  188ACOH    H410397   5.085   3.758   2.212 -0.1778  0.9167  0.0740
  188ACOH    O210398   5.143   3.791   2.141  0.2791  0.1026  0.0652
  188ACOH    C210399   5.107   3.912   2.110 -0.0284 -0.2272 -0.0503
  188ACOH    O110400   5.066   3.985   2.195  0.3442 -0.3169 -0.0757
  188ACOH    C110401   5.184   3.955   1.991  0.5810 -0.6118  0.3981
  188ACOH    H110402   5.193   3.882   1.911  2.3000 -1.1318  1.0535
  188ACOH    H210403   5.285   3.973   2.030  0.0207  0.7849  1.2405
  188ACOH    H310404   5.137   4.045   1.951 -1.0712 -2.3856 -1.7981
  189ACOH    H410405   1.771   1.547   1.381  0.0075 -1.5929 -3.3301
  189ACOH    O210406   1.687   1.511   1.413  0.4039  0.3864  0.1750
  189ACOH    C210407   1.636   1.431   1.316 -0.0484  0.1200 -0.8120
  189ACOH    O110408   1.692   1.410   1.211 -0.1853 -0.0788 -0.5773
  189ACOH    C110409   1.510   1.356   1.360 -0.1053  0.9591 -0.1587
  189ACOH    H110410   1.436   1.376   1.282 -1.9623  1.4150  1.6756
  189ACOH    H210411   1.470   1.398   1.452  0.5287  1.1197  0.0446
  189ACOH    H310412   1.525   1.248   1.367 -0.6947  0.7594 -1.7112
  190ACOH    H410413   3.629   5.590   1.835  0.7632  1.5338 -0.7736
  190ACOH    O210414   3.706   5.532   1.826  0.0275  0.3113  0.5660
  190ACOH    C210415   3.692   5.434   1.917 -0.3547 -0.3564 -0.3615
  190ACOH    O110416   3.605   5.416   1.996  0.2663 -0.0440  0.0052
  190ACOH    C110417   3.798   5.337   1.904 -0.1189  0.9714 -0.3588
  190ACOH    H110418   3.896   5.383   1.892  0.0626  0.6384 -0.1656
  190ACOH    H210419   3.783   5.275   1.816  0.7340 -0.7100  0.6460
  190ACOH    H310420   3.802   5.274   1.993  2.3767 -1.8335 -2.3864
  191ACOH    H410421   5.081   1.365  -0.120 -1.4541  1.4147  0.5935
  191ACOH    O210422   5.089   1.313  -0.038 -0.7798  0.4097 -0.1104
  191ACOH    C210423   4.982   1.351   0.037 -0.0060 -0.2915  0.3039
  191ACOH    O110424   4.915   1.454   0.022  0.2326 -0.3180 -0.4349
  191ACOH    C110425   4.974   1.258   0.147 -0.2241  0.5017 -1.5238
  191ACOH    H110426   5.054   1.276   0.218 -0.8965  1.8261 -1.0839
  191ACOH    H210427   4.977   1.156   0.108 -1.0402  0.0303 -0.3830
  191ACOH    H310428   4.882   1.270   0.204  0.1459 -1.6213 -0.4287
  192ACOH    H410429   3.963   8.186   2.846 -0.4685  0.8920 -3.2403
  192ACOH    O210430   3.997   8.105   2.805  0.3983 -0.2509 -0.4111
  192ACOH    C210431   3.981   8.105   2.663 -0.4035  0.3840 -0.1421
  192ACOH    O110432   3.975   8.209   2.602  0.7490  0.0860 -0.4365
  192ACOH    C110433   3.978   7.964   2.606  0.2644 -0.3208  0.2876
  192ACOH    H110434   3.898   7.960   2.532  0.5420  1.0201 -0.0849
  192ACOH    H210435   3.946   7.897   2.687 -1.8987 -0.0402 -0.3145
  192ACOH    H310436   4.077   7.941   2.567 -0.3625  1.0655 -2.2151
  193SOL     OW10437   2.979   2.659   1.042 -0.1093 -0.2224  0.1573
  193SOL    HW110438   3.054   2.691   1.100 -1.9971  0.3471  2.3519
  193SOL    HW210439   2.925   2.592   1.092 -1.6433  0.1096 -1.0240
  194SOL     OW10440   2.748   1.820   1.331 -1.1708  0.0398 -0.3680
  194SOL    HW110441   2.726   1.917   1.316  3.0780  1.2517  0.5587
  194SOL    HW210442   2.767   1.805   1.428 -1.3818 -1.6789 -0.5743
  195SOL     OW10443   1.807   0.361   2.359  0.3268 -0.0164 -0.1947
  195SOL    HW110444   1.844   0.439   2.410 -0.2743 -0.4222  0.8992
  195SOL    HW210445   1.850   0.277   2.392  1.3048 -0.1113 -1.6874
  196SOL     OW10446   3.799   1.689   2.437 -0.0989  0.5065 -0.5765
  196SOL    HW110447   3.850   1.771   2.464 -1.3939  1.0656  0.2365
  196SOL    HW210448   3.701   1.709   2.437 -0.5564 -1.4751  1.2592
  197SOL     OW10449   3.724   9.858   2.639 -0.1438  0.7839 -0.4548
  197SOL    HW110450   3.766   9.846   2.550 -0.4023 -0.7622 -0.3884
  197SOL    HW210451   3.706   9.955   2.656  1.8746  1.2841 -1.1653
  198SOL     OW10452   2.907   4.156   1.272 -0.2666 -0.2958 -0.1542
  198SOL    HW110453   2.885   4.096   1.348 -0.2133  0.0472  0.1355
  198SOL    HW210454   2.978   4.114   1.215  0.4619 -0.0877  0.5871
  199SOL     OW10455   1.504   7.320   2.412 -0.2410  0.0520 -0.3716
  199SOL    HW110456   1.406   7.338   2.416 -0.2055 -0.0658  1.8709
  199SOL    HW210457   1.548   7.358   2.494  1.4879 -0.4567 -1.0440
  200SOL     OW10458   2.223   6.302   0.446 -0.0768  0.0162  0.0223
  200SOL    HW110459   2.209   6.288   0.544  0.0685  0.9218  0.1763
  200SOL    HW210460   2.286   6.232   0.411  0.9161  0.4774  0.8514
  201SOL     OW10461   3.478   8.544   1.986  0.3654  0.2511  0.5005
  201SOL    HW110462   3.536   8.479   2.036  1.4382  1.2370  0.5751
  201SOL    HW210463   3.504   8.544   1.889 -0.2242 -0.0617  0.3403
  202SOL     OW10464   2.620   0.960   1.657 -0.0009  0.3949  0.4005
  202SOL    HW110465   2.697   1.023   1.668  0.4041  0.0449 -0.4110
  202SOL    HW210466   2.542   1.010   1.617  0.1345  0.5166  0.2867
  203SOL     OW10467   3.547   3.739   0.625 -0.3759 -0.6501 -0.0209
  203SOL    HW110468   3.579   3.685   0.548 -0.6869 -1.4686  0.4186
  203SOL    HW210469   3.529   3.833   0.595  0.7486 -0.6282 -0.6476
  204SOL     OW10470   3.873   0.391   0.319  0.2756  0.5539 -0.4193
  204SOL    HW110471   3.919   0.474   0.286  1.2358  0.1465 -0.1398
  204SOL    HW210472   3.942   0.328   0.356 -0.6315  0.4031  1.0428
  205SOL     OW10473   3.361   8.537   0.406  0.3962  0.3537 -0.3557
  205SOL    HW110474   3.273   8.508   0.444  0.3700  2.2126  1.0945
  205SOL    HW210475   3.384   8.480   0.327 -2.2194  0.0126 -0.9182
  206SOL     OW10476   3.605   5.010   2.117  0.2831 -0.1617  0.0544
  206SOL    HW110477   3.579   4.933   2.174  0.2349 -0.3180 -0.1770
  206SOL    HW210478   3.689   4.988   2.067 -1.0323 -1.0174 -1.8692
  207SOL     OW10479   3.894   4.930   2.135 -0.1018  0.4432 -0.3059
  207SOL    HW110480   3.911   4.967   2.043  0.4038  0.8290 -0.0605
  207SOL    HW210481   3.837   4.849   2.128 -1.2844  1.3072 -0.8482
  208SOL     OW10482   3.121   1.354   1.293 -0.1692  0.3952  0.3090
  208SOL    HW110483   3.101   1.284   1.224 -0.3410 -0.4790  1.2266
  208SOL    HW210484   3.044   1.361   1.357 -0.1263  1.3904  0.2589
  209SOL     OW10485   3.552   0.906   0.355  0.3428  0.0712 -0.0807
  209SOL    HW110486   3.480   0.914   0.287 -0.9142 -0.0426  1.2124
  209SOL    HW210487   3.611   0.829   0.332  0.1609  0.2648 -1.2367
  210SOL     OW10488   3.851   3.563   0.390 -0.0646  0.2578 -0.0833
  210SOL    HW110489   3.893   3.472   0.392  0.2157  0.3554 -1.3508
  210SOL    HW210490   3.891   3.620   0.462 -1.0380 -0.9674  1.4532
  211SOL     OW10491   4.984   2.634   2.522  0.1739  0.1530 -0.3446
  211SOL    HW110492   5.060   2.595   2.574 -1.3368 -0.0868  1.7369
  211SOL    HW210493   4.952   2.568   2.454  0.1477 -0.7259  0.5262
  212SOL     OW10494   2.695   9.191   0.302 -0.1067 -0.4892  0.8641
  212SOL    HW110495   2.650   9.230   0.222 -0.0542  0.2581  1.1952
  212SOL    HW210496   2.695   9.258   0.376 -1.4627 -1.6992  1.9865
  213SOL     OW10497   2.484   8.923   0.725 -0.3051 -0.0254  0.2853
  213SOL    HW110498   2.400   8.907   0.673  0.3466  1.4161 -1.2569
  213SOL    HW210499   2.475   8.883   0.816 -2.1754 -0.9864 -0.2946
  214SOL     OW10500   3.151   5.082   0.344  0.4972 -0.3729 -0.0863
  214SOL    HW110501   3.092   5.019   0.294 -0.1308 -0.5273  0.8435
  214SOL    HW210502   3.147   5.173   0.302 -0.8159 -0.2478  0.2707
  215SOL     OW10503   3.388   3.119   1.320 -0.8518  0.1918  0.2568
  215SOL    HW110504   3.409   3.077   1.232 -0.8839 -0.0892  0.3813
  215SOL    HW210505   3.370   3.216   1.307 -0.5815  0.2095 -0.0080
  216SOL     OW10506   1.856   2.291   1.135  0.0136 -0.2605 -0.3753
  216SOL    HW110507   1.776   2.342   1.166  0.6480  0.7030 -0.3118
  216SOL    HW210508   1.851   2.197   1.169 -0.3768  0.1841  0.8188
  217SOL     OW10509   2.405   6.124   0.397  0.3628  0.1313 -0.3131
  217SOL    HW110510   2.360   6.035   0.393  1.8950 -0.7706  1.4137
  217SOL    HW210511   2.466   6.134   0.318  0.5319 -0.5475 -0.2705
  218SOL     OW10512   2.168   9.973   1.500  0.0427 -0.1879  0.2138
  218SOL    HW110513   2.225   9.922   1.436  0.6699 -0.6212  1.1037
  218SOL    HW210514   2.077   9.985   1.461  0.3442 -0.6444 -0.6559
  219SOL     OW10515   4.083   1.847   1.619  0.0796  0.3508  0.4799
  219SOL    HW110516   4.136   1.925   1.653  0.4996  0.6569 -0.8501
  219SOL    HW210517   3.986   1.872   1.614  0.2674  0.9422 -0.3505
  220SOL     OW10518   3.710   1.307   1.610  0.1785 -0.4021  0.0467
  220SOL    HW110519   3.809   1.305   1.594  0.3097 -0.6548  0.8799
  220SOL    HW210520   3.679   1.217   1.641 -0.6317 -0.8686 -2.0062
  221SOL     OW10521   3.680   0.345   0.136  0.3316 -0.3397  0.0023
  221SOL    HW110522   3.711   0.380   0.047  0.8476 -2.4528 -0.7068
  221SOL    HW210523   3.749   0.365   0.205  0.9474 -0.5704 -0.5313
  222SOL     OW10524   1.873   1.741   2.563 -0.2365  0.1103 -0.2639
  222SOL    HW110525   1.956   1.721   2.615 -1.2938  0.4103  1.6135
  222SOL    HW210526   1.820   1.656   2.551 -0.8021  0.3295  0.6302
  223SOL     OW10527   3.264   4.421   2.135 -0.0068 -0.5433  0.4101
  223SOL    HW110528   3.175   4.383   2.110  0.3852  0.0925 -2.0907
  223SOL    HW210529   3.334   4.349   2.129 -0.3245 -1.0706  2.4861
  224SOL     OW10530   4.337   1.845   1.389  0.0067  0.2098  0.0385
  224SOL    HW110531   4.268   1.910   1.356  1.7452  1.6399 -0.8246
  224SOL    HW210532   4.393   1.889   1.459  1.5327 -0.1781 -0.9192
  225SOL     OW10533   2.605   7.751   0.939 -0.0035  0.2095  0.1046
  225SOL    HW110534   2.616   7.850   0.946 -0.0831  0.4059 -2.0121
  225SOL    HW210535   2.661   7.705   1.008  2.1329  1.6576 -0.6214
  226SOL     OW10536   3.228   2.340   2.003 -0.5608 -0.5311 -0.2013
  226SOL    HW110537   3.287   2.410   2.042 -0.5055 -1.2172  0.9525
  226SOL    HW210538   3.215   2.359   1.905  0.5022  0.3480 -0.1861
  227SOL     OW10539   2.520   5.567   0.482 -0.1383 -0.5154  0.2291
  227SOL    HW110540   2.478   5.508   0.413  0.6487 -1.0054  0.1633
  227SOL    HW210541   2.462   5.647   0.497  0.4256  0.3861 -2.1426
  228SOL     OW10542   4.650   3.120   0.789  0.6186  0.3174  0.0476
  228SOL    HW110543   4.667   3.154   0.696  1.6657 -1.1852 -0.3406
  228SOL    HW210544   4.736   3.086   0.828 -0.1626 -0.7376  0.8700
  229SOL     OW10545   2.402   8.021   0.738  0.0327  0.2223 -0.2350
  229SOL    HW110546   2.452   8.107   0.747 -0.5599  0.6318 -0.7979
  229SOL    HW210547   2.450   7.962   0.672  1.6776 -0.8075  1.8350
  230SOL     OW10548   3.450   3.850  -0.002 -0.2720  0.9171  0.6492
  230SOL    HW110549   3.529   3.788  -0.005 -0.4459  0.5966  2.1907
  230SOL    HW210550   3.411   3.849   0.090 -0.5211  3.0243  0.5856
  231SOL     OW10551   4.183   4.412   2.228  0.1520  0.5415 -0.2795
  231SOL    HW110552   4.224   4.390   2.317 -1.5243 -0.2044  0.3154
  231SOL    HW210553   4.256   4.439   2.165  1.7104 -1.8698  0.4099
  232SOL     OW10554   2.512   2.785   0.961  0.1718 -0.1694  0.2044
  232SOL    HW110555   2.589   2.846   0.945 -0.0243  0.4914  1.6846
  232SOL    HW210556   2.482   2.745   0.875  0.6917  1.3559 -0.6883
  233SOL     OW10557   3.770   5.597   0.194 -0.5327 -0.3657  0.3705
  233SOL    HW110558   3.820   5.674   0.155  0.0302 -1.8268 -1.8711
  233SOL    HW210559   3.831   5.543   0.252 -0.0605 -0.8831 -0.5865
  234SOL     OW10560   3.026   9.362   1.088 -0.1095  0.2501 -0.5154
  234SOL    HW110561   3.065   9.446   1.123 -0.5908  0.7260 -1.1064
  234SOL    HW210562   3.087   9.285   1.108 -0.3420  0.5180  1.2714
  235SOL     OW10563   3.164   4.852   0.957  0.1964 -0.8454 -0.1694
  235SOL    HW110564   3.153   4.761   0.915 -1.0280 -0.9941  0.4722
  235SOL    HW210565   3.187   4.918   0.886 -0.3813 -1.3777 -0.8592
  236SOL     OW10566   2.314   0.685   2.184  0.3321 -0.4315  0.2634
  236SOL    HW110567   2.244   0.715   2.119  0.7186 -1.7021 -0.7757
  236SOL    HW210568   2.274   0.619   2.247  0.2100  0.0359  0.6791
  237SOL     OW10569   4.509   2.958   0.076  0.1028  0.2390  0.2500
  237SOL    HW110570   4.450   2.887   0.038 -0.1253  0.5014  0.1177
  237SOL    HW210571   4.568   2.995   0.004  0.6575 -0.2508  0.4503
  238SOL     OW10572   3.685   0.516   2.560  0.2104  0.0236  0.5746
  238SOL    HW110573   3.636   0.445   2.510  0.1157  2.1834 -2.5883
  238SOL    HW210574   3.661   0.605   2.522  1.9898  1.5889  2.9926
  239SOL     OW10575   2.975   3.405   0.849  0.0502  0.0044  0.2081
  239SOL    HW110576   2.880   3.405   0.818  0.4835 -0.2034 -1.1361
  239SOL    HW210577   3.004   3.499   0.866 -0.7943 -0.0254  1.8842
  240SOL     OW10578   4.010   0.891   0.025 -0.3040  0.4740 -0.2416
  240SOL    HW110579   3.996   0.974  -0.029  1.4148  0.1534 -1.2117
  240SOL    HW210580   3.985   0.909   0.120 -1.2354  1.6982 -0.7015
  241SOL     OW10581   3.703   1.822   0.693 -0.4376  0.3222  0.3676
  241SOL    HW110582   3.738   1.753   0.755 -1.0302  0.0714  0.4238
  241SOL    HW210583   3.779   1.878   0.659 -0.0942  0.3553  1.1786
  242SOL     OW10584   1.915   1.370   1.057  0.1450  0.4891 -0.1048
  242SOL    HW110585   1.912   1.281   1.010 -2.0551  0.9113 -0.8080
  242SOL    HW210586   1.842   1.374   1.125  0.2108  1.7812 -0.1110
  243SOL     OW10587   4.743   4.616   0.542  0.2010  0.7806 -0.4053
  243SOL    HW110588   4.772   4.697   0.593 -1.1395  0.2986  1.1697
  243SOL    HW210589   4.645   4.601   0.556  0.5333 -1.4162 -0.2308
  244SOL     OW10590   4.486   1.830   1.851  0.0662  0.1684  0.2424
  244SOL    HW110591   4.545   1.750   1.865  2.8880  2.2903  1.2258
  244SOL    HW210592   4.437   1.849   1.936 -2.0041 -1.5394 -0.5425
  245SOL     OW10593   2.928   3.984   1.485 -0.1765  0.2381 -0.0186
  245SOL    HW110594   2.873   4.001   1.567  1.5316  1.1624  0.9636
  245SOL    HW210595   3.016   3.946   1.512  0.6859  1.2542 -1.3782
  246SOL     OW10596   4.032   1.037   0.309 -0.0320 -0.0942 -0.2944
  246SOL    HW110597   4.091   1.114   0.286  0.1743 -0.6312 -1.6041
  246SOL    HW210598   3.959   1.068   0.369  0.9543  0.7950  0.4504
  247SOL     OW10599   3.418   3.718   1.443  0.2244  0.1719  0.0594
  247SOL    HW110600   3.412   3.618   1.443 -0.5501  0.2096 -0.3974
  247SOL    HW210601   3.444   3.750   1.352  0.3444  0.3958  0.1718
  248SOL     OW10602   3.460   0.533   1.217  0.1900  0.4096  0.1473
  248SOL    HW110603   3.510   0.459   1.262  1.4608  0.9897 -0.2863
  248SOL    HW210604   3.362   0.517   1.225  0.4415 -0.6374  1.1958
  249SOL     OW10605   2.472   3.398   1.862  0.3434 -0.3811 -0.7947
  249SOL    HW110606   2.416   3.342   1.923 -2.5344  0.7321 -2.3483
  249SOL    HW210607   2.542   3.446   1.916 -0.4760 -1.4265  1.2585
  250SOL     OW10608   3.956   3.651   2.184  0.4597  0.4018 -0.5411
  250SOL    HW110609   3.872   3.704   2.192  0.1898  0.4136 -3.1155
  250SOL    HW210610   3.935   3.553   2.186  0.3715  0.4047 -1.1742
  251SOL     OW10611   1.803   1.128   2.432 -1.1411  0.2582  0.6837
  251SOL    HW110612   1.832   1.222   2.417 -1.6583  0.2185 -0.7341
  251SOL    HW210613   1.817   1.075   2.348 -2.0770 -0.5982  1.0484
  252SOL     OW10614   1.995   1.112   1.004 -0.4497  0.2133  0.0595
  252SOL    HW110615   2.066   1.051   1.039 -2.7110 -2.6334 -0.0849
  252SOL    HW210616   2.017   1.140   0.911  1.5322  1.1260  0.7940
  253SOL     OW10617   3.701   2.633   1.634  0.3551 -0.1191  0.1011
  253SOL    HW110618   3.635   2.590   1.572 -1.0237  2.5080 -0.3103
  253SOL    HW210619   3.783   2.659   1.582  0.1348  0.0622 -0.1560
  254SOL     OW10620   2.370   7.612   0.064 -0.1826 -0.1129 -0.4974
  254SOL    HW110621   2.320   7.532   0.097 -0.3793 -1.0562 -2.9888
  254SOL    HW210622   2.305   7.682   0.036 -0.0098  1.1732  2.1500
  255SOL     OW10623   2.553   7.068   0.386 -0.0065  0.1248 -0.2336
  255SOL    HW110624   2.454   7.065   0.399 -0.3029  1.4873 -1.9686
  255SOL    HW210625   2.598   7.059   0.475 -1.7074  0.4821  0.6987
  256SOL     OW10626   3.581   2.569   2.289 -0.6000  0.3368  0.1455
  256SOL    HW110627   3.617   2.476   2.288  0.1120  0.5984  0.9696
  256SOL    HW210628   3.656   2.634   2.276 -0.9901  0.8273  0.3102
  257SOL     OW10629   3.548   3.290   2.645 -0.0264 -0.0083 -0.7568
  257SOL    HW110630   3.463   3.251   2.679 -0.6267  1.6589 -0.3127
  257SOL    HW210631   3.528   3.372   2.591  1.3378  0.6907 -0.2144
  258SOL     OW10632   3.528   4.442   2.315 -0.1664  0.7891 -0.5440
  258SOL    HW110633   3.500   4.509   2.384  1.1555 -0.4707  1.2414
  258SOL    HW210634   3.488   4.353   2.337 -1.8665  0.9227 -2.8672
  259SOL     OW10635   2.059   6.894   2.234  0.0069  0.3732  0.1098
  259SOL    HW110636   2.014   6.809   2.260 -1.1629  1.1705  0.6850
  259SOL    HW210637   1.991   6.959   2.200  0.8537  1.2028 -0.0122
  260SOL     OW10638   3.392   5.486   2.505 -0.1704  0.5398  0.1005
  260SOL    HW110639   3.457   5.449   2.439 -0.5903  1.8030 -1.0344
  260SOL    HW210640   3.321   5.419   2.524 -2.4756  1.6200 -3.9995
  261SOL     OW10641   2.366   7.921   2.606  0.1821  0.0551  0.8233
  261SOL    HW110642   2.419   7.965   2.679  0.3061 -0.2935  0.9459
  261SOL    HW210643   2.425   7.906   2.527  0.4101 -0.8161  1.1529
  262SOL     OW10644   4.203   2.389   0.448  0.0786 -0.0222 -0.3740
  262SOL    HW110645   4.153   2.464   0.406  1.7747  0.0074 -2.3765
  262SOL    HW210646   4.294   2.420   0.475 -0.5817 -0.3430  2.3493
  263SOL     OW10647   3.692   0.702   0.306 -0.0352  0.5832 -0.1065
  263SOL    HW110648   3.659   0.645   0.381  1.3312  1.9876  1.6127
  263SOL    HW210649   3.783   0.671   0.278  0.3080  1.3020  0.1892
  264SOL     OW10650   3.530   2.303   0.002 -0.5382  0.0970 -0.3218
  264SOL    HW110651   3.476   2.320   0.084  2.2517  0.6907  1.4781
  264SOL    HW210652   3.572   2.213   0.008  0.7978  0.6918 -0.3924
  265SOL     OW10653   3.815   8.925   1.899  0.1423 -0.1770  0.4110
  265SOL    HW110654   3.910   8.955   1.895  0.7033 -1.8791  0.3695
  265SOL    HW210655   3.793   8.896   1.992 -0.0892 -0.5290  0.2473
  266SOL     OW10656   2.811   6.285   1.832  0.6007 -0.2272 -0.4227
  266SOL    HW110657   2.814   6.356   1.902 -1.1704  0.3732 -0.9275
  266SOL    HW210658   2.758   6.207   1.865 -1.6605  0.7393 -1.6703
  267SOL     OW10659   1.976   2.840   1.819  0.0396 -0.0320 -0.2672
  267SOL    HW110660   1.952   2.822   1.723 -0.4299  0.4722 -0.2426
  267SOL    HW210661   1.900   2.885   1.865  0.2060 -0.4072  0.3889
  268SOL     OW10662   2.497   3.270   0.380 -0.1247  0.0570  0.1911
  268SOL    HW110663   2.528   3.181   0.414  0.6132  0.4548  0.5794
  268SOL    HW210664   2.529   3.283   0.286 -0.5876 -0.2658 -0.0100
  269SOL     OW10665   2.922   9.094   1.247  0.2124  0.2089  0.0940
  269SOL    HW110666   2.880   9.156   1.181  0.6808  0.8321  0.3764
  269SOL    HW210667   3.021   9.090   1.230  0.2981  0.1841  0.6149
  270SOL     OW10668   2.914   6.893   1.068 -0.5974 -0.2417  0.2542
  270SOL    HW110669   2.909   6.794   1.077  0.0699 -0.3182 -0.1386
  270SOL    HW210670   2.925   6.918   0.971  0.1286  0.1617  0.4296
  271SOL     OW10671   2.574   1.540   0.819 -0.2156 -0.4289 -0.1104
  271SOL    HW110672   2.500   1.582   0.766  0.0799 -0.9235 -0.9275
  271SOL    HW210673   2.654   1.600   0.818  0.3686 -1.1858 -1.6776
  272SOL     OW10674   3.969   3.148   0.066 -0.3117  0.4220 -0.5282
  272SOL    HW110675   3.986   3.059   0.109 -0.3305  0.5872 -0.1765
  272SOL    HW210676   3.990   3.221   0.131 -0.2853  0.6756 -0.8196
  273SOL     OW10677   4.701   3.123   1.121 -0.0181  0.0537 -0.1219
  273SOL    HW110678   4.618   3.159   1.078 -0.8404  0.6341  1.8896
  273SOL    HW210679   4.766   3.198   1.136  1.0610 -0.4564 -2.0154
  274SOL     OW10680   4.298   4.298   2.434  0.2056  0.0425  0.2817
  274SOL    HW110681   4.357   4.222   2.462  0.4272  0.5619  1.2527
  274SOL    HW210682   4.281   4.358   2.512 -2.6853 -0.7853  0.3267
  275SOL     OW10683   2.490   6.516   1.803 -0.0914 -0.2945  0.1298
  275SOL    HW110684   2.414   6.565   1.846  1.0757  0.3547  1.4744
  275SOL    HW210685   2.473   6.508   1.705 -1.0859  1.3377  0.1485
  276SOL     OW10686   2.687   3.068   0.672  0.2029 -0.0808 -0.2562
  276SOL    HW110687   2.773   3.120   0.678 -0.5584  1.2456 -0.5031
  276SOL    HW210688   2.658   3.042   0.764  0.4687  0.1626 -0.1012
  277SOL     OW10689   1.889   9.889   2.053  0.1659 -0.1518 -0.2507
  277SOL    HW110690   1.871   9.979   2.013  0.9362 -0.1579 -0.6220
  277SOL    HW210691   1.934   9.901   2.142  0.1851 -0.1748 -0.2573
  278SOL     OW10692   4.051   0.798   0.437  0.3655  0.3537  0.1299
  278SOL    HW110693   4.043   0.891   0.400  1.4750 -0.6049 -2.6586
  278SOL    HW210694   4.148   0.772   0.439 -0.0143 -1.0871  0.0182
  279SOL     OW10695   4.033   4.366   0.365  0.1654  0.4545 -0.0107
  279SOL    HW110696   4.032   4.466   0.353  0.6682  0.2732 -1.7651
  279SOL    HW210697   3.978   4.341   0.445 -0.8220  2.0576 -0.1640
  280SOL     OW10698   2.576   7.331   1.212  0.2479  0.2970  0.0788
  280SOL    HW110699   2.480   7.356   1.228  0.3653  0.2063  0.9627
  280SOL    HW210700   2.581   7.234   1.187  0.0101  0.5705 -1.0167
  281SOL     OW10701   2.010   1.877   1.402 -0.7538 -0.3425 -0.1208
  281SOL    HW110702   1.977   1.890   1.496  0.5540 -1.4422  0.4969
  281SOL    HW210703   2.107   1.899   1.397 -0.2322 -2.7172 -0.6615
  282SOL     OW10704   2.685   8.922   0.274  0.4468  0.1426  0.0276
  282SOL    HW110705   2.593   8.891   0.297  0.3799  1.4559  1.5981
  282SOL    HW210706   2.690   9.021   0.285  1.7123  0.2410 -1.2521
  283SOL     OW10707   3.421   5.098   0.035  0.5440 -0.0365  0.4158
  283SOL    HW110708   3.400   5.145  -0.050  0.9872  3.7958  2.2734
  283SOL    HW210709   3.520   5.088   0.044  0.4073 -2.1823 -0.3821
  284SOL     OW10710   2.556   5.160   0.719 -0.3121 -0.2753  0.2501
  284SOL    HW110711   2.630   5.128   0.778  2.4432  1.1204 -2.3158
  284SOL    HW210712   2.550   5.100   0.639 -1.8481 -0.2596  0.3452
  285SOL     OW10713   2.319   0.375   1.962  0.4781  0.3132 -0.3210
  285SOL    HW110714   2.240   0.346   2.016  1.6287 -2.5719 -0.0843
  285SOL    HW210715   2.403   0.359   2.014  1.3247  1.9772 -1.1309
  286SOL     OW10716   3.096   9.227   0.132  0.3895 -0.4240  0.0610
  286SOL    HW110717   3.056   9.275   0.210 -1.8674 -0.7944 -0.8283
  286SOL    HW210718   3.077   9.278   0.048  2.0910 -0.4442 -0.3548
  287SOL     OW10719   4.782   1.658   0.862 -0.0413 -0.1955  0.8380
  287SOL    HW110720   4.828   1.610   0.937  1.6220 -1.7702 -1.1253
  287SOL    HW210721   4.697   1.610   0.839 -0.2672 -0.0383  1.3515
  288SOL     OW10722   4.240   2.109   2.089 -0.1562 -0.4185 -0.5562
  288SOL    HW110723   4.173   2.039   2.114 -0.6016  0.4335  0.6586
  288SOL    HW210724   4.323   2.096   2.143  0.0188 -0.4214 -0.8249
  289SOL     OW10725   2.585   4.030   0.787 -0.7460  0.2034 -0.0138
  289SOL    HW110726   2.562   4.117   0.830  0.8644  0.5103  0.2597
  289SOL    HW210727   2.619   3.967   0.857  0.5078  0.2216 -0.5970
  290SOL     OW10728   2.645   1.822   2.026  0.4424  0.2598  0.1463
  290SOL    HW110729   2.586   1.834   1.946  1.0646  1.6814 -0.1063
  290SOL    HW210730   2.625   1.893   2.093  2.7232  1.5038 -0.4720
  291SOL     OW10731   2.317   7.992   1.395 -0.1000  0.0359 -0.3629
  291SOL    HW110732   2.285   8.046   1.473 -2.4523 -0.2360 -1.0984
  291SOL    HW210733   2.362   7.909   1.428 -1.2106 -0.1529  0.7193
  292SOL     OW10734   2.300   2.500   2.061  0.0770  0.2449 -0.3943
  292SOL    HW110735   2.329   2.412   2.024 -1.9754 -0.5295 -0.1976
  292SOL    HW210736   2.271   2.489   2.156 -0.3677  1.0838 -0.4220
  293SOL     OW10737   2.686   6.734   1.746  0.2641  0.1079 -0.0127
  293SOL    HW110738   2.670   6.761   1.651  0.5335  1.5206  0.3271
  293SOL    HW210739   2.624   6.660   1.771  1.3175 -1.3901 -1.7754
  294SOL     OW10740   2.228   2.500   2.341 -0.9473 -0.1152  0.1731
  294SOL    HW110741   2.259   2.418   2.390  1.0144  0.9021  0.7115
  294SOL    HW210742   2.140   2.530   2.378 -0.9829 -1.1665  0.9455
  295SOL     OW10743   4.246   4.377   1.037  0.1729 -0.2298  0.3737
  295SOL    HW110744   4.248   4.398   1.134 -0.5132  1.1434  0.1116
  295SOL    HW210745   4.153   4.391   1.001  0.6026  0.1275 -0.6342
  296SOL     OW10746   3.583   0.779   0.873 -0.2935  0.4474 -0.0253
  296SOL    HW110747   3.588   0.797   0.972 -0.2816  4.2113 -0.6179
  296SOL    HW210748   3.496   0.813   0.837  0.1399  0.0539 -1.4846
  297SOL     OW10749   3.501   1.557   0.200 -0.2935 -0.4990 -0.5726
  297SOL    HW110750   3.518   1.486   0.131 -0.4057  0.8631 -2.0332
  297SOL    HW210751   3.405   1.585   0.195  0.2100  1.1458 -1.3839
  298SOL     OW10752   4.753   2.172   1.195  0.4357  0.4151 -0.1455
  298SOL    HW110753   4.691   2.230   1.143  1.2535  1.9160  0.5460
  298SOL    HW210754   4.786   2.221   1.276 -0.0900 -1.5373  1.3149
  299SOL     OW10755   2.029   6.815   1.054  0.1080  0.5052  0.4733
  299SOL    HW110756   2.084   6.898   1.041  1.6590 -1.0008 -3.2674
  299SOL    HW210757   1.940   6.826   1.010  0.9784 -0.4134 -1.5571
  300SOL     OW10758   3.431   3.066   1.066 -0.0458  0.2329  0.2605
  300SOL    HW110759   3.511   3.019   1.030 -0.5357 -1.6373  1.5765
  300SOL    HW210760   3.355   3.058   1.001 -0.0442 -0.5446  0.3574
  301SOL     OW10761   2.772   5.973   1.980 -0.2166 -0.0509 -0.2691
  301SOL    HW110762   2.707   6.048   1.969  0.7861  0.5472 -2.5138
  301SOL    HW210763   2.864   6.005   1.956  0.1059 -2.1455 -1.9678
  302SOL     OW10764   3.611   0.740   0.574  1.0313  0.5925 -0.5357
  302SOL    HW110765   3.576   0.822   0.527  0.8141  0.6734 -0.2366
  302SOL    HW210766   3.581   0.742   0.670  1.0134  0.1512 -0.5349
  303SOL     OW10767   2.524   9.486   0.071  0.1170  0.1339 -0.4832
  303SOL    HW110768   2.504   9.472   0.168 -0.0420 -0.7354 -0.6429
  303SOL    HW210769   2.458   9.551   0.033  2.2229  3.1218  0.7760
  304SOL     OW10770   1.868   5.817   0.207 -0.1822 -0.0205 -0.3038
  304SOL    HW110771   1.845   5.755   0.282 -1.1441  1.0026  0.2550
  304SOL    HW210772   1.944   5.778   0.154 -1.1715 -1.9631 -0.3347
  305SOL     OW10773   2.176   2.974   1.353  0.4313 -0.6176 -0.3748
  305SOL    HW110774   2.155   3.006   1.261  0.2650 -0.3688 -0.2482
  305SOL    HW210775   2.275   2.970   1.365  0.4944 -2.5756 -1.2509
  306SOL     OW10776   3.033   0.719   2.359  0.0467 -0.3654 -0.0177
  306SOL    HW110777   3.088   0.650   2.405  0.5077  0.8043  1.2423
  306SOL    HW210778   3.077   0.809   2.370 -1.8330  0.5159  0.5666
  307SOL     OW10779   3.439   5.111   1.371  0.3143  0.3556  0.0194
  307SOL    HW110780   3.377   5.033   1.383 -1.3930  1.5935 -0.6132
  307SOL    HW210781   3.388   5.189   1.336  1.9795  1.8156  0.7678
  308SOL     OW10782   3.618   2.553   0.365 -0.3576  0.0057  0.4027
  308SOL    HW110783   3.714   2.577   0.351 -0.1675 -0.9351  0.0809
  308SOL    HW210784   3.562   2.635   0.359  0.2469  0.3175 -1.0276
  309SOL     OW10785   2.661   8.511   2.293  0.0862 -0.8189  0.3987
  309SOL    HW110786   2.655   8.488   2.390 -1.0463  0.5694  0.6733
  309SOL    HW210787   2.669   8.427   2.239  3.1696 -1.4960  1.8304
  310SOL     OW10788   3.529   5.243   1.600  0.1780 -0.0525  0.1732
  310SOL    HW110789   3.507   5.214   1.507 -0.5216 -0.0761  0.3416
  310SOL    HW210790   3.615   5.294   1.600 -0.3049  0.7838 -0.6330
  311SOL     OW10791   2.159   3.559   0.875 -0.3826 -0.5732 -0.3124
  311SOL    HW110792   2.097   3.553   0.797 -0.8151  0.9530 -0.1017
  311SOL    HW210793   2.133   3.637   0.932  0.3580 -1.2616  0.9860
  312SOL     OW10794   3.616   8.134   1.424 -0.2935  0.2579  0.2846
  312SOL    HW110795   3.600   8.055   1.365  0.8241 -0.3316  0.7547
  312SOL    HW210796   3.650   8.210   1.369  0.2753 -0.1337  0.0892
  313SOL     OW10797   4.352   1.340   1.551 -0.1469  0.1231  0.1609
  313SOL    HW110798   4.306   1.428   1.549 -0.6719 -0.1663 -0.6681
  313SOL    HW210799   4.451   1.355   1.558 -0.1854  0.7940 -0.6036
  314SOL     OW10800   3.236   2.971   2.365 -0.2184  0.1043  0.3310
  314SOL    HW110801   3.219   3.064   2.396 -2.3081 -0.5371  1.1909
  314SOL    HW210802   3.233   2.908   2.443 -0.4847 -0.8863 -0.4617
  315SOL     OW10803   3.658   2.360   0.961  0.3667 -0.1750  0.3544
  315SOL    HW110804   3.633   2.356   1.058 -0.1504  0.8485  0.2689
  315SOL    HW210805   3.596   2.422   0.913  0.1163 -1.3047 -0.8003
  316SOL     OW10806   2.761   4.763   2.053 -0.1917  0.4809 -0.3886
  316SOL    HW110807   2.737   4.816   2.135  0.3502 -0.5459  0.4549
  316SOL    HW210808   2.848   4.796   2.017 -0.2408  0.6842 -0.3233
  317SOL     OW10809   5.005   1.674   0.459 -0.1781 -0.1181 -0.1686
  317SOL    HW110810   4.991   1.618   0.541  0.4556  1.4119  1.0155
  317SOL    HW210811   4.918   1.716   0.432 -0.2981 -0.2591 -0.0014
  318SOL     OW10812   2.857   2.728   1.803  0.2281 -0.5162 -0.1748
  318SOL    HW110813   2.761   2.708   1.781  0.3567  0.7328 -2.0284
  318SOL    HW210814   2.917   2.668   1.749  0.5162 -1.0967  0.7675
  319SOL     OW10815   2.865   8.780   0.948 -0.0857  0.4050  0.0366
  319SOL    HW110816   2.897   8.753   0.857  0.2218 -3.5643  1.2675
  319SOL    HW210817   2.788   8.723   0.976  0.1937  1.1654  2.5306
  320SOL     OW10818   3.476   3.684   0.977  0.3918 -0.0866  0.5752
  320SOL    HW110819   3.434   3.769   0.945  0.8760  0.4536  1.3742
  320SOL    HW210820   3.437   3.607   0.926  1.0207  0.7346 -1.1803
  321SOL     OW10821   3.044   3.051   1.970  0.3687  0.5495  0.2087
  321SOL    HW110822   3.133   3.023   2.005 -0.6935 -0.1071  2.5437
  321SOL    HW210823   3.029   3.011   1.880  1.7995 -0.6360  0.4816
  322SOL     OW10824   4.245   1.459   1.873  0.2366 -0.2468 -0.5523
  322SOL    HW110825   4.170   1.504   1.826 -0.9565 -1.6007  0.0381
  322SOL    HW210826   4.248   1.362   1.848  0.8829 -0.5196  0.5355
  323SOL     OW10827   2.046   9.681   1.998 -0.5487 -0.5819  0.6891
  323SOL    HW110828   1.969   9.744   2.005 -0.1851 -0.1051  0.4358
  323SOL    HW210829   2.127   9.723   2.038  0.2980  0.1044 -1.6841
  324SOL     OW10830   3.578   4.388   2.053  0.0730 -0.5322 -0.0929
  324SOL    HW110831   3.553   4.460   1.989 -0.6740 -2.6754 -2.2892
  324SOL    HW210832   3.561   4.418   2.147 -1.7221  1.5345 -1.0628
  325SOL     OW10833   3.883   1.021   2.486 -0.1587  0.2950 -0.0435
  325SOL    HW110834   3.809   1.042   2.423  0.4745  1.7816 -0.3209
  325SOL    HW210835   3.959   1.085   2.471  0.0913  0.5450  2.0442
  326SOL     OW10836   3.204   2.981   0.842  0.0939 -0.0608 -0.4409
  326SOL    HW110837   3.170   2.888   0.849 -0.4346 -0.1203 -3.0742
  326SOL    HW210838   3.128   3.046   0.849  0.4833  0.1993  1.5825
  327SOL     OW10839   2.117   8.895   0.496 -0.0468  0.1480 -0.1792
  327SOL    HW110840   2.164   8.809   0.472  1.0338  1.0324 -1.3022
  327SOL    HW210841   2.172   8.972   0.465 -0.9301  1.2588  0.9988
  328SOL     OW10842   5.134   4.107   0.205 -0.1886 -0.0710  0.4095
  328SOL    HW110843   5.129   4.198   0.246  2.2282  0.6796 -0.8467
  328SOL    HW210844   5.187   4.047   0.265  0.9754  0.2578 -0.2811
  329SOL     OW10845   3.524   1.286   2.253 -0.6509 -0.3311 -0.3007
  329SOL    HW110846   3.576   1.340   2.187  0.5237  0.6567  1.4003
  329SOL    HW210847   3.427   1.292   2.231 -0.3642  0.7836 -1.3453
  330SOL     OW10848   5.183   2.573   0.023 -0.0906  0.5662 -0.4538
  330SOL    HW110849   5.178   2.667   0.056  0.3029  0.1040  0.9675
  330SOL    HW210850   5.165   2.510   0.099 -0.9063 -0.4930 -1.5150
  331SOL     OW10851   2.364   8.172   2.209  0.1411  0.1827  0.1714
  331SOL    HW110852   2.416   8.185   2.125  1.1350  0.0579  0.7618
  331SOL    HW210853   2.309   8.089   2.202 -0.5521  0.7046 -0.7363
  332SOL     OW10854   3.209   8.839   1.306 -0.2480 -0.0388 -0.1998
  332SOL    HW110855   3.196   8.836   1.406 -0.0940  2.2350 -0.0686
  332SOL    HW210856   3.306   8.841   1.285 -0.2790  0.5001 -0.3196
  333SOL     OW10857   2.671   5.971   0.014 -0.4042  0.0399 -0.7198
  333SOL    HW110858   2.609   6.035   0.061  0.0001 -0.6010  0.7169
  333SOL    HW210859   2.660   5.981  -0.085 -2.9860 -0.2296 -0.4919
  334SOL     OW10860   4.770   2.071   2.407  0.0040 -0.1260 -0.3907
  334SOL    HW110861   4.748   1.997   2.470  0.8719  1.3204  1.6605
  334SOL    HW210862   4.852   2.047   2.354  1.0214 -0.1361  1.1630
  335SOL     OW10863   1.724   3.693   0.047  0.2282  0.0500  0.1161
  335SOL    HW110864   1.660   3.715  -0.026  0.6710 -1.0614 -0.6317
  335SOL    HW210865   1.818   3.707   0.014  0.4623 -1.4929  0.1017
  336SOL     OW10866   1.840   9.057   1.982 -0.2643 -0.3011  0.2129
  336SOL    HW110867   1.854   9.033   2.078 -0.1138  0.0967  0.2927
  336SOL    HW210868   1.776   8.993   1.940  0.7395 -1.3313  0.2147
  337SOL     OW10869   3.530   3.331   1.065 -0.0247  0.7634  0.0181
  337SOL    HW110870   3.501   3.236   1.077 -0.4706  0.8853 -0.1052
  337SOL    HW210871   3.482   3.372   0.988  0.3519  1.0157 -0.0854
  338SOL     OW10872   1.777   8.479   2.455  0.0663  1.0872 -0.2745
  338SOL    HW110873   1.826   8.449   2.374  2.8441  0.6167  1.5018
  338SOL    HW210874   1.738   8.400   2.503 -0.2283  1.2081 -0.3102
  339SOL     OW10875   3.290   3.581   0.108  0.2004  0.2476  0.3433
  339SOL    HW110876   3.222   3.625   0.050  1.0593  1.1467  0.0040
  339SOL    HW210877   3.356   3.531   0.051  0.9051  0.9336  0.5491
  340SOL     OW10878   2.011   1.695   0.129 -0.7587 -0.5812 -0.7901
  340SOL    HW110879   2.104   1.709   0.095 -0.2258 -2.1284  0.0100
  340SOL    HW210880   1.992   1.760   0.203  0.2051 -1.2294  0.0376
  341SOL     OW10881   3.034   5.319   2.157  0.0427 -0.0816 -0.7452
  341SOL    HW110882   2.965   5.383   2.190  0.1873 -1.5150  2.5501
  341SOL    HW210883   2.990   5.235   2.125  0.0961  0.0770 -1.2366
  342SOL     OW10884   2.815   8.209   0.916  0.2765  0.5200  0.2213
  342SOL    HW110885   2.882   8.136   0.924  0.9327  1.1698  0.7478
  342SOL    HW210886   2.822   8.252   0.826  0.4095  0.4409  0.1948
  343SOL     OW10887   2.381   0.575   1.770 -0.3234  0.2107 -0.3325
  343SOL    HW110888   2.311   0.521   1.817 -1.9315  0.0368 -2.8493
  343SOL    HW210889   2.468   0.526   1.773 -1.4622 -1.9890 -1.4759
  344SOL     OW10890   2.359   4.758   2.559  0.0383 -0.1803 -0.0248
  344SOL    HW110891   2.353   4.684   2.492 -0.2700 -0.2370  0.0636
  344SOL    HW210892   2.288   4.825   2.540 -1.2193 -1.0903  1.3270
  345SOL     OW10893   3.758   3.773   0.243 -0.0052  0.0807 -0.1868
  345SOL    HW110894   3.791   3.698   0.301  1.5169 -0.8143 -2.1444
  345SOL    HW210895   3.808   3.772   0.156 -2.9030  0.7546 -1.9369
  346SOL     OW10896   2.071   7.290   2.662  0.1520 -0.7919  0.2062
  346SOL    HW110897   2.115   7.359   2.605  0.1655  0.3471  1.5506
  346SOL    HW210898   1.973   7.286   2.640  0.3016 -0.9122 -0.4314
  347SOL     OW10899   3.793   4.138   0.447  0.2927  0.1653 -0.1660
  347SOL    HW110900   3.772   4.233   0.471  3.6622  0.9375 -0.0288
  347SOL    HW210901   3.849   4.098   0.519  1.3508 -0.9826 -1.6108
  348SOL     OW10902   2.429   9.482   0.320  0.1748 -0.1260 -0.3182
  348SOL    HW110903   2.419   9.454   0.416  1.0142 -0.2180 -0.2548
  348SOL    HW210904   2.339   9.504   0.283  0.0091  1.4788  0.9752
  349SOL     OW10905   3.456   0.107   2.327 -0.1245  0.3520 -0.5063
  349SOL    HW110906   3.486   0.011   2.336 -0.6036  0.0767 -1.8165
  349SOL    HW210907   3.363   0.116   2.361  0.3326  0.5985  0.7121
  350SOL     OW10908   3.172   2.123   2.150  0.4793  0.4289  0.5929
  350SOL    HW110909   3.208   2.197   2.095  0.0915  0.6363  0.6140
  350SOL    HW210910   3.247   2.068   2.186  0.7613  0.7575  0.5042
  351SOL     OW10911   3.775   1.345   2.382 -0.3848 -0.2073 -0.0996
  351SOL    HW110912   3.699   1.299   2.336  0.3457  0.2705 -1.8040
  351SOL    HW210913   3.747   1.438   2.406 -0.4001 -0.0995 -0.5406
  352SOL     OW10914   3.284   2.977   2.057  0.0757 -0.3777  0.2542
  352SOL    HW110915   3.329   2.966   2.146 -0.1762 -0.1189  0.4169
  352SOL    HW210916   3.350   3.005   1.988 -0.1865  1.9255  0.9072
  353SOL     OW10917   4.383   2.987   1.304  0.0012  0.0794 -0.0271
  353SOL    HW110918   4.457   2.936   1.347  0.5454  0.0786 -0.9510
  353SOL    HW210919   4.324   3.027   1.375  0.6165 -0.3059  0.7057
  354SOL     OW10920   4.044   0.945   1.683 -0.0402 -0.5547 -0.6167
  354SOL    HW110921   4.120   0.894   1.642  0.3732  1.4726 -2.4945
  354SOL    HW210922   3.973   0.960   1.614 -0.5435  0.6122  0.1389
  355SOL     OW10923   2.048   0.324   1.495  0.1249  0.0053 -0.5822
  355SOL    HW110924   2.058   0.290   1.402 -0.3985 -0.7353 -0.3807
  355SOL    HW210925   2.117   0.282   1.554  0.7863  0.8746 -0.7427
  356SOL     OW10926   3.574   3.452   0.337  0.1687  0.1170 -0.0810
  356SOL    HW110927   3.670   3.473   0.320  0.0278 -0.4311 -1.6407
  356SOL    HW210928   3.544   3.381   0.274 -0.5986 -1.4957  2.0167
  357SOL     OW10929   1.978   2.791   0.370 -0.2042 -0.3849  0.5995
  357SOL    HW110930   1.994   2.842   0.286  3.2056 -1.3251  0.5725
  357SOL    HW210931   1.994   2.850   0.449  0.3516 -0.4682  0.5561
  358SOL     OW10932   2.948   2.731   0.576 -0.2616 -0.0020 -0.6364
  358SOL    HW110933   2.991   2.649   0.539  1.2509  0.3560  0.2584
  358SOL    HW210934   2.860   2.707   0.616  0.7241 -1.4611  0.7585
  359SOL     OW10935   3.268   3.350   0.267  0.0447  0.2297  1.0127
  359SOL    HW110936   3.247   3.374   0.362 -0.4648 -0.1950  1.0082
  359SOL    HW210937   3.243   3.426   0.207 -2.4153 -0.6271  0.8961
  360SOL     OW10938   2.784   4.762   0.455 -0.1314  0.7815 -0.7074
  360SOL    HW110939   2.730   4.846   0.466 -0.4971  0.6141 -1.2260
  360SOL    HW210940   2.823   4.736   0.544 -0.6339  1.0837 -0.3922
  361SOL     OW10941   3.004   7.605   1.823  0.1098  0.2145  0.4212
  361SOL    HW110942   2.996   7.692   1.773 -0.1413  0.2103  0.4527
  361SOL    HW210943   3.082   7.609   1.885  0.7188  0.0482 -0.3227
  362SOL     OW10944   2.209   4.934   2.426 -0.2528  0.1748  0.6626
  362SOL    HW110945   2.123   4.956   2.473  0.4507 -0.2743  2.1837
  362SOL    HW210946   2.227   5.003   2.356 -1.6841  0.4543  0.5499
  363SOL     OW10947   3.311   1.131   0.108 -0.0688 -0.1670  0.0131
  363SOL    HW110948   3.349   1.043   0.081 -1.1287 -0.3184 -0.9899
  363SOL    HW210949   3.211   1.126   0.112 -0.1917  1.1798 -0.8072
  364SOL     OW10950   2.898   8.925   1.484 -0.6501 -0.2994 -0.1788
  364SOL    HW110951   2.995   8.913   1.502 -0.5287  0.7006 -0.1439
  364SOL    HW210952   2.885   8.968   1.395 -0.9909  1.1872  0.5771
  365SOL     OW10953   2.844   7.663   1.082  0.1310  0.1637  0.0276
  365SOL    HW110954   2.829   7.694   1.176  1.4809 -0.2417  0.3824
  365SOL    HW210955   2.920   7.714   1.041  0.7494 -0.9373 -0.2182
  366SOL     OW10956   3.950   9.606   0.148  0.2303 -0.2894 -0.2510
  366SOL    HW110957   3.973   9.692   0.194 -0.6145  0.4259 -1.1429
  366SOL    HW210958   3.964   9.530   0.211 -0.2106  0.6217  0.9677
  367SOL     OW10959   5.085   3.778   1.200 -0.3390  0.6821  0.3457
  367SOL    HW110960   5.031   3.778   1.116 -1.5221  1.6735  1.0843
  367SOL    HW210961   5.027   3.806   1.277  1.0843  1.1887  1.2581
  368SOL     OW10962   3.966   0.475   2.599  0.0130  0.8394  0.5124
  368SOL    HW110963   3.870   0.494   2.582 -0.0036  0.4467  0.1587
  368SOL    HW210964   4.022   0.532   2.539 -0.0293  0.0926 -0.2475
  369SOL     OW10965   4.884   2.987   0.865 -0.5520 -0.0697  0.2849
  369SOL    HW110966   4.973   3.006   0.907 -0.3457 -0.8010  0.1987
  369SOL    HW210967   4.871   2.888   0.858 -0.3318  0.0085 -1.8552
  370SOL     OW10968   2.709   2.547   0.577 -0.1384  0.1267 -0.0808
  370SOL    HW110969   2.708   2.584   0.670  0.9953  0.2989 -0.1270
  370SOL    HW210970   2.621   2.502   0.558  0.9303 -3.2616  2.4226
  371SOL     OW10971   2.148   9.084   0.104 -0.1221 -0.5087 -0.0694
  371SOL    HW110972   2.121   9.034   0.021 -1.0289  0.2880 -0.2629
  371SOL    HW210973   2.208   9.026   0.159 -0.5602 -1.5382 -0.6496
  372SOL     OW10974   2.761   3.509   1.540 -0.0350 -0.0367 -0.2225
  372SOL    HW110975   2.790   3.575   1.471 -0.2909 -1.7919 -2.0791
  372SOL    HW210976   2.661   3.503   1.541 -0.0346  0.0602  0.3616
  373SOL     OW10977   3.720   4.016   1.816 -0.1110  0.6215 -0.3002
  373SOL    HW110978   3.770   4.091   1.859  0.9849  1.8574 -3.5713
  373SOL    HW210979   3.628   4.049   1.790 -0.0835  0.4653 -0.5964
  374SOL     OW10980   2.805   6.469   2.478  0.1447 -0.6252  0.1176
  374SOL    HW110981   2.863   6.436   2.404  0.5377  0.6945 -0.1729
  374SOL    HW210982   2.716   6.424   2.473  0.3547 -0.9438 -0.8267
  375SOL     OW10983   3.662   2.020   0.049 -0.0113  0.8939  0.0370
  375SOL    HW110984   3.692   2.061   0.135  1.8438 -0.5651  0.1366
  375SOL    HW210985   3.574   1.975   0.063 -0.3054  1.7049  0.8566
  376SOL     OW10986   2.976   0.985   0.523 -0.1326 -0.3802  0.1763
  376SOL    HW110987   2.959   0.887   0.524  1.0211 -0.5873  3.1092
  376SOL    HW210988   2.901   1.033   0.568 -1.3987  0.2693 -2.4929
  377SOL     OW10989   4.402   4.551   0.861  0.1535 -0.0910 -0.0256
  377SOL    HW110990   4.339   4.490   0.910  0.3201 -1.1579 -1.1084
  377SOL    HW210991   4.454   4.498   0.794  0.6992  1.1577 -0.6035
  378SOL     OW10992   3.657   0.779   2.455  0.6747 -0.4002  0.1113
  378SOL    HW110993   3.561   0.790   2.482  0.6656  0.8387 -0.4065
  378SOL    HW210994   3.715   0.835   2.515  1.0266 -0.7839  0.1279
  379SOL     OW10995   2.823   9.414   0.484 -0.4309  0.5158  0.1806
  379SOL    HW110996   2.832   9.339   0.548 -0.8463 -0.0454 -0.4130
  379SOL    HW210997   2.754   9.478   0.517 -0.5001  0.3334  0.3872
  380SOL     OW10998   3.906   2.529   0.432  0.7135  0.1502 -0.1538
  380SOL    HW110999   3.873   2.513   0.526 -0.5565  0.5100 -0.5305
  380SOL    HW211000   3.987   2.587   0.435 -0.1453  1.3387  0.6507
  381SOL     OW11001   1.970   1.533   0.674 -0.1882 -0.5763  0.4481
  381SOL    HW111002   1.975   1.610   0.737  0.1366 -1.2450  1.2519
  381SOL    HW211003   1.915   1.460   0.715  0.5624 -1.2709  0.2477
  382SOL     OW11004   2.734   7.561   1.879  0.7857  0.1842 -0.1417
  382SOL    HW111005   2.821   7.522   1.851  1.2427  0.6164  0.6573
  382SOL    HW211006   2.736   7.660   1.864  0.6042  0.2556  0.3009
  383SOL     OW11007   1.962   9.284   0.089  0.2267  0.0637 -0.1540
  383SOL    HW111008   1.898   9.260   0.016  0.8201  1.6644 -1.2402
  383SOL    HW211009   2.029   9.211   0.101 -1.2795 -1.2572  0.4298
  384SOL     OW11010   4.073   0.212   0.429 -0.2131  0.1427  0.3644
  384SOL    HW111011   4.071   0.148   0.506  1.7536  0.3726  0.6303
  384SOL    HW211012   4.130   0.291   0.452  0.2896  0.2771 -1.2503
  385SOL     OW11013   3.471   1.848   0.151 -0.6929 -0.8917 -0.0371
  385SOL    HW111014   3.446   1.919   0.218 -0.6818  0.0203 -0.9814
  385SOL    HW211015   3.505   1.767   0.199  1.7738  0.6969  1.0109
  386SOL     OW11016   2.151   9.070   2.358 -0.2099 -0.5133 -0.1247
  386SOL    HW111017   2.095   9.149   2.380 -0.7590 -0.1533 -2.6483
  386SOL    HW211018   2.229   9.066   2.420 -2.0872 -0.0606  2.3356
  387SOL     OW11019   2.516   7.404   1.762 -0.3444 -0.4102 -0.4176
  387SOL    HW111020   2.462   7.351   1.827  0.5689 -2.4055 -1.2274
  387SOL    HW211021   2.591   7.449   1.810 -0.6136 -0.5813  0.1636
  388SOL     OW11022   3.702   3.003   0.024  0.0428 -0.0089  0.3387
  388SOL    HW111023   3.760   3.084   0.033  1.1822 -0.6721 -0.9010
  388SOL    HW211024   3.635   3.018  -0.048  1.8754 -1.0821 -1.6469
  389SOL     OW11025   4.229   2.721   1.681 -0.1605 -0.1824  0.6974
  389SOL    HW111026   4.185   2.791   1.739 -0.9653  0.8833 -1.1536
  389SOL    HW211027   4.177   2.636   1.686 -0.1875 -0.1171  1.5946
  390SOL     OW11028   1.984   2.296   0.621  0.2553  0.3764  0.1928
  390SOL    HW111029   1.964   2.295   0.719 -1.4234  0.0803 -0.1484
  390SOL    HW211030   2.019   2.386   0.595  1.2589  0.2820  1.1534
  391SOL     OW11031   3.082   8.709   0.291  1.0827 -0.0251 -0.5926
  391SOL    HW111032   3.106   8.766   0.213 -0.6799  0.3956 -0.8472
  391SOL    HW211033   3.036   8.626   0.259  0.7104 -0.0384 -0.0364
  392SOL     OW11034   4.319   3.945   1.934 -0.5849 -0.0900  0.1761
  392SOL    HW111035   4.317   4.035   1.976 -1.6274 -0.2262  0.4451
  392SOL    HW211036   4.260   3.883   1.986 -0.6378 -0.6676 -0.5644
  393SOL     OW11037   3.191   0.540   2.483 -0.4814  0.1361 -0.3370
  393SOL    HW111038   3.285   0.516   2.457  0.8313  2.3174  2.1853
  393SOL    HW211039   3.176   0.514   2.578 -1.5253  2.3245  0.1123
  394SOL     OW11040   2.841   8.028   2.326  0.2103  0.2705 -0.0485
  394SOL    HW111041   2.929   7.999   2.364  1.0596  2.3159 -0.3504
  394SOL    HW211042   2.795   8.087   2.392  0.3989  1.5386 -1.0349
  395SOL     OW11043   1.851   3.238   1.452  0.2010 -0.2931  0.6598
  395SOL    HW111044   1.910   3.316   1.431 -0.1409 -0.2087  0.0138
  395SOL    HW211045   1.898   3.178   1.517  0.2209  0.7524  1.6241
  396SOL     OW11046   3.538   3.469   1.762 -0.8176 -0.3220 -0.1663
  396SOL    HW111047   3.605   3.438   1.829 -0.2833  0.6450 -0.2468
  396SOL    HW211048   3.496   3.389   1.717 -1.4579 -0.9917  1.5667
  397SOL     OW11049   3.366   9.741   2.146  0.6648  0.1891  0.1213
  397SOL    HW111050   3.319   9.812   2.092  1.1671 -0.1099 -0.7051
  397SOL    HW211051   3.434   9.785   2.205  0.2339  0.5001  0.3969
  398SOL     OW11052   2.946   3.698   0.301  0.3562  0.4482  0.4426
  398SOL    HW111053   2.962   3.704   0.202  1.3713 -0.0898  0.5605
  398SOL    HW211054   2.872   3.759   0.327  0.6567  1.2392 -0.5275
  399SOL     OW11055   4.593   2.076   2.027 -0.0972 -0.3860 -0.0024
  399SOL    HW111056   4.546   2.084   2.115  0.3941 -0.6558  0.2893
  399SOL    HW211057   4.587   1.982   1.994 -3.3161  0.4518 -1.9835
  400SOL     OW11058   3.013   7.642   0.682 -0.5722 -0.1121 -0.8049
  400SOL    HW111059   3.105   7.607   0.698 -1.2993 -0.9960  1.5247
  400SOL    HW211060   2.956   7.569   0.643 -1.4206 -0.8872  1.7749
  401SOL     OW11061   2.292   5.770   0.131  0.0699 -0.7459  0.3407
  401SOL    HW111062   2.327   5.805   0.218 -0.0961 -2.5319  1.1603
  401SOL    HW211063   2.208   5.719   0.147 -0.6550 -0.0109 -1.0599
  402SOL     OW11064   2.533   8.310   0.202 -0.3116 -0.1826  0.2518
  402SOL    HW111065   2.443   8.330   0.240 -0.3731  1.0005 -0.5009
  402SOL    HW211066   2.594   8.387   0.220  0.3913 -0.7392  0.2611
  403SOL     OW11067   3.430   0.566   1.516 -0.0067  0.5216 -0.3739
  403SOL    HW111068   3.424   0.472   1.550  1.1365  0.8500  0.7852
  403SOL    HW211069   3.413   0.567   1.417  0.6859 -1.0046 -0.5278
  404SOL     OW11070   3.123   5.200   1.891  0.1686 -0.0013 -0.3572
  404SOL    HW111071   3.050   5.268   1.885 -0.9896 -1.0669  1.2513
  404SOL    HW211072   3.208   5.239   1.855 -1.2670  1.0967 -2.7114
  405SOL     OW11073   1.969   3.316   2.664  0.0244  0.0046 -0.1742
  405SOL    HW111074   1.978   3.362   2.753  0.4533  0.2366 -0.3336
  405SOL    HW211075   2.032   3.358   2.599  1.6909 -1.9514  0.1470
  406SOL     OW11076   3.033   5.693   2.456  0.0656  0.2654 -0.3771
  406SOL    HW111077   3.130   5.678   2.476  0.1329 -0.5106 -1.2182
  406SOL    HW211078   2.993   5.752   2.525  1.2940  1.1036 -0.3606
  407SOL     OW11079   2.739   3.447   0.712  0.0679  0.1316 -0.4183
  407SOL    HW111080   2.811   3.452   0.643 -0.3234  1.9248 -0.7187
  407SOL    HW211081   2.654   3.482   0.674 -0.6328 -0.6881  0.3721
  408SOL     OW11082   2.226   1.060   2.163  0.0133 -0.2992 -0.5193
  408SOL    HW111083   2.239   1.159   2.159 -1.9042  0.0505  0.9978
  408SOL    HW211084   2.257   1.026   2.251 -0.9431 -0.7757 -0.3596
  409SOL     OW11085   2.105   7.171   1.967 -0.9204  0.3117 -0.3220
  409SOL    HW111086   2.117   7.085   1.917 -1.8250  0.9047 -1.5864
  409SOL    HW211087   2.049   7.154   2.048  0.7419 -0.6994  0.6507
  410SOL     OW11088   2.781   9.514   0.200 -0.1657 -0.2368  0.3162
  410SOL    HW111089   2.701   9.487   0.146 -0.3815  1.2097 -0.1144
  410SOL    HW211090   2.766   9.491   0.296 -1.3668  0.5746  0.3351
  411SOL     OW11091   2.435   7.943   1.928  0.4459  0.4227 -0.8732
  411SOL    HW111092   2.477   8.032   1.912  0.9939  0.0973 -1.2774
  411SOL    HW211093   2.501   7.871   1.905  0.0392 -0.0821 -0.4588
  412SOL     OW11094   4.503   2.409   2.339  0.1923  0.1123  0.5645
  412SOL    HW111095   4.421   2.466   2.339 -1.7186 -2.5315 -0.1090
  412SOL    HW211096   4.555   2.426   2.422 -0.2766  2.8564  0.3429
  413SOL     OW11097   2.364   0.141   1.253 -0.4166 -0.1780 -0.4102
  413SOL    HW111098   2.376   0.078   1.176  0.1271  1.8525 -2.0179
  413SOL    HW211099   2.269   0.170   1.259 -0.1732  0.7947 -1.2215
  414SOL     OW11100   4.068   1.770   0.161 -0.1321  0.7454  0.1552
  414SOL    HW111101   4.001   1.780   0.234  0.3849  1.0874  0.5824
  414SOL    HW211102   4.127   1.691   0.181 -1.5171 -0.6314 -1.0943
  415SOL     OW11103   2.213   5.557   1.875 -1.2390 -0.0851  0.7441
  415SOL    HW111104   2.262   5.589   1.793 -1.0274 -1.6416  0.2393
  415SOL    HW211105   2.139   5.620   1.896  0.0996  1.5497  0.6752
  416SOL     OW11106   4.623   1.450   0.132  0.0953 -0.2335 -0.0998
  416SOL    HW111107   4.545   1.460   0.071  0.8694  2.4303 -0.7180
  416SOL    HW211108   4.705   1.429   0.078  0.5731  1.0372  0.1232
  417SOL     OW11109   4.347   4.482   0.330  0.0209 -0.1093 -0.3487
  417SOL    HW111110   4.292   4.551   0.285 -0.7582 -0.4897  0.0138
  417SOL    HW211111   4.403   4.434   0.262 -1.1590 -0.6921 -0.9237
  418SOL     OW11112   3.174   3.335   1.333  0.0038  0.1478  0.1076
  418SOL    HW111113   3.102   3.371   1.274  0.8970 -1.6349 -2.1158
  418SOL    HW211114   3.132   3.293   1.414 -1.6851 -2.9666 -2.2738
  419SOL     OW11115   3.780   0.527   1.744  0.0810  0.2073  0.1113
  419SOL    HW111116   3.839   0.607   1.756  0.3198  0.1389 -0.5715
  419SOL    HW211117   3.754   0.491   1.834 -0.2729  1.2272  0.4284
  420SOL     OW11118   2.569   9.050   1.834 -0.1062 -0.1163 -0.4464
  420SOL    HW111119   2.620   8.997   1.902 -0.8588  0.3411  0.5012
  420SOL    HW211120   2.541   9.137   1.875  0.8325  0.8740 -1.8762
  421SOL     OW11121   2.523   2.918   1.977  0.2884  0.1244 -0.1922
  421SOL    HW111122   2.531   2.820   1.991  0.3617  0.1786  0.1579
  421SOL    HW211123   2.524   2.965   2.066  0.1449  0.4323 -0.3489
  422SOL     OW11124   2.053   5.768   1.930  0.2494  0.2195 -0.4150
  422SOL    HW111125   2.036   5.810   2.019 -3.7113 -0.2508 -0.8866
  422SOL    HW211126   2.064   5.840   1.862 -0.0151  0.5496 -0.1131
  423SOL     OW11127   2.666   9.191   2.261 -0.0128  0.3222  0.2279
  423SOL    HW111128   2.679   9.158   2.354 -1.5662 -2.2989 -0.4393
  423SOL    HW211129   2.569   9.188   2.238  0.4864 -0.3469 -1.9169
  424SOL     OW11130   5.105   3.449   0.741 -0.4247 -0.1251  0.2963
  424SOL    HW111131   5.179   3.515   0.758 -0.7752  0.0708  1.0604
  424SOL    HW211132   5.107   3.378   0.812 -2.0850  0.8699  1.3510
  425SOL     OW11133   2.150   0.234   0.786 -0.2319 -0.1052  0.4438
  425SOL    HW111134   2.157   0.329   0.754 -0.7400  0.0570  0.8170
  425SOL    HW211135   2.202   0.175   0.724  0.8462  0.5333  0.7297
  426SOL     OW11136   2.083   8.838   0.975 -0.0790 -0.1833  0.2304
  426SOL    HW111137   2.053   8.907   1.041  1.1777  0.2330  0.3714
  426SOL    HW211138   2.144   8.773   1.019 -0.3174 -0.6991 -0.1928
  427SOL     OW11139   2.429   8.589   1.428 -0.2988  0.1096 -0.2830
  427SOL    HW111140   2.420   8.490   1.415  0.2217 -0.2584  2.0043
  427SOL    HW211141   2.507   8.622   1.375 -0.7526 -0.6111 -1.4280
  428SOL     OW11142   5.197   4.220   0.464 -0.0088 -0.7231  0.0941
  428SOL    HW111143   5.242   4.300   0.423 -1.3975 -0.0655 -0.1513
  428SOL    HW211144   5.117   4.249   0.515 -0.1636 -1.9042  0.5295
  429SOL     OW11145   4.755   3.693   1.047 -0.5668 -0.2376  0.6316
  429SOL    HW111146   4.808   3.609   1.034 -0.3270 -0.1244  0.8860
  429SOL    HW211147   4.691   3.680   1.123  1.2228  0.6646  2.3308
  430SOL     OW11148   4.019   2.134   0.218 -0.0970  0.0833 -0.0174
  430SOL    HW111149   3.998   2.231   0.207  0.9372  0.5448  1.8886
  430SOL    HW211150   3.934   2.082   0.223 -0.6954  1.1967  1.5108
  431SOL     OW11151   2.608   9.950   1.952 -0.7294 -0.1730 -0.1765
  431SOL    HW111152   2.567  10.024   1.898  0.4347  0.5849 -0.0286
  431SOL    HW211153   2.594   9.863   1.905 -1.6999  0.1871 -0.5809
  432SOL     OW11154   3.634   0.710   1.885  0.2047  0.0112 -0.2389
  432SOL    HW111155   3.570   0.762   1.829 -0.5061 -0.2395  0.3441
  432SOL    HW211156   3.686   0.647   1.827 -0.3518 -0.0693 -0.6511
  433SOL     OW11157   3.724   1.177   1.148 -0.1387  0.6610 -0.2148
  433SOL    HW111158   3.789   1.228   1.203 -0.2954  1.6558 -0.9353
  433SOL    HW211159   3.720   1.216   1.056 -0.6025 -0.3633 -0.6457
  434SOL     OW11160   4.069   3.472   1.655 -0.4421 -0.3021 -0.3871
  434SOL    HW111161   4.128   3.549   1.630  1.6275 -1.3760  1.0002
  434SOL    HW211162   4.031   3.487   1.746  0.4016 -1.1384  0.1179
  435SOL     OW11163   2.874   5.545   2.239 -0.2250  0.3915  0.1057
  435SOL    HW111164   2.956   5.577   2.286 -1.1544  2.7109  0.2226
  435SOL    HW211165   2.866   5.590   2.151 -0.7965 -0.6633 -0.3998
  436SOL     OW11166   4.064   9.121   0.972 -0.1282  0.1827 -0.3815
  436SOL    HW111167   4.049   9.217   0.946 -0.6746  0.4856  1.0141
  436SOL    HW211168   4.138   9.083   0.917  0.8453  1.7378 -0.1796
  437SOL     OW11169   3.962   9.561   0.559  0.1117 -0.5089  0.2875
  437SOL    HW111170   3.946   9.653   0.523 -0.1288  0.6203  3.1088
  437SOL    HW211171   3.980   9.498   0.484 -0.8062  1.6186 -1.7748
  438SOL     OW11172   1.860   2.250   0.856 -0.1013  0.3260  0.2180
  438SOL    HW111173   1.793   2.179   0.839 -0.0125  0.0126  1.1079
  438SOL    HW211174   1.860   2.273   0.954  0.1785  1.2322  0.0132
  439SOL     OW11175   2.480   2.440   0.501 -0.5113  0.4177  0.3775
  439SOL    HW111176   2.464   2.388   0.417  0.5546  0.3828  0.1919
  439SOL    HW211177   2.396   2.488   0.526 -1.0583 -0.1662 -0.2944
  440SOL     OW11178   3.380   4.800   0.590 -0.0321  0.1313 -0.7492
  440SOL    HW111179   3.469   4.831   0.557  0.8790 -3.8923 -2.4184
  440SOL    HW211180   3.310   4.867   0.566  1.8766  1.2301 -3.5291
  441SOL     OW11181   2.609   0.281   1.268  0.0029 -0.3874 -0.2383
  441SOL    HW111182   2.645   0.219   1.199  2.7326  0.9818 -0.0944
  441SOL    HW211183   2.510   0.268   1.276 -0.0151 -2.1054 -2.7986
  442SOL     OW11184   3.380   0.815   2.496  0.3430 -0.6160 -0.1091
  442SOL    HW111185   3.297   0.867   2.513 -0.5250 -2.3616  1.2173
  442SOL    HW211186   3.364   0.750   2.421  0.5306 -0.8664  0.0651
  443SOL     OW11187   3.433   9.444   2.631 -0.6664  0.2087  0.4801
  443SOL    HW111188   3.475   9.526   2.670 -0.9549  0.5434  0.0966
  443SOL    HW211189   3.417   9.459   2.533  1.4598 -1.1613 -0.1238
  444SOL     OW11190   3.488   1.511   2.485 -0.2414  0.0837  0.0942
  444SOL    HW111191   3.502   1.437   2.551 -1.4661  0.5870  0.9576
  444SOL    HW211192   3.446   1.475   2.402  0.0366 -0.3395  0.1381
  445SOL     OW11193   4.378   1.828   2.119 -0.0558 -0.7184 -0.2009
  445SOL    HW111194   4.302   1.772   2.086 -1.6721  1.3227 -0.0360
  445SOL    HW211195   4.356   1.865   2.210  2.2190 -2.1553  0.9887
  446SOL     OW11196   3.463   0.333   0.470 -0.2559  0.1541  0.6007
  446SOL    HW111197   3.550   0.285   0.482 -0.5945 -0.5892  0.0919
  446SOL    HW211198   3.450   0.354   0.373 -0.2749  0.9771  0.7743
  447SOL     OW11199   1.851   9.445   1.742  0.2778  0.1866 -0.3148
  447SOL    HW111200   1.943   9.479   1.759  0.8236  0.2225 -3.1070
  447SOL    HW211201   1.784   9.509   1.780  1.3675  0.7354  0.7111
  448SOL     OW11202   2.402   0.839   0.195  0.2894 -0.0167 -0.3141
  448SOL    HW111203   2.483   0.896   0.182  2.3922 -3.0319 -0.8749
  448SOL    HW211204   2.327   0.876   0.141  2.2738  0.8610 -2.5499
  449SOL     OW11205   4.325   3.303   0.736  0.0526  0.0628  0.6368
  449SOL    HW111206   4.351   3.216   0.779  1.2753 -0.7585 -1.6624
  449SOL    HW211207   4.407   3.349   0.701 -0.9191  0.5061 -1.1343
  450SOL     OW11208   4.126   4.672   0.782 -0.0132 -0.7138  0.5004
  450SOL    HW111209   4.159   4.605   0.716 -1.2987  0.3723 -1.3295
  450SOL    HW211210   4.202   4.727   0.815  0.4266 -0.1022 -1.4713
  451SOL     OW11211   2.824   9.770   1.800 -0.3010  0.3336 -0.6906
  451SOL    HW111212   2.863   9.698   1.858 -1.2064  1.3454  1.2231
  451SOL    HW211213   2.750   9.731   1.744 -0.0272 -0.4567 -0.5066
  452SOL     OW11214   3.410   4.224   1.453  0.0537  0.5296  0.6214
  452SOL    HW111215   3.373   4.315   1.473  1.2838  1.2023 -0.1174
  452SOL    HW211216   3.494   4.233   1.401 -0.5695 -1.0737 -0.7174
  453SOL     OW11217   3.616   3.205   2.123  0.2778 -0.3571  0.1270
  453SOL    HW111218   3.516   3.208   2.126  0.3172  0.1221  0.8522
  453SOL    HW211219   3.649   3.274   2.058  0.0865 -1.3763 -1.0758
  454SOL     OW11220   3.557   1.924   1.719 -0.3404  0.2609 -0.3838
  454SOL    HW111221   3.494   1.892   1.789 -1.4065  0.7920 -1.0836
  454SOL    HW211222   3.543   2.022   1.704 -0.8837 -0.0600 -2.0999
  455SOL     OW11223   4.267   4.928   0.661 -0.4154 -0.5775 -0.1595
  455SOL    HW111224   4.293   4.891   0.750  1.4217  0.6672 -0.1578
  455SOL    HW211225   4.227   5.019   0.672  0.2909 -0.2045 -0.6450
  456SOL     OW11226   4.612   2.932   2.182 -0.6200  0.0824 -0.3446
  456SOL    HW111227   4.605   2.887   2.271 -0.9689  0.6329 -0.0923
  456SOL    HW211228   4.528   2.918   2.131 -0.8823  0.7701 -0.1092
  457SOL     OW11229   3.697   1.235   0.886  0.3036 -0.0250  0.3638
  457SOL    HW111230   3.681   1.148   0.841  0.9141  1.1944 -2.3031
  457SOL    HW211231   3.782   1.276   0.851  0.2857  1.4093  1.9234
  458SOL     OW11232   2.250   8.704   2.677 -0.3729  0.1256 -0.2701
  458SOL    HW111233   2.248   8.641   2.755 -0.3591  0.0027 -0.3675
  458SOL    HW211234   2.159   8.707   2.635 -0.2286 -0.2785 -0.6181
  459SOL     OW11235   2.202   3.901   1.501 -0.5038 -0.2817  0.5960
  459SOL    HW111236   2.185   3.918   1.404 -0.7330  0.9311  0.8404
  459SOL    HW211237   2.200   3.988   1.551  3.1058 -0.4331  1.1554
  460SOL     OW11238   3.967   0.529   0.953 -0.1532 -0.1097  0.1016
  460SOL    HW111239   4.004   0.502   0.864  0.7857  1.0494  0.1318
  460SOL    HW211240   3.867   0.522   0.951 -0.2878  1.9374 -1.7350
  461SOL     OW11241   3.120   2.025   0.881  0.1180 -0.4542 -0.3501
  461SOL    HW111242   3.211   2.016   0.839 -0.1688  0.5989 -1.2262
  461SOL    HW211243   3.051   1.994   0.816 -0.1959 -0.6845  0.0918
  462SOL     OW11244   4.239   2.836   1.133 -0.0504  0.4708  0.0980
  462SOL    HW111245   4.257   2.906   1.203 -0.1397  1.0234 -0.4286
  462SOL    HW211246   4.171   2.871   1.068 -1.5523 -0.8331  0.9328
  463SOL     OW11247   2.745   8.952   0.652 -0.3720  0.1137 -0.1970
  463SOL    HW111248   2.770   8.868   0.603  1.1695 -1.2818  2.8595
  463SOL    HW211249   2.650   8.945   0.683  0.2299 -1.2305  1.4112
  464SOL     OW11250   2.511   4.252   0.915  0.4582 -0.1006  0.6791
  464SOL    HW111251   2.577   4.305   0.862  0.3801 -0.9839 -0.3268
  464SOL    HW211252   2.438   4.312   0.946  1.0313  0.6243  0.6347
  465SOL     OW11253   4.265   1.994   0.236 -0.1467 -0.3626  0.1500
  465SOL    HW111254   4.176   2.038   0.249  0.5877  0.8145  1.3590
  465SOL    HW211255   4.261   1.933   0.157 -1.6754  0.6081 -0.5483
  466SOL     OW11256   2.198   6.900   0.579  0.0778 -0.1063  0.8022
  466SOL    HW111257   2.121   6.961   0.601  1.0983  1.1889  0.8114
  466SOL    HW211258   2.173   6.806   0.602 -1.4914  0.3105  0.8563
  467SOL     OW11259   3.590   8.406   1.549 -0.2357 -0.5828 -0.1798
  467SOL    HW111260   3.524   8.451   1.489 -1.1377 -0.1938  1.0924
  467SOL    HW211261   3.632   8.329   1.501 -1.1729 -0.4737 -1.1878
  468SOL     OW11262   3.216   2.700   0.820  0.7032  0.2152  0.5649
  468SOL    HW111263   3.281   2.675   0.748 -1.2222  0.9119 -1.4652
  468SOL    HW211264   3.129   2.654   0.804  0.3039  0.1984  2.6029
  469SOL     OW11265   2.251   8.214   1.582 -0.6022 -0.2553  0.7963
  469SOL    HW111266   2.280   8.263   1.664  0.1197 -1.0848  1.0358
  469SOL    HW211267   2.166   8.165   1.600  0.2814 -1.5733  1.4804
  470SOL     OW11268   4.373   3.522   2.473  0.0763  0.5087 -0.4153
  470SOL    HW111269   4.471   3.508   2.492 -0.1783 -0.3389  0.3082
  470SOL    HW211270   4.322   3.440   2.500 -0.6004  0.1621 -2.6388
  471SOL     OW11271   2.250   6.861   0.020  0.5165 -0.3911  0.5589
  471SOL    HW111272   2.213   6.771  -0.002  2.3889 -0.6608 -1.6979
  471SOL    HW211273   2.296   6.859   0.108 -0.5101 -1.3147  1.0780
  472SOL     OW11274   3.527   3.507   2.489 -0.2363  0.4482  0.7330
  472SOL    HW111275   3.486   3.570   2.423 -1.4876  1.6890  2.6578
  472SOL    HW211276   3.627   3.512   2.481 -0.3310 -1.0426 -2.5243
  473SOL     OW11277   2.698   1.332   0.379  0.6255  0.0483 -0.1557
  473SOL    HW111278   2.746   1.340   0.292  1.4790  1.3181  0.4119
  473SOL    HW211279   2.671   1.423   0.410 -1.6712 -0.5899 -0.1813
  474SOL     OW11280   1.631   1.320   0.123  0.1750 -0.3744 -0.5779
  474SOL    HW111281   1.532   1.320   0.136  0.0885  0.7590 -1.1472
  474SOL    HW211282   1.662   1.230   0.093 -0.8551 -0.3624 -1.6674
  475SOL     OW11283   3.442   8.202   1.701  0.3017 -0.4195 -0.2001
  475SOL    HW111284   3.439   8.297   1.669  0.7430 -0.7799 -1.3498
  475SOL    HW211285   3.500   8.148   1.640 -2.5812 -2.1584 -1.5704
  476SOL     OW11286   3.437   3.012   2.552  0.2564  0.3204 -0.2494
  476SOL    HW111287   3.481   3.033   2.464  2.9087  0.8944  1.1448
  476SOL    HW211288   3.371   3.084   2.574  0.0676  0.5307 -1.4488
  477SOL     OW11289   2.710   1.919   0.656 -0.0586  0.0860  0.3771
  477SOL    HW111290   2.628   1.864   0.638 -0.4781  0.1980  1.8726
  477SOL    HW211291   2.705   2.005   0.605  0.7962 -1.3940 -2.3269
  478SOL     OW11292   3.119   1.925   1.840 -0.4455 -0.7005 -0.5111
  478SOL    HW111293   3.193   1.953   1.901 -1.5279  3.3357 -0.9268
  478SOL    HW211294   3.037   1.907   1.895  0.1510 -2.8747 -0.2806
  479SOL     OW11295   3.159   2.083   0.498 -0.7292 -0.2782 -0.3939
  479SOL    HW111296   3.099   2.026   0.553 -0.8114  0.6227  0.4683
  479SOL    HW211297   3.109   2.116   0.418 -1.1303 -0.2032 -0.1128
  480SOL     OW11298   2.300   7.532   1.934  0.3849  0.2326  0.4263
  480SOL    HW111299   2.316   7.450   1.990  2.7890 -0.5635 -1.3360
  480SOL    HW211300   2.337   7.612   1.980  0.4404 -0.0882  0.9377
  481SOL     OW11301   3.815   1.595   1.908 -0.1529 -0.2255 -0.3315
  481SOL    HW111302   3.840   1.498   1.915 -0.0786 -0.3367 -1.8003
  481SOL    HW211303   3.741   1.605   1.841 -0.6743  0.6553  0.3648
  482SOL     OW11304   2.479   3.237   1.285  0.1478 -0.3580 -0.2927
  482SOL    HW111305   2.473   3.247   1.384 -0.1970 -1.3169 -0.2093
  482SOL    HW211306   2.466   3.141   1.261  1.4881 -0.3311 -1.1753
  483SOL     OW11307   3.926   3.189   1.994  0.1786  0.4403  0.3533
  483SOL    HW111308   3.876   3.104   1.975 -2.3101  1.9468  0.0017
  483SOL    HW211309   4.014   3.187   1.947  0.9002 -2.6586  1.7066
  484SOL     OW11310   2.497   1.586   0.017  0.2976  0.8336  0.1187
  484SOL    HW111311   2.507   1.595  -0.082 -0.7311 -0.2838 -0.0966
  484SOL    HW211312   2.516   1.491   0.044  1.6906  1.3798  1.1391
  485SOL     OW11313   3.080   3.764   2.234  0.6188  0.1013 -0.5724
  485SOL    HW111314   3.146   3.717   2.293 -1.2631 -2.3772 -0.3387
  485SOL    HW211315   3.128   3.829   2.176  3.2913 -1.6307 -0.4086
  486SOL     OW11316   2.100   9.064   1.828  0.0399  0.5192 -0.2591
  486SOL    HW111317   2.046   9.033   1.907 -0.1156  1.2394 -0.0794
  486SOL    HW211318   2.171   8.997   1.809  1.6307  1.4910  2.0055
  487SOL     OW11319   3.163   3.632   0.911  0.2584  0.4395  0.1994
  487SOL    HW111320   3.141   3.640   1.008  0.3766  0.7900  0.1951
  487SOL    HW211321   3.100   3.688   0.857  0.8098  1.0093  0.1466
  488SOL     OW11322   3.155   9.153   2.070 -0.1705 -0.5495  0.1005
  488SOL    HW111323   3.191   9.070   2.026  1.2149  0.5182 -0.8228
  488SOL    HW211324   3.216   9.181   2.144 -0.7771 -0.4896  0.5826
  489SOL     OW11325   3.123   2.470   0.179  0.6480 -0.0381 -0.0006
  489SOL    HW111326   3.179   2.550   0.202  0.1755  0.0658  0.7839
  489SOL    HW211327   3.181   2.389   0.176  0.5947 -0.1896  2.3565
  490SOL     OW11328   2.976   9.264   1.535 -0.3455 -0.1979 -0.5121
  490SOL    HW111329   2.927   9.180   1.554  1.5252 -1.1315  0.3238
  490SOL    HW211330   2.933   9.312   1.458 -2.1063 -1.3206 -0.2380
  491SOL     OW11331   4.062   4.200   1.774  0.4023  0.1281  0.1216
  491SOL    HW111332   4.117   4.279   1.750  1.1003 -0.3468  0.1587
  491SOL    HW211333   4.098   4.118   1.729 -0.0937 -0.2353  0.3692
  492SOL     OW11334   4.044   1.130   1.163  0.1880 -0.1285  0.1162
  492SOL    HW111335   3.983   1.196   1.207  3.1774  2.7325  0.0821
  492SOL    HW211336   4.063   1.055   1.227 -2.0317 -0.2579  0.6852
  493SOL     OW11337   2.505   1.874   2.479 -0.0178  0.0551  0.5338
  493SOL    HW111338   2.502   1.802   2.409 -2.2035 -1.7882  2.4553
  493SOL    HW211339   2.421   1.927   2.475 -0.8159 -1.0103  2.7106
  494SOL     OW11340   2.354   2.237   1.983  0.3960 -0.8540  0.5074
  494SOL    HW111341   2.366   2.162   1.917 -1.1527 -0.1619 -0.5966
  494SOL    HW211342   2.266   2.227   2.028 -0.5871  1.2592 -0.9107
  495SOL     OW11343   3.719   2.350   1.487 -0.4828  0.9519  0.1794
  495SOL    HW111344   3.743   2.366   1.583 -1.3973 -0.5241  0.6697
  495SOL    HW211345   3.792   2.298   1.443 -1.3369 -0.8108  0.8312
  496SOL     OW11346   2.825   9.712   1.065 -0.3597  0.3682 -0.3998
  496SOL    HW111347   2.758   9.638   1.056  0.3458 -0.2890 -0.2334
  496SOL    HW211348   2.812   9.757   1.154 -0.1524 -0.1795 -0.0930
  497SOL     OW11349   4.241   3.477   0.910 -0.0416 -0.8716  0.3926
  497SOL    HW111350   4.275   3.441   0.997  0.4277  0.2369  0.6773
  497SOL    HW211351   4.269   3.417   0.835  0.6981 -1.1082  0.8615
  498SOL     OW11352   3.638   5.340   0.643  0.2416  0.4679 -0.1943
  498SOL    HW111353   3.594   5.313   0.556  0.3256 -0.9438  0.1793
  498SOL    HW211354   3.637   5.261   0.705 -0.8042  1.7874  1.4912
  499SOL     OW11355   1.740   9.884   0.368 -0.0470 -0.0205  0.3393
  499SOL    HW111356   1.726   9.941   0.450  0.6579  2.0449 -0.9290
  499SOL    HW211357   1.802   9.931   0.306 -1.4285 -1.0563 -1.8744
  500SOL     OW11358   2.372   7.269   1.980  0.7253 -0.1137 -0.1172
  500SOL    HW111359   2.426   7.197   2.024  1.5505 -0.5163 -1.7506
  500SOL    HW211360   2.275   7.247   1.987  0.8762 -0.4537  0.9984
  501SOL     OW11361   2.372   2.402   2.570  0.2996  0.2624 -0.1420
  501SOL    HW111362   2.439   2.379   2.500 -0.4567  1.2123 -1.1938
  501SOL    HW211363   2.417   2.454   2.643  0.9915 -0.3393 -0.1322
  502SOL     OW11364   3.395   4.912   1.085  0.6947  0.2422 -0.5515
  502SOL    HW111365   3.310   4.881   1.042  0.3897 -0.2903  0.4209
  502SOL    HW211366   3.473   4.882   1.030  0.3298 -0.8912 -0.4608
  503SOL     OW11367   3.176   1.895   2.404 -0.5905  0.3831 -0.0620
  503SOL    HW111368   3.115   1.960   2.449 -0.2173 -0.2493  1.3715
  503SOL    HW211369   3.258   1.882   2.459 -0.8886 -1.7095 -0.0746
  504SOL     OW11370   3.554   2.239   1.188 -0.4007 -0.3429 -0.1320
  504SOL    HW111371   3.534   2.152   1.142 -0.0590 -0.1087 -0.7343
  504SOL    HW211372   3.561   2.224   1.286  2.7109 -1.5617 -0.5005
  505SOL     OW11373   2.771   0.411   2.041  0.0074 -0.3059 -0.4639
  505SOL    HW111374   2.828   0.329   2.053  1.2293  0.4945 -0.6928
  505SOL    HW211375   2.796   0.479   2.110  0.5280  0.7040 -1.6321
  506SOL     OW11376   1.801   6.705   1.295  0.5375  0.0039  0.3734
  506SOL    HW111377   1.837   6.670   1.382  0.8755 -2.3681 -0.6719
  506SOL    HW211378   1.828   6.800   1.283  1.1355  0.1231  2.5027
  507SOL     OW11379   4.628   3.457   1.130 -0.5762 -0.1866 -0.1349
  507SOL    HW111380   4.538   3.414   1.121 -0.2224 -1.2097  1.1054
  507SOL    HW211381   4.655   3.458   1.226  0.6217  0.3559 -0.4735
  508SOL     OW11382   2.864   8.341   2.638  0.5244  0.0038  0.5153
  508SOL    HW111383   2.827   8.416   2.694  0.8901 -0.4410  1.3678
  508SOL    HW211384   2.956   8.365   2.607  0.7423 -0.1987  1.0023
  509SOL     OW11385   2.475   7.485   0.921  0.2839 -0.1172 -0.0543
  509SOL    HW111386   2.520   7.567   0.887 -0.2977  0.4824  0.6058
  509SOL    HW211387   2.418   7.508   1.001 -1.0291 -0.8859 -0.7441
  510SOL     OW11388   2.785   1.184   0.593 -0.3237 -0.3172  0.4264
  510SOL    HW111389   2.747   1.238   0.669  0.8821  1.1750 -0.0153
  510SOL    HW211390   2.772   1.233   0.507 -1.2391 -1.7802 -0.2864
  511SOL     OW11391   2.542   8.238   0.772 -0.6312  0.1828 -0.0531
  511SOL    HW111392   2.531   8.329   0.813  2.0121 -0.7346  2.9325
  511SOL    HW211393   2.631   8.233   0.726 -0.1678 -1.3254  0.9880
  512SOL     OW11394   4.002   8.434   0.533 -0.3180  0.7220 -0.1108
  512SOL    HW111395   4.098   8.407   0.532 -0.0597  1.5371  1.1476
  512SOL    HW211396   3.995   8.534   0.527 -1.1672  0.5632 -2.2535
  513SOL     OW11397   5.092   2.517   0.844  0.3773  0.0094  0.2150
  513SOL    HW111398   5.181   2.551   0.876  1.0037 -1.7896  0.4499
  513SOL    HW211399   5.106   2.450   0.772 -0.9367  1.9364 -1.9111
  514SOL     OW11400   2.395   0.635   1.393  0.3470 -0.0012 -0.0831
  514SOL    HW111401   2.381   0.548   1.440  2.7267 -0.2095  0.3143
  514SOL    HW211402   2.323   0.699   1.419 -0.9509 -1.5745  0.2718
  515SOL     OW11403   4.758   2.383   0.247 -0.0473 -0.3539  0.0649
  515SOL    HW111404   4.779   2.370   0.151  0.8686 -1.7530  0.4368
  515SOL    HW211405   4.822   2.331   0.303  0.6357  1.9490  1.5046
  516SOL     OW11406   3.342   1.329   1.669  0.0277  0.1656 -0.1874
  516SOL    HW111407   3.334   1.429   1.665 -1.3585  0.0663 -0.2786
  516SOL    HW211408   3.385   1.295   1.586 -2.4457  0.4470 -1.6426
  517SOL     OW11409   2.243   7.176   1.579 -0.1405  0.3948 -0.7511
  517SOL    HW111410   2.150   7.208   1.598  0.9882  3.0585  0.4078
  517SOL    HW211411   2.267   7.105   1.645 -1.7529 -1.1838 -1.8005
  518SOL     OW11412   4.019   0.451   0.693 -0.3196  0.1920  0.0957
  518SOL    HW111413   3.964   0.510   0.634 -3.7870 -1.4406  1.5214
  518SOL    HW211414   4.000   0.355   0.672  1.9656 -0.4346  0.6940
  519SOL     OW11415   2.208   2.310   1.601 -0.5724  0.3716 -0.3412
  519SOL    HW111416   2.139   2.355   1.657  0.6073 -0.3646  1.7682
  519SOL    HW211417   2.167   2.281   1.514 -2.3122  1.9567 -0.0873
  520SOL     OW11418   2.407   1.754   1.611 -0.1243  0.1688  0.0290
  520SOL    HW111419   2.340   1.697   1.659 -1.7725  0.5261 -1.7923
  520SOL    HW211420   2.442   1.824   1.673  0.1351 -1.3106  1.5993
  521SOL     OW11421   2.729   8.722   1.585 -0.0413  0.0935  0.5940
  521SOL    HW111422   2.792   8.785   1.539 -0.6181  0.7142  0.6414
  521SOL    HW211423   2.687   8.661   1.518  1.3738 -1.0095  0.6905
  522SOL     OW11424   3.209   4.034   1.491  0.0175  0.2142 -0.4596
  522SOL    HW111425   3.294   4.088   1.488  1.4070 -1.9577 -1.4711
  522SOL    HW211426   3.203   3.977   1.409 -1.4283 -1.1617  0.5695
  523SOL     OW11427   2.267   6.605   1.967  0.1683 -0.6350 -0.7371
  523SOL    HW111428   2.329   6.677   1.935 -0.9828  0.1356 -1.2528
  523SOL    HW211429   2.244   6.622   2.063  0.7655 -0.9464 -0.5300
  524SOL     OW11430   4.363   4.045   0.738  0.9519  0.1703 -0.3519
  524SOL    HW111431   4.407   4.047   0.828  0.3005  0.8584 -0.0433
  524SOL    HW211432   4.323   3.955   0.723  2.2180 -0.3717 -0.5184
  525SOL     OW11433   1.531   2.442   2.597  0.2767 -0.2999 -0.1492
  525SOL    HW111434   1.602   2.371   2.604  1.0714  0.6384  1.8425
  525SOL    HW211435   1.474   2.440   2.679 -0.2259  0.7952 -0.4628
  526SOL     OW11436   1.916   6.412   0.603  0.7915 -0.8787  0.2293
  526SOL    HW111437   1.921   6.475   0.527  0.8053 -0.7184  0.3626
  526SOL    HW211438   1.913   6.463   0.689  0.7130 -1.0556  0.3322
  527SOL     OW11439   1.959   2.687   0.732 -0.1549 -0.1059  0.3999
  527SOL    HW111440   1.958   2.613   0.665  0.0408 -0.2929  0.6032
  527SOL    HW211441   2.006   2.767   0.693 -2.3598  0.7138 -0.6616
  528SOL     OW11442   2.298   2.087   1.748 -0.0280  0.4724  0.5258
  528SOL    HW111443   2.274   2.179   1.716  1.9996  1.4488  1.7025
  528SOL    HW211444   2.219   2.045   1.793 -0.7155  2.0050  0.7622
  529SOL     OW11445   2.248   9.327   1.492 -0.3708 -0.3438  0.0953
  529SOL    HW111446   2.162   9.364   1.528 -0.2283  0.7282 -0.6486
  529SOL    HW211447   2.242   9.227   1.490 -1.6935 -0.2785 -0.1413
  530SOL     OW11448   2.652   0.612   0.779 -0.4130  0.5206  0.0602
  530SOL    HW111449   2.696   0.558   0.850  0.7508  0.0788 -0.9743
  530SOL    HW211450   2.571   0.656   0.816 -1.8739 -2.5804  0.7305
  531SOL     OW11451   2.619   2.778   0.271 -0.3727  0.0466 -0.1452
  531SOL    HW111452   2.714   2.773   0.239 -0.3119 -2.2423  0.3192
  531SOL    HW211453   2.562   2.717   0.215 -1.0369 -0.7426  1.3727
  532SOL     OW11454   3.930   2.570   1.169 -0.3484  0.6163 -0.3766
  532SOL    HW111455   3.863   2.632   1.210  0.0291 -0.4248  1.8562
  532SOL    HW211456   3.891   2.479   1.160  1.2628 -0.3991  2.4421
  533SOL     OW11457   2.405   2.028   0.221  0.0133 -0.5558 -0.4840
  533SOL    HW111458   2.456   1.942   0.210  0.9289 -0.1287  0.3696
  533SOL    HW211459   2.430   2.091   0.147 -0.4696 -0.9241 -0.9663
  534SOL     OW11460   4.151   3.812   0.957 -0.0836  0.1986  0.0443
  534SOL    HW111461   4.095   3.742   1.001  0.3252  0.4585  0.9898
  534SOL    HW211462   4.231   3.768   0.914  0.4139  0.1251  1.0283
  535SOL     OW11463   2.108   4.536   1.537 -0.0984  0.4183  0.4662
  535SOL    HW111464   2.197   4.492   1.531 -0.1199  0.3722  0.4872
  535SOL    HW211465   2.038   4.468   1.560 -0.2566  0.3235 -0.2735
  536SOL     OW11466   3.446   4.000   1.782  0.5586 -0.0829 -0.4479
  536SOL    HW111467   3.465   3.902   1.779 -1.8059 -0.6369  1.5403
  536SOL    HW211468   3.358   4.019   1.738  1.1426  1.1892 -1.0931
  537SOL     OW11469   5.049   2.146   2.590  0.4539  0.1956 -0.4048
  537SOL    HW111470   5.061   2.050   2.617 -2.3544 -0.0206  0.2114
  537SOL    HW211471   5.057   2.205   2.671  3.5115  0.6722 -0.9757
  538SOL     OW11472   4.259   4.501   2.614  0.4587 -0.2523  0.2098
  538SOL    HW111473   4.290   4.583   2.663  0.8906 -0.2353 -0.0917
  538SOL    HW211474   4.179   4.463   2.661  0.6811 -0.0611  0.7489
  539SOL     OW11475   3.800   5.400   1.309  0.5338  0.2726 -0.2189
  539SOL    HW111476   3.884   5.449   1.283  1.2186 -0.6349  0.2776
  539SOL    HW211477   3.818   5.302   1.311 -0.3967  0.1121  0.4342
  540SOL     OW11478   3.499   2.540   1.869 -0.5160  0.6954 -0.1470
  540SOL    HW111479   3.514   2.584   1.780 -0.4129 -0.3156 -0.6396
  540SOL    HW211480   3.546   2.452   1.870 -2.7154 -0.4939 -0.0650
  541SOL     OW11481   3.043   1.092   0.016  0.1112  0.5306  0.6402
  541SOL    HW111482   3.005   1.130  -0.068  0.1558 -0.9944 -0.0776
  541SOL    HW211483   2.969   1.066   0.078  0.0099 -0.7906 -0.0249
  542SOL     OW11484   3.463   9.022   0.816 -0.1082  0.0139  0.0297
  542SOL    HW111485   3.538   9.012   0.752 -0.8692 -0.0841 -0.8604
  542SOL    HW211486   3.421   9.112   0.805  0.2513  0.3056  0.9409
  543SOL     OW11487   3.344   7.754   1.099  0.1003 -0.2558 -0.5282
  543SOL    HW111488   3.315   7.775   1.006  1.4058 -0.4340 -0.9963
  543SOL    HW211489   3.439   7.721   1.097 -0.1374 -1.0562  0.7720
  544SOL     OW11490   4.344   0.929   0.553  0.0672  0.7192 -0.3718
  544SOL    HW111491   4.303   1.019   0.571  0.1902  0.7424 -0.2093
  544SOL    HW211492   4.443   0.934   0.566  0.1842  0.7913 -1.2770
  545SOL     OW11493   3.096   2.639   2.164 -0.4758  0.3597 -1.0975
  545SOL    HW111494   3.181   2.592   2.137 -0.5746 -0.1631 -0.5136
  545SOL    HW211495   3.115   2.703   2.238 -1.2858 -2.8018  1.9863
  546SOL     OW11496   4.921   4.384   0.474  0.4183 -0.2222 -0.1825
  546SOL    HW111497   4.919   4.422   0.382  0.9523  0.6734  0.1595
  546SOL    HW211498   4.861   4.438   0.533  0.6762 -0.3107  0.1628
  547SOL     OW11499   3.372   0.884   0.746  0.9538  0.5574  0.4160
  547SOL    HW111500   3.310   0.880   0.667  1.7573  0.3020 -0.2128
  547SOL    HW211501   3.321   0.908   0.828  0.3360  2.1399 -0.4219
  548SOL     OW11502   1.818   7.833   0.782  0.1706  1.1053 -0.2453
  548SOL    HW111503   1.877   7.752   0.784 -1.1690  0.1385  1.4089
  548SOL    HW211504   1.779   7.844   0.691 -0.2141 -0.5528 -0.2898
  549SOL     OW11505   2.302   1.580   1.384 -0.0047  0.0250  0.5712
  549SOL    HW111506   2.394   1.577   1.345 -0.4239 -0.5776 -0.3948
  549SOL    HW211507   2.271   1.675   1.388 -0.5959 -0.0059 -2.1269
  550SOL     OW11508   1.602   0.921   0.221  0.1488 -0.1160 -0.3763
  550SOL    HW111509   1.612   0.972   0.135 -0.0737  0.5725  0.0046
  550SOL    HW211510   1.567   0.829   0.201 -1.6514  0.6523 -0.8688
  551SOL     OW11511   2.152   8.131   1.187  0.1221  0.1331 -0.5191
  551SOL    HW111512   2.220   8.074   1.233  1.2644 -0.0153 -2.3290
  551SOL    HW211513   2.062   8.088   1.193  0.8658 -1.5550 -1.3677
  552SOL     OW11514   2.523   7.875   2.341  0.0234  0.0253 -0.2912
  552SOL    HW111515   2.435   7.853   2.298 -0.4817 -1.4182  1.3707
  552SOL    HW211516   2.592   7.891   2.271 -1.3722  0.3407 -1.6221
  553SOL     OW11517   3.644   2.189   0.727 -0.1096 -0.4138 -0.5896
  553SOL    HW111518   3.696   2.215   0.808 -1.4324 -0.0827  0.1848
  553SOL    HW211519   3.683   2.107   0.686  0.0100 -1.1476  0.9590
  554SOL     OW11520   3.630   4.949   0.605 -0.6220 -0.4063  0.2907
  554SOL    HW111521   3.600   5.010   0.679  0.5579  0.6659 -0.0897
  554SOL    HW211522   3.724   4.920   0.623 -0.4121 -0.3151 -0.6695
  555SOL     OW11523   1.869   3.545   2.137 -0.1109 -0.0044  0.7132
  555SOL    HW111524   1.907   3.638   2.137  0.1199 -0.0919  1.4826
  555SOL    HW211525   1.921   3.487   2.074 -0.2592  0.3875  0.2264
  556SOL     OW11526   1.803   6.929   0.905 -0.2440  0.3147 -0.3031
  556SOL    HW111527   1.715   6.889   0.931 -1.3821  1.7369 -1.8528
  556SOL    HW211528   1.812   7.019   0.946  0.5196  0.1633 -0.1313
  557SOL     OW11529   1.947   9.216   1.341  0.3600  0.1564 -0.5370
  557SOL    HW111530   1.855   9.256   1.343  0.2275 -0.1917  0.5774
  557SOL    HW211531   1.988   9.221   1.432  2.0308  1.6483 -1.3321
  558SOL     OW11532   4.944   3.093   2.351  0.5154  0.5835 -0.3442
  558SOL    HW111533   4.923   2.999   2.324 -2.1715  0.9840  0.1291
  558SOL    HW211534   4.914   3.156   2.278  0.2049  1.1849  0.2930
  559SOL     OW11535   2.667   6.771   1.454 -0.3406  0.3016 -0.2719
  559SOL    HW111536   2.734   6.845   1.463 -0.3144  0.1957  0.4404
  559SOL    HW211537   2.575   6.810   1.441 -0.1113  0.4438 -1.4721
  560SOL     OW11538   3.652   4.529   1.262  0.0079  0.5783  0.1898
  560SOL    HW111539   3.741   4.552   1.223 -0.5239 -1.1293 -2.1179
  560SOL    HW211540   3.653   4.435   1.294 -1.0076  0.5155  0.0490
  561SOL     OW11541   4.003   2.920   0.974  0.1507  0.4054 -0.2814
  561SOL    HW111542   3.945   2.948   1.051 -0.0508 -0.4743 -0.1105
  561SOL    HW211543   3.988   2.824   0.954 -1.8631  1.2643 -3.2325
  562SOL     OW11544   4.417   1.495   2.628  0.1278 -0.3379 -0.4374
  562SOL    HW111545   4.334   1.477   2.575  0.0273 -1.6851  0.1723
  562SOL    HW211546   4.439   1.592   2.622 -2.1408  0.2485  0.3663
  563SOL     OW11547   2.757   6.379   1.577 -0.0036 -0.6138 -0.1136
  563SOL    HW111548   2.779   6.349   1.670  0.8406  0.2660 -0.0231
  563SOL    HW211549   2.838   6.368   1.519 -0.5178 -1.1318 -0.7429
  564SOL     OW11550   2.562   5.758   2.423  0.4822 -0.1611  0.3597
  564SOL    HW111551   2.616   5.839   2.399  0.3109 -0.0650  0.2893
  564SOL    HW211552   2.582   5.684   2.359 -0.6236  0.3775 -0.6342
  565SOL     OW11553   3.866   2.306   1.718 -0.0841 -0.4822 -0.0002
  565SOL    HW111554   3.889   2.213   1.747  0.0184 -1.1916 -2.2789
  565SOL    HW211555   3.948   2.353   1.685  0.0700  0.8187  2.1107
  566SOL     OW11556   1.980   1.956   2.421  0.5539  0.2822 -0.2752
  566SOL    HW111557   1.952   2.051   2.431  1.0969  0.3642  0.5479
  566SOL    HW211558   1.914   1.896   2.466  0.7288  0.3400  0.0568
  567SOL     OW11559   4.108   3.230   1.048 -0.0715 -0.5103 -0.6016
  567SOL    HW111560   4.053   3.202   0.968 -2.7418 -1.1533  1.3820
  567SOL    HW211561   4.049   3.276   1.114  2.7626  3.0020 -0.3725
  568SOL     OW11562   2.811   9.811   0.232 -0.4693 -0.6843 -0.2865
  568SOL    HW111563   2.750   9.733   0.214 -0.8047 -0.1945 -1.3161
  568SOL    HW211564   2.887   9.781   0.289 -0.4813 -1.8235 -0.8499
  569SOL     OW11565   2.774   9.779   1.331  0.4608 -0.0613 -0.4131
  569SOL    HW111566   2.822   9.862   1.357  0.2753 -0.0189 -0.2118
  569SOL    HW211567   2.687   9.773   1.380 -0.3456  0.5137 -1.7490
  570SOL     OW11568   3.903   5.033   1.880  0.2061 -0.3212  0.0728
  570SOL    HW111569   3.839   5.012   1.806  0.4267  0.3666 -0.3135
  570SOL    HW211570   3.995   5.002   1.854  0.5064  0.9628 -0.4393
  571SOL     OW11571   3.056   0.854   0.887  0.0653 -0.7829  0.4897
  571SOL    HW111572   3.053   0.759   0.854  1.7971 -0.9005  0.6307
  571SOL    HW211573   2.972   0.901   0.860 -0.6212 -2.2311  0.0390
  572SOL     OW11574   4.937   3.361   0.220  0.8516  0.6168 -0.0461
  572SOL    HW111575   4.918   3.393   0.313  1.6579 -0.0258  0.3418
  572SOL    HW211576   5.034   3.338   0.211  0.5929 -0.2429 -0.7667
  573SOL     OW11577   4.235   4.470   0.591  0.2031 -0.0561  0.3624
  573SOL    HW111578   4.177   4.413   0.648 -0.2916  1.1268  1.0512
  573SOL    HW211579   4.217   4.450   0.494 -2.1986  1.1117  0.5361
  574SOL     OW11580   2.765   2.280   1.589  0.4842 -0.0355  0.2298
  574SOL    HW111581   2.702   2.214   1.551  1.6646 -0.7849 -0.4651
  574SOL    HW211582   2.859   2.258   1.561  0.9921  1.4333  0.6745
  575SOL     OW11583   3.990   9.347   0.834 -0.3058  0.3458 -0.0042
  575SOL    HW111584   3.983   9.436   0.788  1.1265  0.1286 -0.6735
  575SOL    HW211585   3.904   9.327   0.881 -1.6989  0.7377 -2.2978
  576SOL     OW11586   4.177   1.789   0.700 -0.8971  0.3852  0.1712
  576SOL    HW111587   4.098   1.841   0.730 -0.1587  0.2635  2.3725
  576SOL    HW211588   4.257   1.816   0.753  0.1543 -0.8276 -0.7620
  577SOL     OW11589   2.141   7.541   2.500  0.0784 -0.7229 -0.6045
  577SOL    HW111590   2.121   7.557   2.597  3.1968 -0.6682  0.0848
  577SOL    HW211591   2.168   7.627   2.457  1.0251 -1.1488 -0.8948
  578SOL     OW11592   4.503   1.642   0.560 -0.4512  0.1232 -0.0439
  578SOL    HW111593   4.454   1.716   0.513  1.9123  1.8109  0.0379
  578SOL    HW211594   4.482   1.644   0.657  0.5641  1.4947  0.1541
  579SOL     OW11595   2.113   6.653   0.655 -0.6742  0.2535  0.3283
  579SOL    HW111596   2.048   6.661   0.731 -0.4699 -3.1585  0.9100
  579SOL    HW211597   2.194   6.602   0.685  0.7611  1.4533 -1.3854
  580SOL     OW11598   1.893   2.248   1.923  0.4710  0.0177  0.2440
  580SOL    HW111599   1.886   2.312   2.000  0.4946 -1.6800  1.6951
  580SOL    HW211600   1.943   2.166   1.952  0.1680 -0.8052 -1.4795
  581SOL     OW11601   3.027   6.238   1.697  0.0050 -0.7408 -0.1503
  581SOL    HW111602   3.026   6.273   1.603  1.2253  1.2485  0.5458
  581SOL    HW211603   2.946   6.270   1.746  1.3675  1.6082  0.6326
  582SOL     OW11604   2.188   1.427   0.228  0.2038 -0.1215  0.0089
  582SOL    HW111605   2.126   1.490   0.275 -0.3910 -1.4717  1.0751
  582SOL    HW211606   2.146   1.397   0.142 -0.4714 -0.7516  0.5547
  583SOL     OW11607   4.280   2.916   0.356 -0.2449 -0.6500 -0.4749
  583SOL    HW111608   4.364   2.948   0.312 -0.0225 -1.3588 -0.5682
  583SOL    HW211609   4.291   2.918   0.455 -0.1675 -0.6262 -0.4839
  584SOL     OW11610   2.975   2.259   2.323 -0.8587 -0.6265  0.1111
  584SOL    HW111611   3.003   2.355   2.323  0.6371 -1.0289  2.5242
  584SOL    HW211612   3.043   2.205   2.272 -2.1504 -0.3218 -1.9971
  585SOL     OW11613   2.133   3.774   1.049  0.2679 -0.6684 -0.1100
  585SOL    HW111614   2.103   3.824   1.131  0.6138  0.2838 -0.5547
  585SOL    HW211615   2.228   3.744   1.060  0.7841  0.7060 -0.7305
  586SOL     OW11616   4.008   2.734   0.073 -0.1628  0.1938 -0.2964
  586SOL    HW111617   4.018   2.805   0.143 -0.6040  1.1102 -1.1592
  586SOL    HW211618   4.080   2.665   0.086 -1.1065 -0.4298  1.9494
  587SOL     OW11619   2.395   6.015   1.729 -0.4481  0.3565 -0.0073
  587SOL    HW111620   2.467   6.045   1.668  1.5926 -0.9109  1.7045
  587SOL    HW211621   2.426   5.935   1.781 -2.3806  0.9324  2.1277
  588SOL     OW11622   2.549   9.450   2.316 -0.1589  0.2796  0.3915
  588SOL    HW111623   2.594   9.364   2.292  0.5827  0.4927  0.9671
  588SOL    HW211624   2.451   9.435   2.328 -0.0295 -0.4907  0.5176
  589SOL     OW11625   2.892   1.326   0.183 -0.2189  0.3545 -0.2275
  589SOL    HW111626   2.868   1.333   0.086 -0.9553  2.2421  0.0752
  589SOL    HW211627   2.984   1.364   0.197 -1.3849  3.1055  0.2894
  590SOL     OW11628   2.871   7.086   0.799  0.1525 -0.3517  0.0013
  590SOL    HW111629   2.833   7.178   0.806 -0.0152 -0.2443 -1.8385
  590SOL    HW211630   2.815   7.033   0.735  0.0304 -1.8462  1.3281
  591SOL     OW11631   4.465   3.065   1.862  0.0076  0.0289 -1.2068
  591SOL    HW111632   4.527   3.142   1.850  0.0694  0.3448  1.0609
  591SOL    HW211633   4.510   2.981   1.831  1.9936  0.0931  1.3242
  592SOL     OW11634   2.663   2.271   0.219 -0.4088  0.1275 -0.0400
  592SOL    HW111635   2.566   2.293   0.206 -0.1006  1.1876 -0.6561
  592SOL    HW211636   2.711   2.353   0.251  0.8903  0.5370 -2.9443
  593SOL     OW11637   2.408   4.106   2.330 -0.6635 -0.2919 -0.3408
  593SOL    HW111638   2.496   4.085   2.373  0.0658  1.7002 -0.7762
  593SOL    HW211639   2.410   4.200   2.296 -2.6794 -0.5050 -1.1034
  594SOL     OW11640   4.659   2.815   2.428 -0.3179 -0.2168  0.0456
  594SOL    HW111641   4.627   2.728   2.465 -3.3304  0.5216 -0.6425
  594SOL    HW211642   4.725   2.799   2.355 -0.8186 -1.9208 -0.0408
  595SOL     OW11643   2.458   0.408   0.613 -0.3485  0.6182 -0.5716
  595SOL    HW111644   2.512   0.475   0.561 -0.2945  2.0363  1.2680
  595SOL    HW211645   2.368   0.399   0.571  0.0646  0.9493 -1.5478
  596SOL     OW11646   2.809   3.966   0.324 -0.4219  0.5845 -0.2061
  596SOL    HW111647   2.718   3.964   0.281 -0.2817  0.5812 -0.5024
  596SOL    HW211648   2.801   4.006   0.415 -0.6085  1.2181 -0.5000
  597SOL     OW11649   3.394   1.773   2.583 -0.0186 -0.3170  0.2784
  597SOL    HW111650   3.422   1.677   2.575 -0.7625 -0.5187  0.0258
  597SOL    HW211651   3.423   1.808   2.672 -1.1335 -1.2613  1.0301
  598SOL     OW11652   3.869   1.615   0.821  0.3959 -0.0965 -0.1420
  598SOL    HW111653   3.805   1.548   0.859 -1.3478  1.9323  0.6435
  598SOL    HW211654   3.938   1.637   0.890  0.9562 -1.0603 -0.3931
  599SOL     OW11655   3.503   8.839   1.942  0.1717  0.0001  0.1222
  599SOL    HW111656   3.509   8.741   1.925  2.6237  0.2536 -0.8052
  599SOL    HW211657   3.561   8.863   2.020  2.5060  1.1211 -1.8518
  600SOL     OW11658   1.789   3.165   0.375 -0.5415 -0.1282  0.0931
  600SOL    HW111659   1.691   3.156   0.356 -0.6470 -0.9054  0.9578
  600SOL    HW211660   1.803   3.229   0.450 -0.2825  1.0975 -0.9820
  601SOL     OW11661   3.838   1.773   0.320 -0.2136 -0.5666 -0.2555
  601SOL    HW111662   3.789   1.757   0.406  0.0849 -0.3069 -0.0332
  601SOL    HW211663   3.831   1.692   0.262  1.0248 -1.3901  0.7304
  602SOL     OW11664   3.672   4.676   2.662  0.6724  0.1037 -0.2762
  602SOL    HW111665   3.670   4.773   2.635 -0.8170 -0.0630 -0.8494
  602SOL    HW211666   3.750   4.631   2.620  1.4125  1.0649  0.0365
  603SOL     OW11667   3.148   5.150   2.364 -0.1656 -0.4164  0.0437
  603SOL    HW111668   3.050   5.141   2.379 -0.1858  0.8179  0.6713
  603SOL    HW211669   3.164   5.186   2.272 -0.2286 -2.1950 -0.6937
  604SOL     OW11670   2.281   6.230   1.081 -0.0112  0.0404  0.3969
  604SOL    HW111671   2.239   6.149   1.122 -2.0365  0.1635 -1.3528
  604SOL    HW211672   2.310   6.210   0.988  2.0344  0.5418  0.9114
  605SOL     OW11673   2.320   3.338   0.902  0.1396  0.0077 -0.0989
  605SOL    HW111674   2.408   3.379   0.878 -0.2864  1.8062  1.2877
  605SOL    HW211675   2.248   3.407   0.892 -1.0801 -1.3574 -0.9264
  606SOL     OW11676   2.999   5.405   1.764  0.3753  0.0256  0.0892
  606SOL    HW111677   2.948   5.487   1.789 -0.8092 -0.6616 -0.0257
  606SOL    HW211678   3.015   5.405   1.665 -1.7236 -1.0351 -0.2752
  607SOL     OW11679   1.744   8.817   0.229 -0.4100  0.0818 -0.1773
  607SOL    HW111680   1.652   8.797   0.264 -0.1385  1.2516  1.2418
  607SOL    HW211681   1.790   8.881   0.290  1.9090 -1.5987 -0.1001
  608SOL     OW11682   3.731   4.269   0.014  0.6118 -0.5879  0.1319
  608SOL    HW111683   3.635   4.243   0.001  0.4970  1.1539 -3.2034
  608SOL    HW211684   3.737   4.342   0.082 -0.2280 -1.8265  1.5611
  609SOL     OW11685   2.840   0.257   0.792 -0.0999  0.1703  0.4062
  609SOL    HW111686   2.908   0.279   0.721 -1.3878 -0.7486 -1.1615
  609SOL    HW211687   2.877   0.187   0.853  1.4058  1.6822  1.2699
  610SOL     OW11688   2.727   3.756   1.368  0.0578  0.1586  0.2962
  610SOL    HW111689   2.815   3.795   1.394 -0.0076  0.2731  0.3449
  610SOL    HW211690   2.690   3.806   1.290  0.2080 -0.1220  0.0418
  611SOL     OW11691   1.971   3.733   2.597 -0.5908 -0.0598 -0.0640
  611SOL    HW111692   2.052   3.675   2.598 -1.2605 -0.9925  1.0581
  611SOL    HW211693   1.997   3.826   2.571  0.8299 -0.3506  0.2998
  612SOL     OW11694   2.986   1.908   0.654 -0.0558  0.5554  0.2478
  612SOL    HW111695   3.003   1.810   0.644  0.8301  0.5525  1.5701
  612SOL    HW211696   2.888   1.924   0.669 -0.9244  0.2936 -4.3821
  613SOL     OW11697   4.551   3.851   2.046 -0.6231 -0.3636 -0.0833
  613SOL    HW111698   4.509   3.930   2.091 -1.7402 -0.8711 -0.2144
  613SOL    HW211699   4.496   3.824   1.967  0.5684 -0.3548 -0.9298
  614SOL     OW11700   2.370   1.301   2.166  0.2596 -0.3685 -0.2606
  614SOL    HW111701   2.337   1.390   2.135 -1.9020 -0.9614  0.2380
  614SOL    HW211702   2.463   1.286   2.134  0.5861  2.0087 -0.4656
  615SOL     OW11703   2.057   2.915   1.032 -0.0579 -0.4578 -0.0044
  615SOL    HW111704   1.980   2.852   1.022 -0.6201  0.2242  0.0346
  615SOL    HW211705   2.141   2.862   1.045 -0.8871 -1.1853  2.8229
  616SOL     OW11706   1.694   0.836   0.481  0.1461 -0.2125 -0.6164
  616SOL    HW111707   1.648   0.865   0.565  1.0629 -0.6002  0.0311
  616SOL    HW211708   1.644   0.871   0.401 -0.2134  0.9355  0.1014
  617SOL     OW11709   2.010   9.959   0.550 -0.6267  0.0557 -0.5191
  617SOL    HW111710   1.923   9.985   0.591  0.2499  2.9537 -0.3945
  617SOL    HW211711   2.002   9.960   0.450 -0.4357  1.5217 -0.5309
  618SOL     OW11712   4.889   2.741   0.113 -0.1656  0.0147 -0.1051
  618SOL    HW111713   4.889   2.841   0.104 -0.9524 -0.1526 -2.1825
  618SOL    HW211714   4.882   2.700   0.022 -1.9043 -1.9163  0.8690
  619SOL     OW11715   3.321   5.127   2.136 -0.0851 -0.6039 -0.4240
  619SOL    HW111716   3.295   5.048   2.081 -0.9478 -0.7551  0.1781
  619SOL    HW211717   3.416   5.152   2.117 -0.3856 -0.6029 -2.0167
  620SOL     OW11718   3.109   2.680   1.343 -0.3696 -0.1215 -0.2750
  620SOL    HW111719   3.188   2.639   1.389  0.0395 -1.3974 -2.0222
  620SOL    HW211720   3.136   2.765   1.299 -0.6150  0.7834  1.2910
  621SOL     OW11721   2.557   3.800   0.548 -0.2923 -0.3352  0.5387
  621SOL    HW111722   2.539   3.845   0.636 -1.2933  0.6490 -0.1537
  621SOL    HW211723   2.635   3.739   0.558  1.0744  1.5100  1.5404
  622SOL     OW11724   3.852   3.006   1.209 -0.1350  0.3406 -0.4364
  622SOL    HW111725   3.765   3.041   1.173  0.2969  1.3875 -0.4771
  622SOL    HW211726   3.910   3.083   1.237 -0.6073 -0.4320  2.8767
  623SOL     OW11727   3.346   5.512   0.613  0.6017  0.4324 -0.0651
  623SOL    HW111728   3.402   5.589   0.583  0.3863  1.6358  2.4334
  623SOL    HW211729   3.359   5.435   0.552  4.3506  0.9412 -0.0316
  624SOL     OW11730   3.850   4.167   1.561  0.2819 -0.0061  0.4852
  624SOL    HW111731   3.894   4.092   1.514  0.8959  0.5800  0.1175
  624SOL    HW211732   3.857   4.153   1.660  1.6775  0.2923  0.4437
  625SOL     OW11733   2.668   6.642   1.210 -0.3065  0.2668  0.5167
  625SOL    HW111734   2.656   6.655   1.308 -0.1668  1.1863  0.4139
  625SOL    HW211735   2.656   6.730   1.163 -1.6101 -0.3800 -0.4020
  626SOL     OW11736   3.636   4.020   2.428  0.7580  0.6790  0.1259
  626SOL    HW111737   3.676   3.936   2.465  0.3741  0.5232  0.1810
  626SOL    HW211738   3.633   4.089   2.501 -1.0429  0.0159  0.7058
  627SOL     OW11739   3.416   4.692   1.258 -0.3995  0.1279 -0.1834
  627SOL    HW111740   3.508   4.653   1.252 -0.2850  0.5799 -1.8125
  627SOL    HW211741   3.409   4.769   1.195 -1.8523  0.1801  0.0261
  628SOL     OW11742   2.709   5.109   0.116 -0.4168  0.0671  0.1086
  628SOL    HW111743   2.706   5.017   0.154 -0.8573  0.2974  0.6626
  628SOL    HW211744   2.775   5.114   0.042 -0.0287 -0.5693  0.4123
  629SOL     OW11745   3.420   3.236   1.619 -0.7752  0.3279  0.3676
  629SOL    HW111746   3.447   3.140   1.610 -0.1309  0.5764 -0.4362
  629SOL    HW211747   3.321   3.244   1.607 -0.7432 -0.1486 -0.2845
  630SOL     OW11748   3.535   2.104   1.422 -0.1876 -0.1025 -0.0785
  630SOL    HW111749   3.551   2.172   1.493 -0.8518 -0.0058 -0.0141
  630SOL    HW211750   3.437   2.086   1.415 -0.1051 -0.2787 -0.8134
  631SOL     OW11751   2.904   3.389   0.509  0.2725 -0.0511  0.0438
  631SOL    HW111752   2.989   3.435   0.484 -0.2916  0.4650 -0.9787
  631SOL    HW211753   2.895   3.305   0.455 -0.5110  0.5960 -0.8536
  632SOL     OW11754   2.425   8.827   0.331 -0.0464 -0.0907  0.2741
  632SOL    HW111755   2.352   8.760   0.328  0.5806 -0.7958  0.5096
  632SOL    HW211756   2.389   8.916   0.359 -1.0338 -0.1190 -0.9101
  633SOL     OW11757   3.411   2.310   0.807 -0.1930 -1.0371  0.4885
  633SOL    HW111758   3.501   2.283   0.774 -0.5592  0.2928 -1.6792
  633SOL    HW211759   3.343   2.296   0.735 -1.6558 -1.6084  1.9535
  634SOL     OW11760   2.457   2.101   1.278  0.3118  0.5102  0.3059
  634SOL    HW111761   2.547   2.120   1.238 -0.4626 -0.2713 -1.8447
  634SOL    HW211762   2.402   2.185   1.277  0.1944  0.4305 -0.5691
  635SOL     OW11763   2.160   7.082   1.013  0.0932  0.4222 -0.0858
  635SOL    HW111764   2.221   7.133   0.952 -0.1626  0.3460 -0.4024
  635SOL    HW211765   2.180   7.108   1.108  1.0816 -0.1020 -0.1393
  636SOL     OW11766   2.977   2.116   0.291  0.3410  0.1842 -0.0411
  636SOL    HW111767   2.961   2.158   0.201 -0.0113 -0.2535 -0.1845
  636SOL    HW211768   2.909   2.045   0.307  1.2224 -0.6657 -0.0043
  637SOL     OW11769   4.846   2.712   0.453 -0.2258 -0.4449 -0.6468
  637SOL    HW111770   4.866   2.619   0.483  0.5484  0.1691  0.7483
  637SOL    HW211771   4.906   2.777   0.499 -1.3358  0.8450 -0.9567
  638SOL     OW11772   3.163   3.279   1.607  0.2944 -0.0959  0.0933
  638SOL    HW111773   3.079   3.227   1.591  0.6489 -0.6517  0.0282
  638SOL    HW211774   3.142   3.360   1.661 -0.7927  1.2982 -2.2993
  639SOL     OW11775   3.352   4.227   2.394 -0.4398  0.1707 -0.2027
  639SOL    HW111776   3.278   4.295   2.397 -1.7580 -1.2566 -0.0442
  639SOL    HW211777   3.326   4.152   2.333 -0.1322 -1.4959  1.6727
  640SOL     OW11778   3.968   1.241   1.555 -0.0678  0.8160 -0.0424
  640SOL    HW111779   4.053   1.293   1.556  1.6900 -1.9188 -0.4692
  640SOL    HW211780   3.952   1.202   1.645  1.2749 -1.8895 -0.9103
  641SOL     OW11781   4.920   2.806   2.305 -0.0584  0.0475  0.0234
  641SOL    HW111782   4.941   2.785   2.400  1.4625  0.2958 -0.2404
  641SOL    HW211783   5.006   2.813   2.253 -0.7271  2.3497 -0.8335
  642SOL     OW11784   3.475   4.241   1.080  0.0049 -0.4399 -0.6070
  642SOL    HW111785   3.423   4.181   1.020  0.1970 -1.7297  0.4930
  642SOL    HW211786   3.573   4.223   1.070  0.0593 -0.3583 -0.2384
  643SOL     OW11787   2.651   4.050   2.495 -0.3244  0.0289  0.4366
  643SOL    HW111788   2.730   4.096   2.536 -0.1284  0.2671 -0.2031
  643SOL    HW211789   2.573   4.056   2.557 -0.3166  1.2823  0.3299
  644SOL     OW11790   3.226   0.212   0.464  0.1470 -0.3235 -0.1455
  644SOL    HW111791   3.319   0.245   0.450 -0.3711  0.3268 -2.1608
  644SOL    HW211792   3.214   0.123   0.421 -0.0238 -0.6310  0.5324
  645SOL     OW11793   3.376   3.951   0.843 -0.3232  0.1568 -0.2333
  645SOL    HW111794   3.424   3.996   0.768  0.6728  0.3985  0.5355
  645SOL    HW211795   3.278   3.967   0.834 -0.3022 -0.6282 -2.0047
  646SOL     OW11796   3.390   5.333   0.428 -0.0371  0.2589  0.0611
  646SOL    HW111797   3.427   5.240   0.428  0.2411  0.3593  1.3093
  646SOL    HW211798   3.408   5.376   0.339 -1.5321 -1.3996 -1.0776
  647SOL     OW11799   3.384   4.498   1.053  0.8311 -0.5003  0.1409
  647SOL    HW111800   3.348   4.561   1.123  3.2139  2.2342 -0.9791
  647SOL    HW211801   3.428   4.421   1.097  0.0658 -0.1195  1.6165
  648SOL     OW11802   2.941   8.552   1.308  0.1386  0.0600 -0.1530
  648SOL    HW111803   3.015   8.618   1.317 -0.1956  0.4083  0.0860
  648SOL    HW211804   2.939   8.493   1.389  0.9331 -0.7645 -0.7292
  649SOL     OW11805   4.847   3.338   2.210  0.4907 -0.5384 -0.5283
  649SOL    HW111806   4.791   3.364   2.289 -0.4988 -3.8490 -0.0596
  649SOL    HW211807   4.903   3.416   2.182  0.0520  1.0320  2.7305
  650SOL     OW11808   2.489   3.542   1.632  0.1781 -0.2218 -0.2651
  650SOL    HW111809   2.485   3.492   1.718 -0.0214  0.3878  0.0780
  650SOL    HW211810   2.404   3.527   1.580 -0.9723  1.8531  0.9972
  651SOL     OW11811   4.059   1.622   1.782  0.1288 -0.1252  0.9660
  651SOL    HW111812   3.965   1.637   1.813 -0.4806  0.9283 -1.2929
  651SOL    HW211813   4.077   1.679   1.702  2.4458 -0.9302  0.8791
  652SOL     OW11814   4.221   1.544   2.320  1.0034  0.0184  0.1853
  652SOL    HW111815   4.202   1.601   2.400  2.1782 -0.2518  0.6698
  652SOL    HW211816   4.202   1.596   2.237 -1.5666 -0.1635  0.6272
  653SOL     OW11817   3.964   0.199   2.626 -0.9614  0.1272  0.5553
  653SOL    HW111818   3.965   0.296   2.606  0.0522  0.2521  1.1663
  653SOL    HW211819   4.024   0.180   2.705  0.8599 -1.3066 -1.1013
  654SOL     OW11820   2.552   0.617   2.353  0.1956  0.0229  0.1019
  654SOL    HW111821   2.528   0.677   2.277  0.0017  3.2007  2.5693
  654SOL    HW211822   2.482   0.546   2.363 -3.9312  4.0899  1.9205
  655SOL     OW11823   3.426   3.237   2.354 -0.6847 -0.1786 -0.5315
  655SOL    HW111824   3.455   3.330   2.375  0.5178 -0.4716 -0.8302
  655SOL    HW211825   3.328   3.228   2.370 -0.2896  0.3138  2.4458
  656SOL     OW11826   4.336   2.885   0.625 -0.2404 -0.5449 -0.1655
  656SOL    HW111827   4.374   2.924   0.709 -0.0243 -0.9283 -0.0837
  656SOL    HW211828   4.406   2.829   0.580 -0.8176 -1.5857  0.1986
  657SOL     OW11829   2.179   0.908   0.080 -0.3000  0.6217  0.2198
  657SOL    HW111830   2.188   1.001   0.117  2.8415  1.2317 -1.8740
  657SOL    HW211831   2.132   0.911  -0.008 -0.3548  0.2084  0.2330
  658SOL     OW11832   2.079   7.193   0.355  0.3425  0.4902 -0.1844
  658SOL    HW111833   2.066   7.112   0.298 -1.4034 -0.1103  1.0470
  658SOL    HW211834   2.162   7.182   0.410  0.4379 -0.2036 -0.4589
  659SOL     OW11835   2.222   5.725   2.332 -0.2214  0.8481  0.0893
  659SOL    HW111836   2.254   5.784   2.406  2.2269 -1.2007  0.7700
  659SOL    HW211837   2.276   5.742   2.250 -0.2099  0.3159 -0.0187
  660SOL     OW11838   2.537   6.889   2.560 -0.2100  0.0939  0.3939
  660SOL    HW111839   2.449   6.871   2.604 -0.3960  1.8532  0.7854
  660SOL    HW211840   2.564   6.983   2.578  0.5052  0.3513 -1.9165
  661SOL     OW11841   3.423   3.671   0.340  0.2363  0.3658  0.2025
  661SOL    HW111842   3.494   3.607   0.372  0.8611  0.5846 -0.7001
  661SOL    HW211843   3.375   3.630   0.262 -0.9136  0.0512  1.0703
  662SOL     OW11844   4.663   3.076   2.502  0.5311 -0.0320  0.2851
  662SOL    HW111845   4.649   2.982   2.471  0.5659 -0.4161  1.4170
  662SOL    HW211846   4.761   3.097   2.498  0.5469 -0.1150  0.2366
  663SOL     OW11847   3.905   2.713   1.821 -0.4469 -0.1487 -0.1115
  663SOL    HW111848   3.825   2.664   1.786  1.2902 -2.9812 -0.2828
  663SOL    HW211849   3.942   2.665   1.900  0.8408  1.3548  0.2306
  664SOL     OW11850   4.498   2.676   2.650  0.2428  0.2521  0.1943
  664SOL    HW111851   4.430   2.669   2.577 -0.5210  0.3382  0.8916
  664SOL    HW211852   4.567   2.605   2.639 -0.2500 -0.1619 -0.2207
  665SOL     OW11853   2.502   7.594   2.234 -0.4063  0.2782  0.3403
  665SOL    HW111854   2.520   7.612   2.330  2.1484 -0.0334 -0.0494
  665SOL    HW211855   2.575   7.537   2.196 -1.4988  0.1830 -1.7263
  666SOL     OW11856   2.613   9.676   2.473  0.2410 -0.2413  0.0268
  666SOL    HW111857   2.595   9.597   2.414  0.0215 -0.1147 -0.0748
  666SOL    HW211858   2.528   9.726   2.489  0.7490  1.1736 -1.6111
  667SOL     OW11859   3.536   9.240   2.261  0.5214  0.2369  0.7386
  667SOL    HW111860   3.514   9.249   2.164 -0.3418 -3.3909  0.5221
  667SOL    HW211861   3.619   9.185   2.272 -0.1805 -0.5929  2.0732
  668SOL     OW11862   3.640   8.865   1.655 -0.0317  0.0923  0.4858
  668SOL    HW111863   3.573   8.915   1.600  0.0773  0.0075  0.2741
  668SOL    HW211864   3.659   8.916   1.739 -0.3932  0.0964  0.5666
  669SOL     OW11865   3.783   2.136   2.090  0.7654  0.2241 -0.4163
  669SOL    HW111866   3.882   2.121   2.095  0.5576 -1.5092 -0.9949
  669SOL    HW211867   3.740   2.060   2.041 -1.0727  0.0330  1.3974
  670SOL     OW11868   2.195   7.106   1.315  0.3702 -0.3488  1.2435
  670SOL    HW111869   2.135   7.026   1.305  0.8328 -0.5936  0.3162
  670SOL    HW211870   2.209   7.126   1.412 -1.0816 -0.3870  1.4783
  671SOL     OW11871   3.022   6.086   1.984 -0.2002  0.3278  0.7175
  671SOL    HW111872   3.021   6.134   2.072 -1.2939  1.3091  0.1893
  671SOL    HW211873   3.016   6.153   1.910  2.4891 -0.3720 -0.1896
  672SOL     OW11874   2.880   7.064   1.271  0.1280 -0.0470  0.0105
  672SOL    HW111875   2.923   7.152   1.253  0.8253 -0.3133  0.3685
  672SOL    HW211876   2.897   7.003   1.193  0.4833 -0.1855  0.1970
  673SOL     OW11877   3.348   2.755   2.628 -0.0152  0.2929  0.5162
  673SOL    HW111878   3.386   2.847   2.615  2.0691 -0.3335  1.8750
  673SOL    HW211879   3.413   2.687   2.596  0.8664 -0.8796  4.4576
  674SOL     OW11880   2.965   9.572   0.867  0.4119 -1.0065  0.4148
  674SOL    HW111881   3.001   9.486   0.904  1.3747 -1.0533 -0.5975
  674SOL    HW211882   2.946   9.635   0.942  0.4921 -1.7920  1.1094
  675SOL     OW11883   3.283   3.676   0.668 -0.0544  0.2282 -0.0716
  675SOL    HW111884   3.382   3.686   0.665 -0.0018  0.1530  1.1379
  675SOL    HW211885   3.252   3.673   0.764 -1.5110  3.2023 -0.3985
  676SOL     OW11886   1.916   1.010   2.213 -0.1746 -0.5713 -0.2572
  676SOL    HW111887   1.869   1.034   2.129 -1.0138  0.2729  0.4379
  676SOL    HW211888   2.015   1.008   2.197 -0.4129 -1.7649 -1.5749
  677SOL     OW11889   4.244   9.203   0.220 -0.2133  0.6199 -0.0644
  677SOL    HW111890   4.199   9.189   0.132  0.1195 -1.4569  0.0876
  677SOL    HW211891   4.177   9.201   0.293 -0.3127  0.9756 -0.1450
  678SOL     OW11892   3.229   2.816   1.103  0.4344  0.1265 -0.1662
  678SOL    HW111893   3.313   2.820   1.157  0.7021  1.6692 -0.6559
  678SOL    HW211894   3.252   2.820   1.006 -0.1153 -1.3080 -0.3675
  679SOL     OW11895   4.820   2.373   0.926  0.6583  0.2085 -0.6513
  679SOL    HW111896   4.868   2.420   1.000 -0.0326 -0.5731  0.3064
  679SOL    HW211897   4.754   2.435   0.884 -0.6483 -0.0483  0.9722
  680SOL     OW11898   4.352   0.983   2.381  0.1204 -0.2962  0.1339
  680SOL    HW111899   4.429   1.005   2.322 -1.0149 -0.6676 -1.5450
  680SOL    HW211900   4.363   0.890   2.418 -0.6786 -1.3258 -2.0964
  681SOL     OW11901   3.291   9.752   0.620 -0.1012  0.7649 -0.2204
  681SOL    HW111902   3.307   9.800   0.706 -4.1189  2.9755 -0.6194
  681SOL    HW211903   3.198   9.715   0.618  0.7801 -1.5436 -2.5685
  682SOL     OW11904   3.327   0.567   1.814 -0.5299  0.0953  0.3328
  682SOL    HW111905   3.354   0.595   1.722  2.1327 -0.7116  0.8409
  682SOL    HW211906   3.332   0.467   1.822 -1.9742  0.0575  0.9884
  683SOL     OW11907   3.460   4.150   2.652 -0.2478 -0.1771  0.6276
  683SOL    HW111908   3.448   4.054   2.679 -1.4705 -0.1292  0.2782
  683SOL    HW211909   3.432   4.161   2.556 -0.2940  0.5713  0.7272
  684SOL     OW11910   2.784   1.170   1.689 -0.2013  0.2432  0.5163
  684SOL    HW111911   2.882   1.153   1.698 -0.3872 -0.3565  1.4303
  684SOL    HW211912   2.762   1.261   1.725  0.4138  1.4730 -2.1139
  685SOL     OW11913   3.465   8.584   0.660 -0.7460 -0.3086 -0.2099
  685SOL    HW111914   3.510   8.672   0.643  1.3156 -1.2802  0.0420
  685SOL    HW211915   3.458   8.533   0.574  0.4445 -0.9739  0.0733
  686SOL     OW11916   3.242   8.418   0.748 -0.1012  0.1482 -0.4468
  686SOL    HW111917   3.173   8.491   0.753 -0.8236 -0.4798 -1.1114
  686SOL    HW211918   3.326   8.454   0.708  0.1685  1.0709  0.9075
  687SOL     OW11919   1.987   6.137   0.961  0.1692  0.0078 -0.0800
  687SOL    HW111920   1.983   6.229   1.000  1.2456  0.4672 -1.0500
  687SOL    HW211921   2.004   6.071   1.035  0.9260  0.7411  0.4162
  688SOL     OW11922   3.094   7.981   2.417 -0.5454  0.4361 -0.0172
  688SOL    HW111923   3.163   8.013   2.481 -1.1674  0.4711  0.6377
  688SOL    HW211924   3.100   7.881   2.408 -2.7440 -0.0351  2.8299
  689SOL     OW11925   2.708   3.772   2.436 -0.5266 -0.3889  0.1968
  689SOL    HW111926   2.756   3.755   2.350  0.0946  0.1114  0.4375
  689SOL    HW211927   2.702   3.870   2.452 -0.0460 -0.4951  1.0498
  690SOL     OW11928   2.150   8.784   0.726  0.0936  0.5551 -0.5528
  690SOL    HW111929   2.105   8.844   0.661 -1.2288  0.5767  0.3684
  690SOL    HW211930   2.122   8.808   0.819 -2.2300 -2.9304 -0.2722
  691SOL     OW11931   3.514   9.532   1.113 -0.3777 -0.2317 -0.5172
  691SOL    HW111932   3.548   9.603   1.175  0.1930 -0.9939  0.0532
  691SOL    HW211933   3.571   9.530   1.031  0.2205 -0.6866 -0.0988
  692SOL     OW11934   3.994   1.977   2.172 -0.6161  0.4269 -0.2457
  692SOL    HW111935   3.954   1.886   2.160 -3.2391  1.8162 -2.6723
  692SOL    HW211936   3.989   2.004   2.268  1.8504 -2.6764  0.8141
  693SOL     OW11937   2.852   8.655   1.813  0.3286 -0.3177 -0.0262
  693SOL    HW111938   2.913   8.734   1.821  0.6518 -0.4829 -0.7767
  693SOL    HW211939   2.794   8.666   1.733  0.0508 -0.6199  0.1359
  694SOL     OW11940   2.759   7.486   0.289  0.6542 -0.3937  0.8088
  694SOL    HW111941   2.689   7.415   0.286  1.1234 -0.9671  2.6616
  694SOL    HW211942   2.788   7.509   0.196  0.4080 -2.5288  0.1872
  695SOL     OW11943   2.505   9.696   1.894  0.5520  0.2147 -0.1290
  695SOL    HW111944   2.455   9.623   1.941  0.0126  0.5455 -0.1879
  695SOL    HW211945   2.526   9.667   1.801  0.9454 -0.1356  0.0653
  696SOL     OW11946   2.883   2.228   0.061 -0.0204 -0.2635 -0.0327
  696SOL    HW111947   2.800   2.232   0.116 -0.8975  0.7952 -1.4142
  696SOL    HW211948   2.893   2.313   0.009  2.2295 -0.1359  0.5552
  697SOL     OW11949   2.905   1.944   2.008  0.1370 -0.1845 -0.1532
  697SOL    HW111950   2.891   2.041   2.026 -0.7911 -0.4651  0.6786
  697SOL    HW211951   2.825   1.892   2.039  0.8575 -1.2719 -0.0767
  698SOL     OW11952   2.266   4.294   1.842 -0.2211 -0.0747  0.2313
  698SOL    HW111953   2.313   4.232   1.905 -1.6793 -0.7351  0.6944
  698SOL    HW211954   2.291   4.388   1.864  0.6083 -0.3971  0.7018
  699SOL     OW11955   4.070   4.328   0.735 -0.9630  0.1111 -0.1966
  699SOL    HW111956   4.073   4.233   0.701 -1.0132 -0.1223  0.4545
  699SOL    HW211957   4.039   4.329   0.830  2.3054  0.4983  0.9006
  700SOL     OW11958   2.491   3.454   0.576  0.2238 -0.0902  0.2988
  700SOL    HW111959   2.415   3.518   0.576  0.4937  0.2238 -0.1913
  700SOL    HW211960   2.479   3.387   0.503  0.3022 -0.1785  0.3659
  701SOL     OW11961   1.909   6.524   0.839  0.6362 -0.2457  0.7029
  701SOL    HW111962   1.977   6.477   0.896 -1.1333  0.1200  3.1519
  701SOL    HW211963   1.837   6.562   0.896 -1.3139 -0.0313 -1.7971
  702SOL     OW11964   2.314   7.747   0.906 -0.2590 -0.1766 -0.5973
  702SOL    HW111965   2.405   7.787   0.909 -0.7138  0.9615 -1.4147
  702SOL    HW211966   2.277   7.742   0.999 -0.2215  1.4036 -0.4867
  703SOL     OW11967   3.565   9.044   1.078 -0.1936  0.7751 -0.0925
  703SOL    HW111968   3.659   9.010   1.065 -0.4057  0.2019 -0.1540
  703SOL    HW211969   3.514   9.032   0.994  0.3657  3.3508 -0.8287
  704SOL     OW11970   4.138   2.653   0.412 -0.1914 -0.0372 -0.0547
  704SOL    HW111971   4.215   2.681   0.355 -1.3882  0.1150 -1.6377
  704SOL    HW211972   4.139   2.705   0.498  2.2559 -1.0575  0.5774
  705SOL     OW11973   3.817   4.375   0.590  0.1117 -0.4285 -0.5686
  705SOL    HW111974   3.746   4.446   0.589  1.0790  0.5423 -0.2277
  705SOL    HW211975   3.886   4.397   0.659  1.4061 -0.7297 -1.7454
  706SOL     OW11976   2.572   0.155   0.463 -0.1744 -0.2285 -0.3654
  706SOL    HW111977   2.649   0.095   0.445 -1.7273 -1.5362 -2.8561
  706SOL    HW211978   2.572   0.181   0.560  1.8327 -2.3904  0.2559
  707SOL     OW11979   2.273   3.614   0.591 -0.1827  0.5176  0.0194
  707SOL    HW111980   2.276   3.661   0.503 -0.3605  0.1711 -0.1717
  707SOL    HW211981   2.190   3.559   0.596  0.0840  0.1353  0.1957
  708SOL     OW11982   3.050   2.337   1.749 -0.2939 -0.3101  0.6521
  708SOL    HW111983   2.976   2.280   1.712  1.6355 -1.6174 -1.3225
  708SOL    HW211984   3.035   2.432   1.722 -0.7604 -0.7133 -0.5799
  709SOL     OW11985   3.926   9.809   0.441  0.4130  0.3070  0.1305
  709SOL    HW111986   3.851   9.853   0.491 -0.0255 -0.2268 -0.0630
  709SOL    HW211987   3.915   9.826   0.343  0.1729 -0.3413  0.0437
  710SOL     OW11988   4.102   2.145   0.467 -0.0300  0.2600 -0.5342
  710SOL    HW111989   4.140   2.238   0.466 -0.9318  0.6307 -1.3957
  710SOL    HW211990   4.061   2.125   0.378 -0.1817 -0.8259 -0.2234
  711SOL     OW11991   2.280   3.187   2.025  0.2222  0.5842 -0.1510
  711SOL    HW111992   2.224   3.248   2.081 -1.0200  0.4673 -1.2405
  711SOL    HW211993   2.240   3.096   2.025  1.2377  0.1258  0.2389
  712SOL     OW11994   2.588   7.125   1.718 -0.6965 -0.1911  0.0148
  712SOL    HW111995   2.581   7.223   1.736 -2.1285 -0.6540  2.2393
  712SOL    HW211996   2.683   7.100   1.699  0.0341  1.2718  1.6617
  713SOL     OW11997   2.603   2.281   2.095 -0.6875 -0.5285 -0.1479
  713SOL    HW111998   2.520   2.261   2.043 -1.3038 -1.2143  1.0818
  713SOL    HW211999   2.675   2.310   2.032 -1.4166 -1.3301 -1.3833
  714SOL     OW12000   5.082   3.537   1.372 -0.5159  0.3388  0.2624
  714SOL    HW112001   5.090   3.615   1.311  1.4184  0.7810  1.0232
  714SOL    HW212002   5.053   3.567   1.463  1.4110  0.3670  0.8912
  715SOL     OW12003   3.903   4.789   0.646  0.1791  0.1750  0.9115
  715SOL    HW112004   3.882   4.766   0.551  3.4119  2.0156 -0.3247
  715SOL    HW212005   3.984   4.738   0.675 -0.4915  0.0145  2.5108
  716SOL     OW12006   4.519   1.433   0.373 -0.3111 -0.4262  0.6201
  716SOL    HW112007   4.527   1.500   0.447 -0.2416  0.8919 -0.5555
  716SOL    HW212008   4.590   1.450   0.305 -0.4907 -1.5063  0.1593
  717SOL     OW12009   3.274   5.450   2.206 -0.0081 -0.1573  0.2100
  717SOL    HW112010   3.310   5.469   2.114  0.6640  0.5015  0.6022
  717SOL    HW212011   3.190   5.397   2.198  0.6961 -1.1487 -0.7478
  718SOL     OW12012   2.398   4.561   1.854 -0.0813  0.4011 -0.2361
  718SOL    HW112013   2.399   4.660   1.841 -0.5645  0.4943  0.3962
  718SOL    HW212014   2.488   4.530   1.883  0.0745  0.6526 -0.4460
  719SOL     OW12015   2.650   2.853   1.464 -0.4839  0.3332 -0.2218
  719SOL    HW112016   2.609   2.829   1.376 -2.5195  0.1104  0.7619
  719SOL    HW212017   2.750   2.845   1.457 -0.5612  0.8198 -2.6436
  720SOL     OW12018   2.692   6.671   2.645  0.3669  0.7118 -0.0223
  720SOL    HW112019   2.623   6.729   2.602  0.4387  1.0935  0.3707
  720SOL    HW212020   2.770   6.661   2.584 -0.3461 -0.3473 -0.7943
  721SOL     OW12021   2.281   8.363   0.291 -0.3296  0.3923  0.5883
  721SOL    HW112022   2.315   8.322   0.376 -1.5354 -0.7592  0.5493
  721SOL    HW212023   2.199   8.314   0.262  0.2443  0.5723 -1.4164
  722SOL     OW12024   4.438   4.682   0.528 -0.1320  0.8079  0.1249
  722SOL    HW112025   4.402   4.595   0.496  0.6511 -0.7912  3.3557
  722SOL    HW212026   4.370   4.729   0.584  0.1029  1.3698 -0.0537
  723SOL     OW12027   2.427   4.111   0.500  0.4407  0.3670  0.4698
  723SOL    HW112028   2.435   4.082   0.595 -0.2575 -0.6401  0.2279
  723SOL    HW212029   2.397   4.034   0.444  0.8767  0.9453 -0.5736
  724SOL     OW12030   3.512   1.352   0.035 -0.2350  0.2950  0.4257
  724SOL    HW112031   3.588   1.295   0.006 -0.5324  0.5067 -0.7913
  724SOL    HW212032   3.441   1.294   0.075 -0.0025 -0.0481  0.3449
  725SOL     OW12033   4.749   3.263   0.082  0.5252  0.3758  0.7302
  725SOL    HW112034   4.824   3.304   0.135  0.8929  1.6912 -0.7642
  725SOL    HW212035   4.699   3.335   0.033  0.8975 -0.8964 -1.6011
  726SOL     OW12036   1.760   3.629   0.847  0.5011  0.0757  0.3952
  726SOL    HW112037   1.760   3.529   0.845 -0.1211  0.0699  0.6532
  726SOL    HW212038   1.709   3.664   0.769 -0.9467  0.1657  1.3747
  727SOL     OW12039   1.768   2.605   0.108 -0.7455  0.3685 -0.3329
  727SOL    HW112040   1.775   2.505   0.101  0.1093  0.5196 -1.9048
  727SOL    HW212041   1.860   2.645   0.108 -1.1073  1.3670 -3.8311
  728SOL     OW12042   3.540   7.786   0.741 -0.5135  0.7109  0.1076
  728SOL    HW112043   3.483   7.708   0.715  0.1451  0.1024  0.4845
  728SOL    HW212044   3.485   7.851   0.793 -1.3726  1.0690 -1.2053
  729SOL     OW12045   3.101   4.049   0.719 -0.4704 -0.4543 -0.2025
  729SOL    HW112046   3.134   4.032   0.626  1.9656 -0.9455  0.7144
  729SOL    HW212047   3.056   4.138   0.723  1.4200  0.5922 -1.3764
  730SOL     OW12048   2.338   7.254   2.319 -0.6013  0.0747  0.2859
  730SOL    HW112049   2.387   7.270   2.233 -1.4339 -0.4537 -0.3029
  730SOL    HW212050   2.240   7.267   2.304 -0.6674  0.8817  1.3876
  731SOL     OW12051   4.623   3.287   1.867 -0.1205 -0.3496  0.4355
  731SOL    HW112052   4.637   3.329   1.778 -1.3165  0.7411  0.7477
  731SOL    HW212053   4.600   3.358   1.934 -2.4166 -1.5029  0.9141
  732SOL     OW12054   3.425   3.660   2.289  0.2048 -0.2785 -0.0617
  732SOL    HW112055   3.426   3.760   2.289 -0.5497 -0.2697  0.5345
  732SOL    HW212056   3.334   3.628   2.316 -0.1013 -1.1238 -2.0312
  733SOL     OW12057   3.229   1.634   0.185  0.2456  0.2487  0.1926
  733SOL    HW112058   3.187   1.641   0.275  0.2705 -0.1514  0.2361
  733SOL    HW212059   3.188   1.701   0.124 -0.9954 -0.6388  0.0201
  734SOL     OW12060   2.596   7.293   2.409  0.0884 -0.1977 -0.1905
  734SOL    HW112061   2.620   7.387   2.387 -1.3216  0.3196  0.4446
  734SOL    HW212062   2.498   7.279   2.396  0.1289 -1.3264  0.6223
  735SOL     OW12063   2.142   3.306   1.735  0.4043  0.5632  0.4068
  735SOL    HW112064   2.233   3.267   1.737  0.8419  1.5098 -0.4696
  735SOL    HW212065   2.121   3.339   1.643 -0.8676  0.2461  0.5694
  736SOL     OW12066   2.259   1.754   0.038 -0.1872  0.3278  0.7582
  736SOL    HW112067   2.241   1.797  -0.051 -1.5334  0.2251  0.9728
  736SOL    HW212068   2.328   1.683   0.027  0.1104  0.7375 -0.0921
  737SOL     OW12069   5.207   2.717   0.397 -0.6281 -0.2999  0.1556
  737SOL    HW112070   5.122   2.714   0.449  0.5272 -2.5671  2.0403
  737SOL    HW212071   5.186   2.729   0.300 -2.9998  0.5445  0.7276
  738SOL     OW12072   3.466   3.937   2.240  0.8716  0.1875 -0.6225
  738SOL    HW112073   3.468   4.001   2.164 -0.3037 -1.3588 -1.9841
  738SOL    HW212074   3.533   3.965   2.309  1.2902  2.1240 -1.7802
  739SOL     OW12075   4.049   0.146   0.731  0.0318  0.1660  0.0925
  739SOL    HW112076   4.126   0.160   0.794 -1.4005  1.0164  1.6879
  739SOL    HW212077   4.003   0.060   0.753 -1.3198  1.1386  1.1391
  740SOL     OW12078   2.708   8.247   2.165  0.0773  0.2474  0.3467
  740SOL    HW112079   2.766   8.269   2.087  0.5777 -0.4043  0.5341
  740SOL    HW212080   2.741   8.164   2.210 -1.3825 -0.4998  0.0695
  741SOL     OW12081   2.656   9.385   1.546 -0.0966 -0.0429  0.1491
  741SOL    HW112082   2.603   9.364   1.465  0.3144  0.6775 -0.3100
  741SOL    HW212083   2.691   9.301   1.587 -1.3519 -0.4960  0.2971
  742SOL     OW12084   2.915   3.511   2.176  0.0402  0.1286 -0.1210
  742SOL    HW112085   2.949   3.604   2.185 -1.4936  0.6264  0.6055
  742SOL    HW212086   2.983   3.455   2.127  1.5312  1.2928  0.5848
  743SOL     OW12087   2.658   0.787   1.435  0.0828 -0.2862 -0.3947
  743SOL    HW112088   2.633   0.830   1.522 -1.1026  0.4130 -1.0715
  743SOL    HW212089   2.595   0.712   1.416 -0.7439  0.6689 -1.4873
  744SOL     OW12090   2.350   9.718   2.652 -0.9825  0.6126 -0.2118
  744SOL    HW112091   2.338   9.777   2.572 -2.6187  0.4865 -0.0765
  744SOL    HW212092   2.270   9.659   2.661 -1.1441  1.1413  1.9555
  745SOL     OW12093   3.105   1.237   1.747  0.2766  0.5506 -0.7559
  745SOL    HW112094   3.084   1.139   1.754 -0.8814  0.7483 -1.3892
  745SOL    HW212095   3.193   1.248   1.701  0.6259 -0.2081 -0.2898
  746SOL     OW12096   5.027   2.503   0.261 -0.1071  0.0243  0.0671
  746SOL    HW112097   4.969   2.580   0.233 -0.1066  0.1958  0.5265
  746SOL    HW212098   5.058   2.518   0.355  1.5092  0.4207 -0.5221
  747SOL     OW12099   2.901   6.560   0.231  0.3316  0.0210  0.1486
  747SOL    HW112100   2.885   6.520   0.322 -2.5681 -0.2471 -0.4306
  747SOL    HW212101   2.855   6.648   0.226  0.3149 -0.0614 -1.1245
  748SOL     OW12102   2.584   0.634   0.498  0.3015  0.0713 -0.7535
  748SOL    HW112103   2.601   0.610   0.594 -0.1313  0.6191 -0.5371
  748SOL    HW212104   2.664   0.683   0.462  0.5027 -0.2153 -0.6985
  749SOL     OW12105   3.102   1.329   0.438  0.6978 -0.0757 -0.0822
  749SOL    HW112106   3.036   1.308   0.511 -0.7690  0.6724 -1.1687
  749SOL    HW212107   3.173   1.259   0.437 -1.5679 -2.4591 -0.6311
  750SOL     OW12108   3.021   8.417   1.541 -0.0266 -0.2053  0.0810
  750SOL    HW112109   3.096   8.356   1.513 -0.2702 -0.3589 -0.2475
  750SOL    HW212110   3.057   8.508   1.560  0.2794 -0.3389  0.1474
  751SOL     OW12111   3.200   0.131   2.441 -0.1288 -0.5661  0.0454
  751SOL    HW112112   3.119   0.082   2.406  0.5938 -1.8503  0.1448
  751SOL    HW212113   3.252   0.070   2.500  0.4560  0.5455  0.6795
  752SOL     OW12114   4.793   3.684   1.479 -0.0920  0.2770 -0.7088
  752SOL    HW112115   4.739   3.715   1.558  0.4114 -0.5817 -0.0152
  752SOL    HW212116   4.878   3.736   1.474 -0.2898  0.5868 -0.9143
  753SOL     OW12117   5.073   1.897   0.004 -0.1710  0.3381  0.2475
  753SOL    HW112118   5.062   1.865  -0.090  1.6410 -1.2274  0.5409
  753SOL    HW212119   5.035   1.829   0.067 -0.6868  1.0214  0.6825
  754SOL     OW12120   2.456   1.437   0.279  0.3472  0.0389  0.1491
  754SOL    HW112121   2.506   1.392   0.205  1.4080  1.2885  0.0716
  754SOL    HW212122   2.361   1.453   0.250  0.3333 -0.8721 -0.3356
  755SOL     OW12123   2.907   2.267   0.685  0.5002 -0.2951  0.3523
  755SOL    HW112124   2.974   2.196   0.664  0.7310 -0.1541  0.6026
  755SOL    HW212125   2.823   2.251   0.632  1.4839  0.7265 -1.5674
  756SOL     OW12126   3.401   0.470   0.200 -0.0492 -0.4681  0.0720
  756SOL    HW112127   3.364   0.379   0.180 -0.2079 -0.6500  1.1633
  756SOL    HW212128   3.484   0.485   0.147 -0.8480 -0.6580 -1.2464
  757SOL     OW12129   1.936   7.966   1.010 -0.1958 -0.0750  0.1524
  757SOL    HW112130   1.873   7.898   0.972  0.9135 -2.3033  2.1251
  757SOL    HW212131   2.001   7.995   0.940  0.0081 -1.8943 -0.4302
  758SOL     OW12132   2.161   0.139   1.705 -0.2425  0.0620  0.6881
  758SOL    HW112133   2.078   0.115   1.754  0.0757 -1.3632  0.5285
  758SOL    HW212134   2.187   0.065   1.644  1.5798  0.1853  1.2995
  759SOL     OW12135   2.270   7.361   1.263  0.1585 -0.0451  0.0311
  759SOL    HW112136   2.241   7.265   1.265  1.5247 -0.5246 -1.9487
  759SOL    HW212137   2.321   7.382   1.346  0.7392 -1.3166  0.0124
  760SOL     OW12138   2.451   4.812   1.160  0.2451 -0.3953  0.2039
  760SOL    HW112139   2.484   4.882   1.223 -1.2621  1.8426 -1.3698
  760SOL    HW212140   2.467   4.721   1.198  1.2735  0.8351  2.8067
  761SOL     OW12141   2.040   1.989   0.961  0.3301 -0.0048 -0.2221
  761SOL    HW112142   2.112   1.920   0.968  0.2301 -0.1313 -0.4237
  761SOL    HW212143   2.072   2.075   1.002  0.4106 -0.2024  0.1305
  762SOL     OW12144   3.987   5.303   2.589 -0.4513 -0.2032 -0.3330
  762SOL    HW112145   3.915   5.358   2.548 -0.2963  0.1723 -0.1084
  762SOL    HW212146   3.960   5.206   2.589 -0.9574 -0.0628 -0.2317
  763SOL     OW12147   2.398   9.095   2.247  0.6712  0.5770  0.3424
  763SOL    HW112148   2.302   9.084   2.273  0.8594 -2.0178  0.0573
  763SOL    HW212149   2.441   9.005   2.238  3.2519  1.7002  0.8734
  764SOL     OW12150   2.808   8.293   1.673  0.6072 -0.2316  0.1370
  764SOL    HW112151   2.739   8.286   1.601 -0.7157  0.3411  1.3220
  764SOL    HW212152   2.895   8.320   1.633  0.6687 -2.9126 -1.6701
  765SOL     OW12153   2.989   8.714   2.649  0.0367  0.3178  0.0883
  765SOL    HW112154   3.048   8.783   2.691 -0.8909  1.6712 -0.7957
  765SOL    HW212155   3.037   8.671   2.573  0.5965  0.0248  0.6035
  766SOL     OW12156   3.862   2.310   1.139 -0.8745  0.5503 -0.2910
  766SOL    HW112157   3.808   2.295   1.056 -1.2424  0.2066  0.0081
  766SOL    HW212158   3.875   2.223   1.186 -1.7434  0.9407  0.6735
  767SOL     OW12159   5.024   2.879   0.587  0.1222  0.6019  0.6455
  767SOL    HW112160   5.007   2.883   0.685  1.0720  0.7713  0.8017
  767SOL    HW212161   5.087   2.952   0.560  0.2268  0.2761 -0.0115
  768SOL     OW12162   2.729   9.115   1.589 -0.6931  0.9824  0.7789
  768SOL    HW112163   2.730   9.038   1.525 -1.1243  1.5608  0.0610
  768SOL    HW212164   2.671   9.093   1.667  0.8213 -0.2154  1.5984
  769SOL     OW12165   3.408   2.568   0.648 -0.1228  0.3563  0.1606
  769SOL    HW112166   3.367   2.480   0.623  1.2739  0.0326 -1.0746
  769SOL    HW212167   3.470   2.597   0.575  0.0219  1.9909  0.9235
  770SOL     OW12168   3.313   5.765   2.456  0.0619 -0.1663  0.0804
  770SOL    HW112169   3.286   5.807   2.543  2.5368  2.1605 -0.2177
  770SOL    HW212170   3.356   5.676   2.473 -1.2883 -0.6479  1.0514
  771SOL     OW12171   4.387   1.979   0.859 -0.0791  0.5497 -0.4664
  771SOL    HW112172   4.479   2.012   0.880 -0.7592  1.6200  0.9132
  771SOL    HW212173   4.338   2.048   0.807 -0.6164  0.6288  0.1391
  772SOL     OW12174   2.578   3.015   0.439 -0.1895  0.2100 -0.2408
  772SOL    HW112175   2.603   2.939   0.379 -0.1385  1.1538 -1.4259
  772SOL    HW212176   2.602   2.992   0.533 -0.9722 -1.5956 -0.4550
  773SOL     OW12177   2.866   8.636   2.089 -0.3727  0.4952 -0.4356
  773SOL    HW112178   2.921   8.552   2.096  0.9275  1.3950  0.4361
  773SOL    HW212179   2.836   8.648   1.994 -0.6157 -0.9753 -0.5612
  774SOL     OW12180   1.950   7.596   0.693  0.0019  0.4635 -0.7418
  774SOL    HW112181   1.951   7.500   0.723  0.1968  0.4744 -0.7150
  774SOL    HW212182   2.044   7.629   0.684  0.0058 -0.1611 -3.4087
  775SOL     OW12183   2.571   8.851   2.290  0.3398  0.3985  0.2671
  775SOL    HW112184   2.665   8.823   2.312  0.5794  2.6615  2.3723
  775SOL    HW212185   2.512   8.832   2.368 -0.6750  0.2997 -0.5224
  776SOL     OW12186   3.501   3.089   0.570  0.7716 -0.2607  0.8845
  776SOL    HW112187   3.445   3.006   0.573  1.2116 -0.6903 -1.8567
  776SOL    HW212188   3.443   3.169   0.587 -0.7252 -0.7102 -1.8143
  777SOL     OW12189   2.060   6.694   1.483  0.2444 -0.4891  0.2720
  777SOL    HW112190   2.025   6.648   1.564 -0.5089  0.3298  0.4232
  777SOL    HW212191   2.160   6.698   1.487  0.1606  0.7323  1.8364
  778SOL     OW12192   2.888   6.380   0.881 -0.2351 -0.0811 -0.2423
  778SOL    HW112193   2.849   6.358   0.792 -0.7661  1.7079 -0.4587
  778SOL    HW212194   2.865   6.307   0.946  1.8365 -2.3987 -2.0046
  779SOL     OW12195   3.031   7.789   0.916  0.2216  0.1261 -0.2144
  779SOL    HW112196   3.128   7.793   0.894 -0.0595  1.3468 -1.3285
  779SOL    HW212197   2.982   7.748   0.839 -0.1737 -0.1948  0.2119
  780SOL     OW12198   2.227   0.793   0.720 -0.2882 -0.2351 -0.6635
  780SOL    HW112199   2.289   0.802   0.798  0.7340  0.0288 -1.4966
  780SOL    HW212200   2.279   0.796   0.635 -1.3902 -0.5349 -1.3673
  781SOL     OW12201   2.664   2.996   1.746 -0.3153 -0.1140  0.3397
  781SOL    HW112202   2.633   2.967   1.837  0.5433 -2.5721 -0.1110
  781SOL    HW212203   2.612   2.947   1.676  0.3558  0.3227 -0.4772
  782SOL     OW12204   1.839   7.046   1.538 -0.0009 -0.2828 -0.5398
  782SOL    HW112205   1.820   7.004   1.627  0.2040  1.5185  0.3717
  782SOL    HW212206   1.904   7.121   1.550 -0.2514  0.2076 -2.1611
  783SOL     OW12207   2.406   4.325   2.594  0.6646 -0.0962 -0.2013
  783SOL    HW112208   2.477   4.328   2.664  0.4729 -2.0133  0.0970
  783SOL    HW212209   2.363   4.235   2.594 -2.3732  1.3162  0.1956
  784SOL     OW12210   1.979   6.920   1.348  0.2783 -0.5322  0.3437
  784SOL    HW112211   2.009   6.833   1.389  2.5834  1.0301  2.1397
  784SOL    HW212212   1.912   6.963   1.408  1.4884  0.3898  1.0545
  785SOL     OW12213   1.826   0.487   1.321  0.2527 -0.7734 -0.2477
  785SOL    HW112214   1.799   0.577   1.355  3.1459  0.3554 -0.8299
  785SOL    HW212215   1.888   0.444   1.387 -0.0022 -1.7541 -0.6445
  786SOL     OW12216   3.929   8.642   0.014 -0.3669 -0.2246 -0.3986
  786SOL    HW112217   3.883   8.578  -0.048 -1.1383  0.4574 -0.5378
  786SOL    HW212218   3.987   8.591   0.078 -1.6919 -1.1269  0.1049
  787SOL     OW12219   2.691   8.178   2.521  0.3368 -0.4762  0.3762
  787SOL    HW112220   2.638   8.158   2.603 -0.1064 -0.2397  0.1458
  787SOL    HW212221   2.767   8.239   2.545  0.3645 -0.6221  0.6597
  788SOL     OW12222   2.804   2.541   1.224 -0.3353 -0.0086  0.1967
  788SOL    HW112223   2.735   2.598   1.179 -0.4208  0.7517  1.2627
  788SOL    HW212224   2.782   2.533   1.322 -0.3834 -1.9641  0.0409
  789SOL     OW12225   3.861   0.648   0.563 -0.8833  0.1581  0.1514
  789SOL    HW112226   3.767   0.677   0.580 -0.7065  0.4231  0.7078
  789SOL    HW212227   3.911   0.720   0.516 -0.7904  0.2655  0.4111
  790SOL     OW12228   4.770   2.255   0.017  0.3139 -0.1622  0.3318
  790SOL    HW112229   4.824   2.229  -0.063  0.0323  0.2300  0.0117
  790SOL    HW212230   4.731   2.173   0.059  0.3057 -0.3531 -0.0449
  791SOL     OW12231   2.293   7.815   1.667  0.1170  0.3358 -0.8626
  791SOL    HW112232   2.332   7.839   1.756  0.7588  0.6945 -1.2328
  791SOL    HW212233   2.203   7.773   1.680  2.1236 -3.9256  0.2914
  792SOL     OW12234   2.855   8.295   1.952 -0.0093  0.2474  0.2667
  792SOL    HW112235   2.920   8.220   1.946  0.4875  0.7392 -0.6728
  792SOL    HW212236   2.824   8.319   1.860 -1.9006 -0.3069  0.7290
  793SOL     OW12237   4.808   4.121   0.493 -0.1823 -0.0840  0.1368
  793SOL    HW112238   4.713   4.101   0.468 -0.1028  0.8470 -0.9468
  793SOL    HW212239   4.827   4.218   0.478  0.8667 -0.2083  0.6044
  794SOL     OW12240   2.172   5.600   1.320 -0.8785  0.0162 -0.3830
  794SOL    HW112241   2.119   5.638   1.243 -0.8664  0.6135 -0.0998
  794SOL    HW212242   2.267   5.590   1.292 -0.4297  2.3160  0.2567
  795SOL     OW12243   2.438   2.773   0.690 -0.2010  0.2937 -0.3810
  795SOL    HW112244   2.474   2.748   0.600  1.0939  0.9287 -0.0467
  795SOL    HW212245   2.362   2.838   0.678  0.1539  0.6002 -1.0051
  796SOL     OW12246   3.972   2.054   2.433  0.7870 -0.0196 -0.2244
  796SOL    HW112247   3.989   2.148   2.462  1.1805  0.0990 -0.8394
  796SOL    HW212248   3.967   1.995   2.514 -0.8653  0.7517  0.2716
  797SOL     OW12249   2.806   4.339   1.746  0.1689  0.1062 -0.2975
  797SOL    HW112250   2.793   4.403   1.671  1.5328 -0.8086 -1.3242
  797SOL    HW212251   2.749   4.366   1.823 -0.1008  1.9109 -1.1230
  798SOL     OW12252   4.365   4.706   0.076  0.4393 -0.0720 -0.3934
  798SOL    HW112253   4.458   4.695   0.111  0.0721 -2.0565  0.0208
  798SOL    HW212254   4.362   4.783   0.013  2.4316 -0.1686 -0.6330
  799SOL     OW12255   2.837   8.789   2.314  0.7158 -0.0987 -0.0880
  799SOL    HW112256   2.840   8.736   2.229  0.4191 -0.7227  0.2883
  799SOL    HW212257   2.885   8.875   2.300  0.7990 -0.2572 -0.8481
  800SOL     OW12258   2.998   7.777   1.445  0.6160 -0.0279  0.2190
  800SOL    HW112259   3.059   7.734   1.378  2.1511  0.4726  1.2777
  800SOL    HW212260   2.937   7.840   1.397  1.1242 -0.3027 -0.8193
  801SOL     OW12261   2.268   7.365   0.182  0.3881 -0.2915  0.1537
  801SOL    HW112262   2.225   7.415   0.257  0.9473  0.1182  0.1973
  801SOL    HW212263   2.197   7.330   0.121  0.0653  2.3850 -1.0667
  802SOL     OW12264   1.980   9.491   2.208  0.6463 -0.1630  0.2293
  802SOL    HW112265   1.911   9.434   2.164 -1.5087  1.3039  1.5923
  802SOL    HW212266   2.037   9.535   2.139 -1.5601  0.7407 -1.0854
  803SOL     OW12267   2.217   1.779   0.940  0.1437 -0.8884  0.4219
  803SOL    HW112268   2.168   1.694   0.959  2.3696 -2.3674 -0.1963
  803SOL    HW212269   2.289   1.791   1.008  0.0577  0.3522  0.3023
  804SOL     OW12270   4.227   3.432   0.112  0.3269 -0.2096  0.1806
  804SOL    HW112271   4.228   3.343   0.156  2.5921 -1.6714 -2.6466
  804SOL    HW212272   4.179   3.426   0.024 -0.3507  1.5819  0.4000
  805SOL     OW12273   2.054   1.987   1.821 -0.2613  0.4068 -0.3647
  805SOL    HW112274   1.977   1.958   1.765  0.6764 -0.2522 -1.3251
  805SOL    HW212275   2.034   1.971   1.917 -0.6435 -1.3469 -0.7363
  806SOL     OW12276   1.701   6.969   2.404  0.2286  0.3955  0.0976
  806SOL    HW112277   1.776   6.905   2.418  0.7666  0.7359 -1.1795
  806SOL    HW212278   1.616   6.917   2.389  0.0949  0.0140  1.9442
  807SOL     OW12279   3.494   0.824   1.689  0.0664 -0.4059 -0.6768
  807SOL    HW112280   3.396   0.847   1.682  0.0314 -0.2382  0.2922
  807SOL    HW212281   3.512   0.741   1.637 -0.3954  0.1260 -1.7115
  808SOL     OW12282   4.856   2.704   0.874 -0.0181 -0.0382  0.1873
  808SOL    HW112283   4.933   2.641   0.870 -0.8693 -1.0340 -0.7767
  808SOL    HW212284   4.771   2.655   0.855 -0.6838  1.4372 -0.7493
  809SOL     OW12285   4.015   5.237   1.681  0.3923 -0.2283  0.2815
  809SOL    HW112286   3.986   5.166   1.746  0.4681  0.2683  0.8612
  809SOL    HW212287   3.935   5.284   1.645  0.2968 -1.0849 -0.6577
  810SOL     OW12288   2.636   8.613   1.009  0.3758  0.3934 -0.1336
  810SOL    HW112289   2.663   8.519   1.026 -1.1280  0.0090  0.2195
  810SOL    HW212290   2.624   8.661   1.096  0.6792  0.7722 -0.2998
  811SOL     OW12291   2.179   5.750   1.549  0.0774 -0.4913 -0.1312
  811SOL    HW112292   2.168   5.674   1.485 -1.3948  0.7650 -1.4272
  811SOL    HW212293   2.262   5.736   1.603  1.4181 -1.5797 -2.3653
  812SOL     OW12294   3.731   3.222   2.370  0.0242  0.4734  0.2132
  812SOL    HW112295   3.651   3.234   2.427 -0.3623  1.4741 -0.5340
  812SOL    HW212296   3.703   3.188   2.280  0.7311 -2.3343  0.9748
  813SOL     OW12297   3.463   1.723   0.703  0.2984  0.1211 -0.2809
  813SOL    HW112298   3.451   1.624   0.696 -0.7141 -0.0242  2.8115
  813SOL    HW212299   3.558   1.747   0.684  0.5053 -1.3951 -1.2652
  814SOL     OW12300   1.969   0.430   1.744 -0.3203  0.1453  0.1170
  814SOL    HW112301   1.877   0.448   1.708 -0.0748  0.8338 -0.1583
  814SOL    HW212302   2.021   0.378   1.676  0.4582  2.2567 -0.9366
  815SOL     OW12303   3.928   8.700   0.486 -0.3094  0.0131 -0.8195
  815SOL    HW112304   3.979   8.766   0.540  0.4810 -0.8380 -0.5224
  815SOL    HW212305   3.847   8.744   0.447 -1.1662  0.4978  1.4547
  816SOL     OW12306   3.559   1.843   2.384  0.2393  0.1385 -0.3380
  816SOL    HW112307   3.614   1.918   2.421  0.5614  0.1474 -0.8174
  816SOL    HW212308   3.486   1.820   2.448 -1.3177  2.4469 -1.2026
  817SOL     OW12309   2.987   8.161   0.242  0.5638 -0.1287  1.2462
  817SOL    HW112310   2.944   8.243   0.279  0.6779  1.0663 -1.1512
  817SOL    HW212311   3.063   8.188   0.182  0.4790 -1.9576  0.2762
  818SOL     OW12312   3.320   1.183   0.432  0.3796 -0.2026  0.1555
  818SOL    HW112313   3.293   1.087   0.420  0.7248 -0.2693 -0.1034
  818SOL    HW212314   3.347   1.221   0.343 -1.1604  0.5659 -0.0082
  819SOL     OW12315   4.337   0.869   1.191  0.4304  0.4417  0.9006
  819SOL    HW112316   4.242   0.839   1.197  0.4756  0.3042  0.9306
  819SOL    HW212317   4.359   0.929   1.267  0.3884  0.4156  0.9329
  820SOL     OW12318   4.601   2.182   0.840  0.1292 -0.2360  0.6420
  820SOL    HW112319   4.695   2.211   0.858  0.2844 -0.4701  0.2319
  820SOL    HW212320   4.539   2.225   0.906  0.2314  1.8497 -0.5618
  821SOL     OW12321   3.235   2.352   0.599 -0.3544  0.3212 -0.1354
  821SOL    HW112322   3.224   2.257   0.570 -0.6108  0.5843 -0.9200
  821SOL    HW212323   3.151   2.402   0.578 -0.0566  0.8197 -0.1382
  822SOL     OW12324   2.317   1.715   0.328  0.1854 -0.1399 -0.2678
  822SOL    HW112325   2.249   1.653   0.367  1.3970 -1.0675  0.3886
  822SOL    HW212326   2.303   1.722   0.229  0.4029 -1.9232 -0.4394
  823SOL     OW12327   3.706   3.376   1.289 -0.5846  0.5152  0.6079
  823SOL    HW112328   3.636   3.362   1.219 -0.6200 -1.8027  1.0580
  823SOL    HW212329   3.664   3.374   1.380 -0.2962  1.7896  0.7788
  824SOL     OW12330   4.537   2.453   0.384  0.0143 -0.2576 -0.0176
  824SOL    HW112331   4.618   2.447   0.326  0.0575  1.6953 -0.2069
  824SOL    HW212332   4.530   2.371   0.441  2.0755 -0.4754 -0.0392
  825SOL     OW12333   3.762   9.082   1.385  0.0200  0.2022  0.4831
  825SOL    HW112334   3.782   9.073   1.288  1.2238 -2.3706  0.9226
  825SOL    HW212335   3.780   9.176   1.415 -0.1085  0.9305 -1.7044
  826SOL     OW12336   2.955   2.260   1.262  0.0899 -0.8874  0.6337
  826SOL    HW112337   3.043   2.277   1.218 -0.4360 -0.7427 -0.3795
  826SOL    HW212338   2.893   2.337   1.244 -0.0684 -0.7209  1.8174
  827SOL     OW12339   3.059   1.143   1.058 -0.1066  0.4251  0.4661
  827SOL    HW112340   3.130   1.167   0.992 -1.3679  0.8827 -0.7750
  827SOL    HW212341   3.019   1.055   1.033 -0.0656  0.2294  1.0824
  828SOL     OW12342   3.444   8.797   0.453  0.6059 -0.2412 -0.5180
  828SOL    HW112343   3.396   8.711   0.441 -0.1408  0.3739 -2.2179
  828SOL    HW212344   3.382   8.866   0.490  1.4097 -0.6261  1.5835
  829SOL     OW12345   2.112   6.280   0.722  0.0691  0.1156 -0.1501
  829SOL    HW112346   2.056   6.353   0.682  1.2027  2.4409  2.3033
  829SOL    HW212347   2.059   6.232   0.792 -0.5634 -1.2362 -1.5279
  830SOL     OW12348   4.619   2.627   1.894  0.2623 -0.0075  0.2829
  830SOL    HW112349   4.637   2.546   1.838 -1.2993  2.3597 -3.7552
  830SOL    HW212350   4.705   2.658   1.935  1.1256 -2.8005  0.6935
  831SOL     OW12351   2.704   2.609   2.572  0.5246 -0.2409 -0.2706
  831SOL    HW112352   2.715   2.621   2.474  2.5059  1.2990  0.1123
  831SOL    HW212353   2.776   2.549   2.607  0.9087  0.6558  0.5066
  832SOL     OW12354   2.890   4.170   2.602 -0.3281  0.3749  0.2314
  832SOL    HW112355   2.963   4.197   2.539 -1.5269  0.5312 -1.1283
  832SOL    HW212356   2.921   4.180   2.696  0.2218  3.9288 -0.2468
  833SOL     OW12357   2.122   3.409   2.467 -0.0768 -0.3586  0.4666
  833SOL    HW112358   2.146   3.506   2.471 -0.4261 -0.3154  1.9418
  833SOL    HW212359   2.199   3.358   2.431  0.7605  0.2714  1.3229
  834SOL     OW12360   3.682   4.026   0.812  0.3811  0.3402 -0.7594
  834SOL    HW112361   3.771   4.001   0.774  1.2676  0.5373  1.1489
  834SOL    HW212362   3.623   3.945   0.812  1.4310 -0.4511  0.3534
  835SOL     OW12363   2.364   3.288   2.403  0.1079 -0.4123 -0.0108
  835SOL    HW112364   2.402   3.196   2.394 -0.4400 -0.7964  1.5275
  835SOL    HW212365   2.437   3.352   2.425  0.3175 -0.6695  0.0488
  836SOL     OW12366   3.246   3.220   0.005  0.0330 -0.5323 -0.3311
  836SOL    HW112367   3.245   3.212   0.105 -2.5809  1.5034 -0.1186
  836SOL    HW212368   3.151   3.226  -0.028  0.9165  1.2532 -2.6859
  837SOL     OW12369   2.523   1.933   1.801  0.2051  0.2561  0.0914
  837SOL    HW112370   2.428   1.965   1.792  0.0145  0.0272  1.2977
  837SOL    HW212371   2.585   2.011   1.791 -0.1465  0.5542  0.1968
  838SOL     OW12372   3.214   9.648   0.040 -0.3255 -0.2707  0.4666
  838SOL    HW112373   3.245   9.607   0.126  0.6163 -2.4375 -0.8540
  838SOL    HW212374   3.218   9.579  -0.033  0.2109  1.8947 -1.6098
  839SOL     OW12375   2.191   8.432   1.841 -0.3832 -0.1329 -0.2193
  839SOL    HW112376   2.204   8.531   1.833  0.8067 -0.2912 -0.4020
  839SOL    HW212377   2.200   8.405   1.937 -3.1647  0.2485  0.1743
  840SOL     OW12378   3.384   3.455   0.875 -0.1780 -0.8511  0.1946
  840SOL    HW112379   3.401   3.416   0.784  0.8987 -2.4850  1.0670
  840SOL    HW212380   3.286   3.469   0.887 -0.3196 -0.4217 -1.2931
  841SOL     OW12381   4.049   0.921   1.335 -0.0917  0.0817  0.8358
  841SOL    HW112382   3.965   0.935   1.387  0.7885 -1.0471  2.6078
  841SOL    HW212383   4.036   0.847   1.269 -0.5470  0.0435  0.9643
  842SOL     OW12384   2.593   8.022   0.989  0.0715 -0.5718 -0.6354
  842SOL    HW112385   2.509   8.077   0.984  1.5378  1.9072  1.1040
  842SOL    HW212386   2.656   8.051   0.917  1.5664  1.3393  1.3899
  843SOL     OW12387   4.029   2.617   0.910  0.6336 -0.0435  0.0435
  843SOL    HW112388   4.040   2.527   0.869 -2.6275  0.1967 -1.5431
  843SOL    HW212389   3.988   2.607   1.001 -0.0792 -0.1556 -0.2876
  844SOL     OW12390   2.802   0.763   0.386  0.1208  0.1842  0.0694
  844SOL    HW112391   2.777   0.856   0.360  2.3451  1.2764  1.6457
  844SOL    HW212392   2.814   0.707   0.304  1.0967  1.9170 -0.9945
  845SOL     OW12393   2.815   2.369   0.929 -0.0854 -0.0818 -0.0236
  845SOL    HW112394   2.760   2.302   0.980 -1.8292  0.4024 -1.2137
  845SOL    HW212395   2.851   2.325   0.846  0.3408 -0.0544  0.1438
  846SOL     OW12396   2.587   5.542   2.243 -0.3620  0.4731  0.4283
  846SOL    HW112397   2.685   5.548   2.223  0.1507  3.8688  3.5319
  846SOL    HW212398   2.570   5.464   2.303  0.5233  0.2686  0.4144
  847SOL     OW12399   3.971   3.577   1.912 -0.1956 -0.1881 -0.3311
  847SOL    HW112400   3.922   3.654   1.871 -0.7110 -0.0116  0.5838
  847SOL    HW212401   3.974   3.589   2.011 -0.6868 -1.5736 -0.1321
  848SOL     OW12402   3.743   8.030   0.310  0.0070  0.4308 -0.3084
  848SOL    HW112403   3.681   8.019   0.388 -1.3754  3.2450 -0.9475
  848SOL    HW212404   3.828   8.073   0.341  0.1741 -0.0677 -0.0648
  849SOL     OW12405   3.231   0.930   0.443 -0.0267  0.0334  1.2526
  849SOL    HW112406   3.247   0.859   0.375 -0.5411  1.5113 -0.4463
  849SOL    HW212407   3.136   0.960   0.440  0.0596  0.4509  2.2909
  850SOL     OW12408   3.742   5.357   2.483 -0.0043  1.0587 -0.0734
  850SOL    HW112409   3.766   5.269   2.441  1.4291  0.7759  1.3050
  850SOL    HW212410   3.674   5.403   2.426 -0.7368 -0.9149 -0.8495
  851SOL     OW12411   2.362   6.828   1.205  0.4585  0.5953 -0.1269
  851SOL    HW112412   2.350   6.761   1.279  0.2355  0.4584 -0.2869
  851SOL    HW212413   2.323   6.916   1.232 -1.2237  0.0635 -0.7820
  852SOL     OW12414   2.773   0.585   1.064  0.7023 -0.1590  0.0816
  852SOL    HW112415   2.853   0.527   1.079  0.5783 -0.3464  0.0190
  852SOL    HW212416   2.794   0.679   1.091  1.3416  0.0408 -1.0969
  853SOL     OW12417   2.958   3.378   1.158 -0.2536  0.6794 -0.3110
  853SOL    HW112418   2.861   3.367   1.177 -0.1754  0.0123 -0.2896
  853SOL    HW212419   2.978   3.347   1.065  0.1149 -0.1728  0.0465
  854SOL     OW12420   3.361   2.542   2.110 -0.1804  0.1471  0.3972
  854SOL    HW112421   3.426   2.551   2.186 -0.0234  1.4361  0.1190
  854SOL    HW212422   3.410   2.544   2.024 -0.5890  1.1873  0.1825
  855SOL     OW12423   2.731   4.425   0.855  0.3325  0.5580  0.2909
  855SOL    HW112424   2.790   4.394   0.930 -0.7265  1.7781  1.6618
  855SOL    HW212425   2.694   4.515   0.877 -0.7565  0.5173 -1.2844
  856SOL     OW12426   3.983   4.797   2.673 -0.8536 -0.3036  0.3020
  856SOL    HW112427   4.011   4.795   2.769 -3.5950 -0.0102  1.1758
  856SOL    HW212428   3.967   4.703   2.641 -2.0534 -0.2878  0.8257
  857SOL     OW12429   3.118   3.529   0.430 -0.4823  0.2712 -0.0345
  857SOL    HW112430   3.159   3.583   0.504  0.3380  0.1973 -0.4236
  857SOL    HW212431   3.067   3.589   0.369 -0.1016  0.5186 -0.1102
  858SOL     OW12432   2.095   7.378   2.291 -0.1223 -0.1320  0.1575
  858SOL    HW112433   2.092   7.457   2.230  2.4327 -1.1174 -1.3533
  858SOL    HW212434   2.131   7.407   2.380 -0.9356  0.7314  0.2181
  859SOL     OW12435   4.033   0.754   1.129 -0.1081 -0.3051 -0.4094
  859SOL    HW112436   3.950   0.703   1.151  1.1525 -2.7696 -1.1898
  859SOL    HW212437   4.062   0.731   1.036  2.2719 -0.6792  0.3920
  860SOL     OW12438   3.101   4.317   2.459 -0.1220 -0.4795 -0.3298
  860SOL    HW112439   3.021   4.350   2.409 -0.2917 -0.7212 -0.2181
  860SOL    HW212440   3.127   4.384   2.529  0.0449 -0.1965 -0.6606
  861SOL     OW12441   1.881   0.941   0.135 -0.0914 -0.4047 -0.4793
  861SOL    HW112442   1.819   0.904   0.205  0.6839  0.8819  0.9235
  861SOL    HW212443   1.972   0.903   0.149  0.3707  0.9008  0.0571
  862SOL     OW12444   3.804   1.992   1.535 -0.0291  0.2057 -0.3429
  862SOL    HW112445   3.840   2.019   1.625 -0.6961 -2.0509  0.6347
  862SOL    HW212446   3.704   2.000   1.536 -0.0471  0.0422 -0.8512
  863SOL     OW12447   3.049   9.686   0.311  0.0012 -0.1204  0.1603
  863SOL    HW112448   3.148   9.689   0.299 -0.0346 -0.8343 -0.3062
  863SOL    HW212449   3.016   9.594   0.293 -0.9108  0.4033 -0.8512
  864SOL     OW12450   1.711   8.254   2.637 -0.0816 -0.0754  0.6617
  864SOL    HW112451   1.792   8.197   2.649 -0.4769 -0.6764  0.5554
  864SOL    HW212452   1.630   8.195   2.634 -0.3552  0.3644 -1.0771
  865SOL     OW12453   4.195   3.271   1.480  0.1039  0.3829 -1.0397
  865SOL    HW112454   4.147   3.330   1.544  0.2844  1.1206 -1.5840
  865SOL    HW212455   4.240   3.197   1.530  2.6269  2.5625 -0.0160
  866SOL     OW12456   1.736   5.865   2.624 -0.3424  0.0921 -0.7074
  866SOL    HW112457   1.755   5.861   2.722  0.4063  0.6705 -0.8314
  866SOL    HW212458   1.773   5.949   2.585 -0.8967  0.0071 -1.4336
  867SOL     OW12459   2.973   7.325   2.396 -0.3034  0.3545  0.3672
  867SOL    HW112460   2.910   7.352   2.469 -1.1737  0.6489 -0.4991
  867SOL    HW212461   2.922   7.303   2.313  0.7039  0.2412 -0.2331
  868SOL     OW12462   2.914   0.119   0.158  0.0313  0.0186 -0.4347
  868SOL    HW112463   2.953   0.027   0.152  0.9127  0.3318  0.4713
  868SOL    HW212464   2.842   0.129   0.088 -2.0705 -2.3106  1.3221
  869SOL     OW12465   3.620   9.818   1.923 -0.0151 -0.1030 -0.1009
  869SOL    HW112466   3.685   9.806   1.997  0.5669  0.7948 -0.4562
  869SOL    HW212467   3.546   9.879   1.952  0.1752  0.1900 -0.2229
  870SOL     OW12468   3.004   4.344   2.000  0.3231 -0.0707 -0.6417
  870SOL    HW112469   3.037   4.404   1.928 -1.7833  0.7041 -1.0029
  870SOL    HW212470   2.989   4.252   1.963  1.1192 -0.1748 -0.7065
  871SOL     OW12471   4.181   1.245   0.273 -0.2530 -0.1513  0.2549
  871SOL    HW112472   4.265   1.246   0.219 -0.0351 -2.2975  0.4975
  871SOL    HW212473   4.140   1.336   0.274 -0.8306 -0.2792 -4.3587
  872SOL     OW12474   2.770   3.712   1.905 -0.1831  1.2429 -0.6713
  872SOL    HW112475   2.754   3.740   1.811 -1.3190 -0.2769 -0.9524
  872SOL    HW212476   2.761   3.613   1.912 -0.5528  1.3897  1.1305
  873SOL     OW12477   1.939   5.881   0.548 -0.3221  0.2943 -0.0709
  873SOL    HW112478   1.918   5.790   0.512  0.4532  0.1178 -0.1039
  873SOL    HW212479   1.861   5.942   0.534 -0.6577 -0.2286 -0.5101
  874SOL     OW12480   2.675   3.411   2.066  0.5743  0.2471  0.7546
  874SOL    HW112481   2.755   3.445   2.115  0.4485  0.0648  1.0841
  874SOL    HW212482   2.702   3.331   2.011  0.1670 -1.1434  2.5283
  875SOL     OW12483   2.737   2.598   0.821  0.8041 -0.1681 -0.4884
  875SOL    HW112484   2.786   2.524   0.867  1.2785  0.5858  0.2251
  875SOL    HW212485   2.758   2.685   0.866 -1.2925  0.1512 -0.0809
  876SOL     OW12486   3.475   3.055   1.888  0.3299 -0.4389  0.2918
  876SOL    HW112487   3.538   3.132   1.888 -1.0654  0.7280  0.2546
  876SOL    HW212488   3.526   2.970   1.873  1.4308  0.8343 -3.6650
  877SOL     OW12489   2.835   8.747   0.437  0.2429  0.1027 -0.7738
  877SOL    HW112490   2.923   8.752   0.391 -0.0459  1.0152 -1.2318
  877SOL    HW212491   2.767   8.798   0.385 -0.6944 -1.0769 -0.7273
  878SOL     OW12492   4.450   4.359   0.097 -0.4574 -0.1084  0.1760
  878SOL    HW112493   4.537   4.337   0.052  0.0086  0.4749  0.7690
  878SOL    HW212494   4.399   4.424   0.041 -0.4213 -0.2972 -0.0782
  879SOL     OW12495   5.428   3.030   0.362 -0.2716  0.4765  0.2195
  879SOL    HW112496   5.408   3.006   0.267  1.2472  0.6852 -0.1608
  879SOL    HW212497   5.465   2.951   0.410 -2.1762  0.0269  0.9839
  880SOL     OW12498   3.788   3.422   0.895  0.1046 -0.2867  0.2542
  880SOL    HW112499   3.848   3.342   0.887  0.8328  0.2834 -0.0106
  880SOL    HW212500   3.715   3.401   0.961  1.2723 -0.5773  1.4988
  881SOL     OW12501   4.045   3.341   0.642  0.2586  0.4400  0.3665
  881SOL    HW112502   4.141   3.341   0.670  0.0793  1.1844  1.0117
  881SOL    HW212503   4.004   3.430   0.664 -0.1863  0.6537 -1.2842
  882SOL     OW12504   2.008   7.823   1.234 -0.0275  0.6259 -0.0533
  882SOL    HW112505   1.983   7.848   1.141  0.7024  1.2381 -0.0964
  882SOL    HW212506   2.094   7.772   1.233  0.0630  0.7673  0.2971
  883SOL     OW12507   2.808   8.224   0.634 -0.1769  0.1922  0.1369
  883SOL    HW112508   2.818   8.267   0.544 -1.2569 -1.4126 -0.7803
  883SOL    HW212509   2.878   8.154   0.646 -0.4814 -0.1023  0.2251
  884SOL     OW12510   3.303   5.654   0.186  0.3316 -0.3951  0.2252
  884SOL    HW112511   3.370   5.662   0.261  1.4941  0.6238 -0.8943
  884SOL    HW212512   3.326   5.576   0.129  0.1180 -0.4895  0.2674
  885SOL     OW12513   4.213   2.039   1.832  0.1422  0.1797  0.3180
  885SOL    HW112514   4.296   2.053   1.778  0.1346 -1.4660 -0.1532
  885SOL    HW212515   4.225   2.080   1.923  1.3210  0.3016  0.1149
  886SOL     OW12516   2.797   3.808   2.154 -0.0829  0.0162  0.6257
  886SOL    HW112517   2.816   3.758   2.070 -0.9979 -0.5509  0.7536
  886SOL    HW212518   2.883   3.825   2.202  0.6383  1.9261 -1.2861
  887SOL     OW12519   2.849   3.445   1.786  0.4726 -0.0511  0.1626
  887SOL    HW112520   2.833   3.351   1.817 -0.8311  0.3980  0.8724
  887SOL    HW212521   2.798   3.461   1.701 -0.5671  0.4827  0.8732
  888SOL     OW12522   2.797   6.231   2.240  0.0205  0.3191  0.3742
  888SOL    HW112523   2.781   6.308   2.177  1.0563  1.6123  1.6715
  888SOL    HW212524   2.895   6.216   2.250 -0.1372  0.1712  1.7392
  889SOL     OW12525   3.182   0.534   1.194 -0.1774 -0.1718 -0.0195
  889SOL    HW112526   3.136   0.529   1.106 -0.3385  2.3108 -0.0885
  889SOL    HW212527   3.167   0.448   1.244 -0.9227 -1.2025 -1.9534
  890SOL     OW12528   3.380   5.404   0.108 -0.1025  0.5148  0.3645
  890SOL    HW112529   3.360   5.308   0.085 -1.5475  0.4473  1.9057
  890SOL    HW212530   3.474   5.424   0.080 -0.0240 -1.1235 -0.6844
  891SOL     OW12531   3.686   8.864   2.132  0.1292 -0.0604  0.1302
  891SOL    HW112532   3.727   8.784   2.174  2.8481  0.5361 -1.2617
  891SOL    HW212533   3.707   8.945   2.187  3.6309  0.7086 -2.1567
  892SOL     OW12534   4.212   3.226   0.293  0.0100 -0.1416  0.4854
  892SOL    HW112535   4.283   3.268   0.349 -0.0151 -0.1970  0.5585
  892SOL    HW212536   4.213   3.126   0.307  0.7968 -0.2778 -0.5180
  893SOL     OW12537   2.975   0.582   0.763 -0.0623  0.0784 -0.2401
  893SOL    HW112538   3.028   0.528   0.698 -1.3278 -1.1268 -0.2997
  893SOL    HW212539   2.878   0.572   0.742 -0.3791  1.1594  0.7033
  894SOL     OW12540   2.253   9.102   0.854  0.7683  0.5847  0.1562
  894SOL    HW112541   2.266   9.093   0.953  1.2396  0.1416  0.0541
  894SOL    HW212542   2.340   9.088   0.807  0.4515  0.3123 -0.3542
  895SOL     OW12543   3.173   0.784   1.904 -0.3371  0.0365  0.0442
  895SOL    HW112544   3.220   0.700   1.878 -0.2138  0.4073 -0.9370
  895SOL    HW212545   3.088   0.761   1.952  0.1466 -0.6374  0.5991
  896SOL     OW12546   4.697   2.066   0.538  0.4875 -0.4387  0.4728
  896SOL    HW112547   4.675   2.017   0.623  0.7630 -1.7584 -0.1994
  896SOL    HW212548   4.619   2.060   0.476  0.4924  0.0492  0.4227
  897SOL     OW12549   2.826   0.837   1.213  0.3962 -0.6728  0.2166
  897SOL    HW112550   2.910   0.790   1.242  1.6622  0.8120 -0.9707
  897SOL    HW212551   2.770   0.859   1.293  1.4854 -1.0326  1.0798
  898SOL     OW12552   2.523   5.847   1.913  0.2800  0.0390  0.5071
  898SOL    HW112553   2.517   5.750   1.938 -0.5706  0.5349  2.2914
  898SOL    HW212554   2.617   5.879   1.921  0.6396 -0.7463 -0.5182
  899SOL     OW12555   4.494   2.120   0.354 -0.0132  0.5914  0.4140
  899SOL    HW112556   4.552   2.101   0.275  0.3556  0.2187  0.7693
  899SOL    HW212557   4.398   2.102   0.330  0.2733 -1.1598  0.5631
  900SOL     OW12558   2.770   2.536   1.496  0.3045 -0.2260 -0.2063
  900SOL    HW112559   2.756   2.439   1.516  2.4434 -0.7391 -0.9877
  900SOL    HW212560   2.705   2.591   1.548 -0.2780 -2.0205  1.0118
  901SOL     OW12561   4.793   3.694   0.584 -0.1596  0.1180 -0.1877
  901SOL    HW112562   4.729   3.714   0.658 -1.7146  1.9944 -1.9742
  901SOL    HW212563   4.862   3.767   0.578  1.0195 -0.9174  0.5025
  902SOL     OW12564   3.259   1.038   1.553 -0.1049 -0.7455  0.5558
  902SOL    HW112565   3.345   1.085   1.535  0.5821 -2.2440 -0.2619
  902SOL    HW212566   3.193   1.058   1.481  0.6343 -2.0462 -0.5046
  903SOL     OW12567   3.099   8.685   0.788 -0.2029  0.1036  0.0261
  903SOL    HW112568   3.120   8.729   0.700  0.3329  0.2763  0.2374
  903SOL    HW212569   3.089   8.756   0.858  1.1978 -0.1332  0.4805
  904SOL     OW12570   2.917   0.264   1.330 -0.2894 -0.5723  0.2961
  904SOL    HW112571   2.972   0.321   1.392  1.2072 -0.7669 -0.8324
  904SOL    HW212572   2.820   0.281   1.348  0.1180  0.3320  1.8086
  905SOL     OW12573   4.264   1.225   2.565 -0.1557 -0.2621  0.1569
  905SOL    HW112574   4.286   1.173   2.483 -0.4522 -1.9956  1.1671
  905SOL    HW212575   4.165   1.238   2.570 -0.1243 -0.0241  0.1663
  906SOL     OW12576   4.939   2.474   0.558 -0.3470 -0.1720  0.1054
  906SOL    HW112577   4.922   2.381   0.526 -1.0016  0.3876 -1.2033
  906SOL    HW212578   4.985   2.471   0.647  0.0409 -1.7392 -0.1387
  907SOL     OW12579   3.929   2.551   2.261  0.4393 -0.3807  0.3139
  907SOL    HW112580   3.943   2.616   2.335  2.9453 -1.4084  0.7849
  907SOL    HW212581   3.902   2.462   2.300  0.1665 -0.4884 -0.1173
  908SOL     OW12582   3.502   1.986   1.063  0.3695  0.7378 -0.1074
  908SOL    HW112583   3.474   1.989   0.967  2.6423 -0.6489 -0.8735
  908SOL    HW212584   3.425   1.960   1.120 -0.8258  0.8451 -1.6472
  909SOL     OW12585   2.231   7.621   2.222 -0.2005 -0.3274  0.5372
  909SOL    HW112586   2.223   7.716   2.251 -2.1755 -0.0324 -0.9067
  909SOL    HW212587   2.327   7.600   2.203  0.0707  1.8240 -0.6292
  910SOL     OW12588   5.037   2.480   1.438  0.0262  0.1989  0.1210
  910SOL    HW112589   5.080   2.556   1.390  0.0117  0.8243  1.0757
  910SOL    HW212590   5.001   2.414   1.372  0.6035  0.7071 -0.7034
  911SOL     OW12591   5.253   3.381   1.203  0.4137  0.0198  0.2696
  911SOL    HW112592   5.274   3.459   1.144 -1.1919 -0.5171 -1.0406
  911SOL    HW212593   5.213   3.414   1.289 -0.5791  0.6336 -0.4167
  912SOL     OW12594   2.834   3.144   0.390  0.4612  0.9784  0.4703
  912SOL    HW112595   2.744   3.141   0.434  0.2027  0.8964 -0.0632
  912SOL    HW212596   2.896   3.082   0.438  0.4931  1.7269  1.4034
  913SOL     OW12597   2.557   4.827   0.828  0.2989  0.5931 -0.2271
  913SOL    HW112598   2.608   4.771   0.893  0.3880  0.8137 -0.1054
  913SOL    HW212599   2.459   4.820   0.846  0.3704  1.2611  0.4207
  914SOL     OW12600   2.349   0.756   0.464 -0.1079 -0.6002  0.2623
  914SOL    HW112601   2.369   0.811   0.383 -1.4099 -0.2726  0.1407
  914SOL    HW212602   2.433   0.714   0.498  0.4474 -0.7714 -1.2706
  915SOL     OW12603   4.242   0.857   1.527  0.0925 -0.2103 -0.0582
  915SOL    HW112604   4.318   0.911   1.563 -2.1302  2.4191  0.9351
  915SOL    HW212605   4.201   0.906   1.450 -1.8611 -0.5648  0.7301
  916SOL     OW12606   4.024   9.150   0.372  0.7868  0.0913  0.4937
  916SOL    HW112607   3.933   9.112   0.358  0.5880  0.4136  0.8962
  916SOL    HW212608   4.051   9.136   0.467  1.0162  0.3031  0.4595
  917SOL     OW12609   2.091   5.384   0.396 -1.1005 -0.2983  0.0940
  917SOL    HW112610   2.061   5.369   0.490  0.3171  2.5267  1.0706
  917SOL    HW212611   2.015   5.370   0.333 -1.8511 -3.0953  1.5396
  918SOL     OW12612   3.019   9.931   0.759 -0.3192  0.5001 -0.0262
  918SOL    HW112613   3.009   9.854   0.696  0.6153  0.1469  0.2548
  918SOL    HW212614   2.994   9.903   0.851  0.4633  0.3912  0.1624
  919SOL     OW12615   3.227   8.630   2.107 -0.0788  0.3544 -0.5553
  919SOL    HW112616   3.324   8.617   2.086 -0.2568 -1.6306 -0.2862
  919SOL    HW212617   3.179   8.543   2.094 -1.6149  1.0507  0.4094
  920SOL     OW12618   2.514   8.501   2.578 -0.5037  0.2997 -0.1054
  920SOL    HW112619   2.486   8.411   2.547 -2.2337 -0.1516  2.5433
  920SOL    HW212620   2.490   8.570   2.509 -1.2553 -1.0051 -1.1607
  921SOL     OW12621   4.739   2.886   1.224 -0.0978 -0.4067  0.1258
  921SOL    HW112622   4.717   2.970   1.173  3.0032 -0.5983 -1.6635
  921SOL    HW212623   4.720   2.900   1.321 -0.7255  1.9811 -0.3084
  922SOL     OW12624   3.963   3.604   0.628  0.4303  0.3296  0.3044
  922SOL    HW112625   3.880   3.634   0.674  0.4216 -1.2284  1.3602
  922SOL    HW212626   4.040   3.661   0.657 -0.0296  0.9486  0.3183
  923SOL     OW12627   4.665   2.438   2.543 -0.0141  0.0882 -0.1993
  923SOL    HW112628   4.738   2.462   2.479 -1.4881 -0.9262 -2.2970
  923SOL    HW212629   4.701   2.374   2.612  1.5829  1.2111  0.0464
  924SOL     OW12630   4.027   2.935   0.259  0.0912 -0.2007  0.4543
  924SOL    HW112631   3.978   2.950   0.345 -0.3992  0.4236  0.0662
  924SOL    HW212632   4.125   2.927   0.277 -0.1495 -1.5543  1.2506
  925SOL     OW12633   1.941   9.460   0.321  0.0772 -0.1630  0.5233
  925SOL    HW112634   1.845   9.486   0.313  0.7461  1.8061 -2.4100
  925SOL    HW212635   1.961   9.385   0.258  0.5474 -0.2105  0.7243
  926SOL     OW12636   1.779   7.454   2.162 -0.3627 -0.3214  0.6831
  926SOL    HW112637   1.732   7.369   2.185 -1.4560  0.3598  0.9890
  926SOL    HW212638   1.793   7.459   2.063 -0.9883 -0.4833  0.5894
  927SOL     OW12639   3.968   3.291   1.270 -0.2386  0.0921 -0.0727
  927SOL    HW112640   4.028   3.286   1.350  0.5857  0.0532 -0.6919
  927SOL    HW212641   3.878   3.325   1.298  0.4772  1.4555  0.6348
  928SOL     OW12642   1.880   5.620   2.523  0.3034  0.0419  0.2757
  928SOL    HW112643   1.871   5.610   2.424  1.3082 -0.8944  0.2712
  928SOL    HW212644   1.836   5.705   2.552  0.7625  0.7645 -1.0925
  929SOL     OW12645   4.232   4.821   0.293 -0.4826  0.3232 -0.9201
  929SOL    HW112646   4.308   4.825   0.358 -1.0914 -1.6370 -0.0461
  929SOL    HW212647   4.264   4.784   0.206 -0.2831  0.1671 -0.7802
  930SOL     OW12648   4.671   4.016   0.804 -0.6707  0.2721  0.5800
  930SOL    HW112649   4.604   4.064   0.861 -2.9487 -1.4730 -0.5080
  930SOL    HW212650   4.728   4.083   0.757 -1.9561  1.8432  1.1695
  931SOL     OW12651   3.502   0.269   2.106 -0.1690 -0.4599 -0.1263
  931SOL    HW112652   3.425   0.237   2.050  0.1986 -1.0777 -0.2723
  931SOL    HW212653   3.521   0.203   2.178 -0.5681  0.2837  0.6720
  932SOL     OW12654   2.409   8.334   0.532  0.2724 -0.6503 -0.3459
  932SOL    HW112655   2.428   8.282   0.616  0.9499 -0.3404 -0.3036
  932SOL    HW212656   2.455   8.422   0.537 -2.8187  0.9832  0.6443
  933SOL     OW12657   3.766   4.820   0.870 -0.1647  0.0886  0.4705
  933SOL    HW112658   3.807   4.821   0.779 -0.3948  0.5920  0.3709
  933SOL    HW212659   3.673   4.782   0.865  0.5094 -1.6608  0.7972
  934SOL     OW12660   2.261   5.863   0.392  0.2788 -0.3560 -0.2934
  934SOL    HW112661   2.275   5.837   0.488  0.4748  0.1284 -0.1860
  934SOL    HW212662   2.163   5.867   0.372  0.2492 -1.1502 -0.3070
  935SOL     OW12663   4.674   1.911   1.077 -0.9704 -0.4523 -0.3333
  935SOL    HW112664   4.734   1.865   1.012 -1.0320  0.3173 -0.9391
  935SOL    HW212665   4.724   1.985   1.123 -1.8699  1.2102 -1.9703
  936SOL     OW12666   3.469   2.809   0.400 -0.0924  0.3302 -0.4093
  936SOL    HW112667   3.528   2.885   0.372  0.7858 -0.7459 -1.5669
  936SOL    HW212668   3.393   2.800   0.335 -0.8577  0.9282  0.3804
  937SOL     OW12669   3.408   3.955   0.301  0.0185 -0.4161  0.2163
  937SOL    HW112670   3.503   3.982   0.284 -0.2980 -0.9815 -2.6128
  937SOL    HW212671   3.404   3.855   0.312 -0.3364 -0.4457 -0.1979
  938SOL     OW12672   2.185   7.832   2.425  0.2890  0.3179 -0.5167
  938SOL    HW112673   2.261   7.864   2.481 -0.7281  2.6153 -0.3914
  938SOL    HW212674   2.116   7.904   2.419 -0.5752 -0.6818 -2.9876
  939SOL     OW12675   3.131   0.168   0.743 -0.4251 -0.4438 -0.5951
  939SOL    HW112676   3.161   0.190   0.650  1.4897 -1.1133 -0.1626
  939SOL    HW212677   3.085   0.079   0.743 -0.7304 -0.2859 -0.9614
  940SOL     OW12678   2.353   1.083   1.016 -0.1503 -0.4194 -0.0640
  940SOL    HW112679   2.449   1.066   1.038  0.1214 -1.0751 -1.7221
  940SOL    HW212680   2.345   1.170   0.967 -0.5682  0.2658  1.1951
  941SOL     OW12681   2.057   2.549   0.476  0.2590 -0.0881 -0.6390
  941SOL    HW112682   2.016   2.628   0.429  0.0496 -0.4323 -1.0353
  941SOL    HW212683   2.148   2.575   0.510  0.7690 -0.0835 -1.9718
  942SOL     OW12684   2.426   2.998   2.403 -0.0828 -0.9884  0.4498
  942SOL    HW112685   2.495   2.957   2.462  0.7434  2.0366  1.6755
  942SOL    HW212686   2.336   2.987   2.445  0.2495 -0.6965  1.2432
  943SOL     OW12687   1.764   6.147   0.573  0.1140 -0.1178 -0.1491
  943SOL    HW112688   1.837   6.194   0.622 -0.1402 -0.2390  0.3537
  943SOL    HW212689   1.693   6.213   0.548 -0.4653 -0.3067  0.9704
  944SOL     OW12690   2.893   0.196   1.061 -0.5698 -0.1370 -0.0392
  944SOL    HW112691   2.815   0.135   1.045 -1.1871  0.6246  0.0623
  944SOL    HW212692   2.918   0.193   1.158  0.2246 -1.2043 -0.2620
  945SOL     OW12693   3.325   0.652   0.511 -0.0273  0.5527  0.2729
  945SOL    HW112694   3.401   0.589   0.522 -1.9173 -1.9803 -0.6774
  945SOL    HW212695   3.359   0.741   0.480  2.9263  0.7890  3.9041
  946SOL     OW12696   5.463   3.382   0.725 -0.1535  0.5534 -0.6477
  946SOL    HW112697   5.406   3.462   0.747 -1.4240 -0.4561 -0.1871
  946SOL    HW212698   5.446   3.354   0.631 -0.7265  0.0162 -0.3899
  947SOL     OW12699   4.485   2.816   1.697 -0.1875  0.4279 -0.1375
  947SOL    HW112700   4.389   2.803   1.669 -1.0410  3.2404  1.2498
  947SOL    HW212701   4.518   2.733   1.741 -1.4246 -1.1880 -2.1514
  948SOL     OW12702   1.623   3.110   0.735  0.1518 -1.0121 -0.1392
  948SOL    HW112703   1.663   3.152   0.817  0.0097  0.8667 -1.0200
  948SOL    HW212704   1.665   3.020   0.720  0.6395 -1.0990  1.6176
  949SOL     OW12705   2.724   3.235   0.132 -0.3601  0.4539 -0.2706
  949SOL    HW112706   2.642   3.192   0.097 -1.0148  1.2190  0.2934
  949SOL    HW212707   2.757   3.185   0.213 -0.4218  0.3093 -0.3357
  950SOL     OW12708   3.391   3.446   1.423  0.6816  0.5278  0.0269
  950SOL    HW112709   3.436   3.394   1.497  0.0740  0.7705  0.5728
  950SOL    HW212710   3.310   3.396   1.392  2.0459 -0.5659 -1.8744
  951SOL     OW12711   2.871   1.672   0.490  0.5094  0.1269  0.1440
  951SOL    HW112712   2.959   1.631   0.467  0.9301  0.1763  1.6178
  951SOL    HW212713   2.820   1.610   0.549 -0.9286 -0.3841 -1.6152
  952SOL     OW12714   1.958   8.639   0.243 -0.2050 -0.0487 -0.0640
  952SOL    HW112715   1.871   8.689   0.237  0.8993  2.1212  1.0561
  952SOL    HW212716   1.955   8.559   0.184 -3.2660 -0.4787  0.5677
  953SOL     OW12717   2.673   5.365   1.210  0.5866  0.1645  0.0536
  953SOL    HW112718   2.626   5.279   1.190  0.4539  0.4506 -0.9129
  953SOL    HW212719   2.731   5.390   1.132  1.2140  0.5605  0.6448
  954SOL     OW12720   2.512   5.565   1.981 -0.3201  0.2451  0.7863
  954SOL    HW112721   2.525   5.572   2.080 -0.8087 -1.2654  0.9688
  954SOL    HW212722   2.415   5.559   1.961 -0.2173  0.4866  0.2131
  955SOL     OW12723   3.441   9.033   2.565  0.2003  0.0782  0.6516
  955SOL    HW112724   3.432   9.072   2.656  0.7892  2.7418 -0.3876
  955SOL    HW212725   3.352   8.999   2.535 -0.7033  2.0350  1.0128
  956SOL     OW12726   2.632   0.308   1.544  0.3637  0.6218  0.0879
  956SOL    HW112727   2.628   0.283   1.447  0.0930 -0.1298  0.2834
  956SOL    HW212728   2.549   0.274   1.590  0.4560  1.0408  0.5636
  957SOL     OW12729   3.291   1.271   0.683  0.6894 -0.2098  0.4254
  957SOL    HW112730   3.197   1.250   0.707 -0.2376  2.1778 -0.9183
  957SOL    HW212731   3.306   1.253   0.586  1.7869 -1.0950  0.7488
  958SOL     OW12732   3.777   2.946   1.980  0.3812 -0.2176 -0.5636
  958SOL    HW112733   3.761   2.928   2.077 -1.5663  0.1716 -0.7772
  958SOL    HW212734   3.713   2.891   1.926  0.8509  0.2332 -1.5820
  959SOL     OW12735   2.390   5.717   0.931 -0.0346 -0.2035 -0.5498
  959SOL    HW112736   2.449   5.636   0.941 -0.5813 -0.4058  1.2346
  959SOL    HW212737   2.446   5.799   0.941  0.2681 -0.3676 -0.8549
  960SOL     OW12738   3.162   4.506   1.824  0.0641 -0.1158 -0.2449
  960SOL    HW112739   3.258   4.512   1.850  0.2899 -0.5568 -0.9519
  960SOL    HW212740   3.149   4.429   1.761 -0.8813 -0.5283  0.4300
  961SOL     OW12741   3.407   1.973   0.777 -0.3714 -0.3725 -0.3080
  961SOL    HW112742   3.433   1.876   0.770  0.1205 -0.3646  1.0905
  961SOL    HW212743   3.485   2.030   0.751 -0.9018 -0.3376 -1.8745
  962SOL     OW12744   1.947   0.602   0.994  0.1505 -0.1640  0.3591
  962SOL    HW112745   1.923   0.520   1.046  0.3784 -0.8595 -0.6133
  962SOL    HW212746   1.984   0.671   1.056 -1.9486 -0.0260  1.4934
  963SOL     OW12747   3.901   4.548   2.573  0.3548 -0.1245  0.0462
  963SOL    HW112748   3.906   4.529   2.475  0.3039 -0.8649  0.1878
  963SOL    HW212749   3.901   4.462   2.624  0.0286  0.2496  0.6805
  964SOL     OW12750   4.621   3.851   2.500  0.0299  0.4178 -0.1997
  964SOL    HW112751   4.674   3.877   2.581  0.3586  1.7425 -0.8310
  964SOL    HW212752   4.662   3.893   2.419 -0.5393 -0.5666 -1.0064
  965SOL     OW12753   1.704   7.036   1.275  0.0259  0.3091  0.0940
  965SOL    HW112754   1.792   7.068   1.239 -0.5535  0.2674 -1.3650
  965SOL    HW212755   1.673   7.099   1.346 -0.3108  2.0917 -1.6096
  966SOL     OW12756   5.192   4.174   2.610 -0.6803 -0.8915  0.2192
  966SOL    HW112757   5.206   4.141   2.703 -0.5925  0.2215  0.5986
  966SOL    HW212758   5.250   4.122   2.547  0.2697 -0.7097  0.9487
  967SOL     OW12759   3.652   4.024   0.234 -0.1077 -0.1466  0.3189
  967SOL    HW112760   3.684   3.930   0.237  1.7866  0.5097  2.0569
  967SOL    HW212761   3.710   4.081   0.294 -1.0324  2.1587 -0.9141
  968SOL     OW12762   2.003   1.995   2.104  0.1609 -0.5580  0.2639
  968SOL    HW112763   2.065   2.070   2.127 -0.5283 -0.0757  0.5752
  968SOL    HW212764   1.978   1.946   2.187 -0.8283 -0.0016  0.2961
  969SOL     OW12765   2.917   0.208   2.166 -0.7843  0.5123  0.4331
  969SOL    HW112766   2.984   0.262   2.217 -0.2784  0.8454 -0.5454
  969SOL    HW212767   2.957   0.119   2.142 -0.3511  1.0355 -0.8818
  970SOL     OW12768   2.246   2.722   0.983 -0.1655  0.3238 -0.2426
  970SOL    HW112769   2.335   2.723   1.028 -0.6360  0.8433  0.7020
  970SOL    HW212770   2.251   2.668   0.900  0.7107 -0.7039  0.4733
  971SOL     OW12771   2.703   7.050   0.141  0.5496  0.4860 -0.2865
  971SOL    HW112772   2.669   7.060   0.234  0.1956 -0.6393 -0.2939
  971SOL    HW212773   2.635   7.086   0.077 -0.9841 -2.3943 -0.3461
  972SOL     OW12774   2.822   4.281   0.634 -0.1515  0.0116  0.2763
  972SOL    HW112775   2.798   4.324   0.722 -2.1351 -1.2365  0.3581
  972SOL    HW212776   2.787   4.337   0.559 -0.6160 -0.2050  0.3316
  973SOL     OW12777   1.841   1.473   0.044  0.4877 -0.4128 -0.4520
  973SOL    HW112778   1.879   1.548   0.099 -0.5528  0.3473 -0.7681
  973SOL    HW212779   1.764   1.432   0.092  0.4620 -0.6720 -0.7124
  974SOL     OW12780   2.360   3.073   1.746 -0.2759  0.7024 -0.3697
  974SOL    HW112781   2.434   3.036   1.802 -0.9130  0.9664  0.6736
  974SOL    HW212782   2.275   3.071   1.799 -1.1637 -0.2687 -1.8088
  975SOL     OW12783   2.540   7.328   0.253  0.0626 -0.0613  0.3112
  975SOL    HW112784   2.528   7.242   0.303  1.2270  0.1297  0.9328
  975SOL    HW212785   2.450   7.366   0.231 -0.4726 -1.8322 -0.6660
  976SOL     OW12786   2.284   2.554   0.653 -0.2247  0.4108 -0.0306
  976SOL    HW112787   2.256   2.499   0.732  0.0569 -0.3300 -0.4422
  976SOL    HW212788   2.351   2.623   0.683  1.2339 -1.0223  0.0641
  977SOL     OW12789   5.110   3.583   0.265 -0.6836  0.6156 -0.0661
  977SOL    HW112790   5.023   3.600   0.220 -0.5396 -0.5696 -0.8152
  977SOL    HW212791   5.093   3.545   0.356 -0.9537  1.1067  0.0897
  978SOL     OW12792   1.693   2.965   2.433  0.0485  0.8627 -0.5416
  978SOL    HW112793   1.765   2.990   2.498 -2.9282 -0.1286  3.3263
  978SOL    HW212794   1.637   3.045   2.413 -0.6676  0.5926  0.3232
  979SOL     OW12795   4.200   0.895   1.958 -0.4954  0.2480 -0.5140
  979SOL    HW112796   4.161   0.882   2.050 -1.3093 -0.8691 -1.0028
  979SOL    HW212797   4.127   0.921   1.895 -0.1033  0.0732 -1.0393
  980SOL     OW12798   3.798   3.881   2.071  0.7182 -0.1356  0.6171
  980SOL    HW112799   3.827   3.963   2.120  0.8597 -0.5529  1.2455
  980SOL    HW212800   3.774   3.904   1.977  0.7702  0.6207  0.7903
  981SOL     OW12801   3.338   1.603   1.664  0.2486 -0.3087  0.1675
  981SOL    HW112802   3.294   1.693   1.665  0.9447  0.0348  1.0290
  981SOL    HW212803   3.372   1.584   1.572  1.3824  0.9551  0.3113
  982SOL     OW12804   4.184   3.811   2.150  0.3093  0.0219 -0.0438
  982SOL    HW112805   4.162   3.906   2.175 -0.0830 -0.2936  0.8420
  982SOL    HW212806   4.105   3.752   2.171  0.9230 -0.6558  0.3812
  983SOL     OW12807   4.326   4.809   0.898 -0.0642  0.0807  0.3686
  983SOL    HW112808   4.372   4.720   0.904  2.2699  1.3103  1.3829
  983SOL    HW212809   4.300   4.840   0.989 -2.1076 -0.1759 -0.1186
  984SOL     OW12810   2.743   2.183   2.427  0.5235  0.2263  0.3254
  984SOL    HW112811   2.825   2.216   2.381  1.3563 -1.6144  0.4344
  984SOL    HW212812   2.762   2.095   2.470 -0.9893  0.6572  1.9473
  985SOL     OW12813   2.412   5.378   0.755 -0.1256 -0.1530 -0.0029
  985SOL    HW112814   2.392   5.425   0.670 -1.1119 -0.9435 -0.2217
  985SOL    HW212815   2.476   5.303   0.738 -0.8369 -0.7250 -0.1666
  986SOL     OW12816   2.427   5.275   1.641 -0.1826 -0.4056  0.1313
  986SOL    HW112817   2.432   5.176   1.625 -1.7580 -0.4063 -0.4964
  986SOL    HW212818   2.393   5.320   1.558 -0.1363  0.5814  0.6432
  987SOL     OW12819   4.420   1.196   0.451  0.0938 -0.1950  0.3552
  987SOL    HW112820   4.436   1.125   0.382  1.7489 -0.9102  1.4573
  987SOL    HW212821   4.452   1.284   0.415  1.8510 -0.7340  0.5503
  988SOL     OW12822   2.645   0.925   0.107 -0.1966  0.4192  0.3545
  988SOL    HW112823   2.630   0.867   0.027  1.5277 -0.5142  0.6622
  988SOL    HW212824   2.742   0.949   0.113 -0.7604  2.7219  0.6770
  989SOL     OW12825   2.553   6.860   1.032 -0.1493 -0.0081 -0.1140
  989SOL    HW112826   2.563   6.792   0.960  1.7513 -0.1527  0.2663
  989SOL    HW212827   2.472   6.839   1.086  0.8869 -2.4929  0.5442
  990SOL     OW12828   1.927   8.455   1.936 -0.1221  0.5867  0.7139
  990SOL    HW112829   2.015   8.434   1.892 -0.5715 -3.2509  1.4464
  990SOL    HW212830   1.863   8.490   1.868  0.6682 -0.7438 -0.7405
  991SOL     OW12831   2.999   2.984   0.548  0.2934  0.1630  0.3965
  991SOL    HW112832   3.025   3.029   0.633  0.6260 -0.0596  0.4165
  991SOL    HW212833   2.980   2.887   0.566 -0.7190  0.3570  0.4096
  992SOL     OW12834   2.196   2.674   1.564  0.3215 -0.3570  0.1748
  992SOL    HW112835   2.178   2.644   1.657 -0.6614  0.1486  0.1583
  992SOL    HW212836   2.269   2.743   1.565  0.0379 -0.0618  0.6120
  993SOL     OW12837   3.921   1.320   0.731 -0.0729 -0.0150 -0.5478
  993SOL    HW112838   3.958   1.248   0.789 -1.8472 -1.0163 -0.6284
  993SOL    HW212839   3.968   1.406   0.750  0.9662 -0.8484  0.6797
  994SOL     OW12840   2.393   2.697   2.390  0.0393  0.2485 -0.1051
  994SOL    HW112841   2.411   2.743   2.304  0.2393  0.1572 -0.1118
  994SOL    HW212842   2.342   2.613   2.373 -1.7105  1.2561  0.0382
  995SOL     OW12843   3.510   2.189   1.708 -0.1860 -0.0522 -0.8264
  995SOL    HW112844   3.444   2.242   1.655  1.3687  0.3010 -2.4556
  995SOL    HW212845   3.536   2.241   1.789  0.3779  1.1418 -1.7588
  996SOL     OW12846   2.417   2.373   0.214 -0.3130 -0.4754  0.5164
  996SOL    HW112847   2.472   2.443   0.169  1.1008 -3.4038 -2.5469
  996SOL    HW212848   2.332   2.359   0.162  1.0378 -3.4292 -1.0223
  997SOL     OW12849   2.994   5.142   1.155 -0.2595  0.3661 -0.6636
  997SOL    HW112850   3.050   5.219   1.122  0.2928  0.0425 -0.4747
  997SOL    HW212851   2.953   5.166   1.243  0.6677  0.0928 -0.1480
  998SOL     OW12852   2.160   1.521   1.006 -0.1131  0.1035 -0.1601
  998SOL    HW112853   2.085   1.455   1.002  0.3920 -0.3905 -1.8871
  998SOL    HW212854   2.246   1.473   1.023  0.1696  0.3820 -0.8005
  999SOL     OW12855   2.087   1.604   0.417 -0.1500  0.4174 -0.4508
  999SOL    HW112856   2.021   1.676   0.396 -2.5260 -1.8088 -0.7941
  999SOL    HW212857   2.073   1.571   0.510  0.0693 -0.5013 -0.7402
 1000SOL     OW12858   1.916   0.978   1.939  0.0382  0.2046 -0.2494
 1000SOL    HW112859   2.010   0.949   1.917  0.2847 -0.5871  1.7437
 1000SOL    HW212860   1.852   0.909   1.906  0.3324 -0.4276  0.4619
 1001SOL     OW12861   2.221   8.774   1.366  0.1919  0.7832 -0.1725
 1001SOL    HW112862   2.256   8.753   1.275 -1.0515  0.6527 -0.6256
 1001SOL    HW212863   2.253   8.704   1.431  0.2472  0.3186 -0.6978
 1002SOL     OW12864   2.845   2.656   2.054 -0.6627  0.5788  0.3743
 1002SOL    HW112865   2.932   2.632   2.097  0.0623  0.8072 -0.9347
 1002SOL    HW212866   2.862   2.687   1.960 -2.2499 -0.3586 -0.2354
 1003SOL     OW12867   1.686   7.823   0.289 -0.5169  0.2458  0.3960
 1003SOL    HW112868   1.618   7.867   0.347 -0.2175 -0.5864  1.3931
 1003SOL    HW212869   1.763   7.792   0.345 -0.8826 -1.8525 -0.2069
 1004SOL     OW12870   2.857   1.514   2.564 -0.3970 -0.3556  0.5884
 1004SOL    HW112871   2.818   1.548   2.478 -1.1049 -1.3441  0.5038
 1004SOL    HW212872   2.854   1.586   2.633 -1.5920 -0.1390  0.3289
 1005SOL     OW12873   1.968   4.297   1.543 -0.0310 -0.7125 -0.2169
 1005SOL    HW112874   1.918   4.232   1.601 -2.5883  0.2957 -1.2152
 1005SOL    HW212875   2.063   4.268   1.535 -0.1908 -2.1975  2.5042
 1006SOL     OW12876   1.693   9.586   0.360  0.6245  0.7290 -0.0846
 1006SOL    HW112877   1.670   9.682   0.346  0.7258  0.5027 -1.8764
 1006SOL    HW212878   1.686   9.564   0.458 -0.6927  2.2202  0.1809
 1007SOL     OW12879   3.038   3.652   2.656 -0.6650  0.0477  0.1196
 1007SOL    HW112880   2.956   3.596   2.668 -0.8649  0.6305  1.6631
 1007SOL    HW212881   3.012   3.749   2.653 -0.0299  0.2427  0.7524
 1008SOL     OW12882   3.151   3.240   2.372 -0.6219  0.1518  0.4708
 1008SOL    HW112883   3.074   3.237   2.437 -0.0867 -2.4459  1.0525
 1008SOL    HW212884   3.115   3.239   2.279 -1.3408  0.9192  0.7312
 1009SOL     OW12885   2.291   6.487   2.456 -0.0477 -0.5229  0.1140
 1009SOL    HW112886   2.382   6.457   2.485  0.4582  1.4408  0.6229
 1009SOL    HW212887   2.231   6.407   2.446  1.2383 -1.6789  1.4540
 1010SOL     OW12888   4.250   2.144   0.700 -0.3956  0.0929 -0.4700
 1010SOL    HW112889   4.177   2.131   0.634  0.7265 -0.2181 -1.6661
 1010SOL    HW212890   4.328   2.189   0.656  0.1745  0.3463  0.7576
 1011SOL     OW12891   2.093   5.582   0.620  0.3141 -0.5069  0.2285
 1011SOL    HW112892   2.098   5.511   0.691 -2.3959  1.1691  2.1954
 1011SOL    HW212893   2.116   5.670   0.660  0.1970  0.2499 -1.3580
 1012SOL     OW12894   2.499   8.206   1.953  0.0743 -0.0718  0.1020
 1012SOL    HW112895   2.577   8.219   2.014  1.3421 -2.1385 -1.0419
 1012SOL    HW212896   2.494   8.283   1.889  1.8020 -0.4155 -0.4782
 1013SOL     OW12897   3.234   0.254   1.984 -0.7929  0.4990 -0.4167
 1013SOL    HW112898   3.225   0.304   2.070 -2.1464 -0.5172  0.0370
 1013SOL    HW212899   3.144   0.244   1.941 -0.4926 -1.2078 -0.6860
 1014SOL     OW12900   2.257   8.648   1.078  0.4914 -0.3561 -0.6734
 1014SOL    HW112901   2.279   8.628   0.983 -1.3157 -0.6363 -1.0498
 1014SOL    HW212902   2.257   8.563   1.131  0.3004 -0.3577 -0.6774
 1015SOL     OW12903   3.106   3.361   2.049  0.3468  0.3092  0.2204
 1015SOL    HW112904   3.121   3.281   1.990  1.5644 -0.5508  1.6479
 1015SOL    HW212905   3.188   3.418   2.049 -0.1667  1.0534 -0.0228
 1016SOL     OW12906   3.749   1.627   1.077  0.5050  0.0755 -0.6973
 1016SOL    HW112907   3.695   1.549   1.110  0.3292  0.3197 -0.4107
 1016SOL    HW212908   3.846   1.609   1.095  0.4292  0.1066 -0.2581
 1017SOL     OW12909   2.671   1.028   2.241 -0.7245 -0.0660  0.4003
 1017SOL    HW112910   2.604   0.974   2.191 -2.0666  0.8193  1.2031
 1017SOL    HW212911   2.756   1.032   2.189 -1.9309  0.4621 -1.6105
 1018SOL     OW12912   2.915   2.864   1.405 -0.2351  0.0978  0.2766
 1018SOL    HW112913   2.965   2.945   1.373 -2.8787  0.7723 -2.3547
 1018SOL    HW212914   2.963   2.781   1.375  0.9072  0.7078  0.3931
 1019SOL     OW12915   2.082   9.633   2.438  0.1117  0.1385  0.4506
 1019SOL    HW112916   2.031   9.571   2.380 -0.4262  0.5933  0.4357
 1019SOL    HW212917   2.103   9.589   2.525 -2.3342  0.7450  1.3854
 1020SOL     OW12918   3.435   0.630   2.101 -0.2216  0.0271 -0.1027
 1020SOL    HW112919   3.516   0.675   2.064 -1.0486 -0.0169 -1.9995
 1020SOL    HW212920   3.410   0.553   2.043 -1.0688 -0.5462  1.0028
 1021SOL     OW12921   2.212   0.416   0.482  0.1738 -0.0886 -0.4412
 1021SOL    HW112922   2.124   0.445   0.519  0.4170 -0.2902  0.3033
 1021SOL    HW212923   2.202   0.397   0.384 -0.8954 -1.2905 -0.1211
 1022SOL     OW12924   1.986   8.425   2.211  0.4676  0.0407 -0.1438
 1022SOL    HW112925   1.934   8.420   2.126  0.9790  3.2278 -0.7039
 1022SOL    HW212926   2.084   8.423   2.191  0.5919 -1.6375  0.5719
 1023SOL     OW12927   2.445   0.968   2.427  0.0829 -0.5593 -0.2404
 1023SOL    HW112928   2.521   0.962   2.362 -2.1557  0.8835 -3.0972
 1023SOL    HW212929   2.415   0.875   2.450  0.6776 -1.0978 -1.5424
 1024SOL     OW12930   3.178   0.339   2.274 -0.3589  0.5077 -0.5992
 1024SOL    HW112931   3.182   0.422   2.331 -0.6662  1.9860 -2.6568
 1024SOL    HW212932   3.192   0.259   2.332 -2.4137  1.8196  1.8468
 1025SOL     OW12933   2.826   7.473   0.601 -0.5452  0.1376 -0.0049
 1025SOL    HW112934   2.797   7.465   0.505 -1.9011  0.5397  0.3553
 1025SOL    HW212935   2.765   7.419   0.658  0.4120 -0.2916  0.6071
 1026SOL     OW12936   3.387   4.895   2.506 -0.8077  0.1680 -0.1579
 1026SOL    HW112937   3.287   4.898   2.497 -0.8020 -1.8659 -1.1804
 1026SOL    HW212938   3.417   4.971   2.563 -2.6959  2.3182 -1.9286
 1027SOL     OW12939   4.452   4.566   2.367 -0.1463  0.5163 -0.5232
 1027SOL    HW112940   4.377   4.583   2.430 -0.7489 -0.2147 -1.0306
 1027SOL    HW212941   4.508   4.490   2.401  0.0428  0.7009 -0.4222
 1028SOL     OW12942   4.112   1.069   2.299 -0.6173  0.0639 -0.2852
 1028SOL    HW112943   4.203   1.035   2.324 -0.5254  1.7432  1.7672
 1028SOL    HW212944   4.049   0.992   2.288  1.3384 -1.2426 -3.1431
 1029SOL     OW12945   3.901   1.889   2.650  0.5167 -0.0731  0.0455
 1029SOL    HW112946   3.811   1.912   2.686  0.3180 -1.4355  0.4395
 1029SOL    HW212947   3.948   1.828   2.713  0.5461 -1.7205 -1.5434
 1030SOL     OW12948   3.434   8.554   0.973 -0.0189 -0.2466 -0.1096
 1030SOL    HW112949   3.424   8.654   0.971  1.4813 -0.0882 -0.7374
 1030SOL    HW212950   3.414   8.517   0.882 -0.0946 -0.4747 -0.0006
 1031SOL     OW12951   2.722   8.906   2.015 -0.0701  0.3465 -0.0876
 1031SOL    HW112952   2.650   8.849   2.055 -1.2133  1.7660 -0.0437
 1031SOL    HW212953   2.797   8.915   2.079 -1.1814  1.2823  1.1106
 1032SOL     OW12954   2.827   3.398   2.430 -0.6354  0.1829  0.3034
 1032SOL    HW112955   2.804   3.304   2.404 -0.8117  0.2673  0.1553
 1032SOL    HW212956   2.858   3.449   2.350  0.8542 -0.1539  0.6407
 1033SOL     OW12957   4.611   3.662   2.316  0.4338 -0.4343  0.0493
 1033SOL    HW112958   4.574   3.736   2.372  1.7040 -0.5121  1.0027
 1033SOL    HW212959   4.636   3.698   2.226 -0.3364 -0.0289 -0.0126
 1034SOL     OW12960   3.944   0.632   0.222  0.3729  0.6366 -0.4468
 1034SOL    HW112961   3.957   0.628   0.123 -0.8274 -0.2039 -0.5778
 1034SOL    HW212962   3.991   0.713   0.258 -0.8294  2.0565 -1.9784
 1035SOL     OW12963   4.185   3.691   2.575 -0.3950 -0.0654 -0.2348
 1035SOL    HW112964   4.231   3.699   2.664  0.3866  1.4227 -0.7503
 1035SOL    HW212965   4.247   3.649   2.509 -0.5122  0.0314 -0.4072
 1036SOL     OW12966   2.511   4.687   0.125  0.0846 -0.2048  0.6513
 1036SOL    HW112967   2.443   4.702   0.053  1.7203  0.2131 -0.8146
 1036SOL    HW212968   2.486   4.741   0.206 -1.4155 -0.2002  0.1991
 1037SOL     OW12969   3.082   4.007   0.391 -0.0455 -0.1013  1.0240
 1037SOL    HW112970   2.985   3.989   0.382 -0.1760 -1.3228  4.2154
 1037SOL    HW212971   3.134   3.949   0.328 -1.2999 -0.0227 -0.0953
 1038SOL     OW12972   3.685   4.239   1.358 -0.0090  0.0248  0.1617
 1038SOL    HW112973   3.739   4.215   1.439  0.0233  0.2951  0.2196
 1038SOL    HW212974   3.711   4.180   1.282 -0.9770 -1.1365  0.7122
 1039SOL     OW12975   2.249   0.092   0.577 -0.4227 -0.0824 -0.0095
 1039SOL    HW112976   2.263   0.123   0.483  1.6643 -0.2130  0.2324
 1039SOL    HW212977   2.160   0.046   0.583 -0.1823 -0.9241 -2.1431
 1040SOL     OW12978   2.340   9.846   2.405 -0.6424  0.0020 -0.0086
 1040SOL    HW112979   2.368   9.835   2.310 -2.0604 -0.0091 -0.4310
 1040SOL    HW212980   2.386   9.926   2.444  0.0088 -0.0414 -0.6758
 1041SOL     OW12981   1.959   7.006   0.655 -0.3397  0.1054 -0.2136
 1041SOL    HW112982   1.892   7.044   0.591  0.2491  0.4754 -0.6092
 1041SOL    HW212983   1.914   6.984   0.741 -1.0484  0.0146 -0.6016
 1042SOL     OW12984   2.631   9.631   1.644  0.2871  0.0859  0.1215
 1042SOL    HW112985   2.629   9.694   1.567 -1.0687  0.7727  0.6927
 1042SOL    HW212986   2.633   9.537   1.611 -0.2906  0.3764 -0.7391
 1043SOL     OW12987   3.069   1.869   0.122  0.5084 -0.4279  0.0583
 1043SOL    HW112988   3.063   1.933   0.046 -0.7655 -0.9311 -0.2624
 1043SOL    HW212989   3.068   1.920   0.208 -1.3585 -0.0415 -0.1698
 1044SOL     OW12990   5.372   3.146   1.217 -0.0058 -0.0758  0.7252
 1044SOL    HW112991   5.307   3.070   1.213  0.0954 -0.1175 -0.3590
 1044SOL    HW212992   5.323   3.232   1.223 -0.1191 -0.2317  2.1661
 1045SOL     OW12993   2.435   2.979   1.241  0.6147 -0.5821  0.5878
 1045SOL    HW112994   2.405   2.985   1.146 -0.1109  1.1466  0.9089
 1045SOL    HW212995   2.483   2.892   1.255 -0.5012 -1.4806 -0.9903
 1046SOL     OW12996   2.076   2.608   0.035  0.1036 -0.2142 -0.0389
 1046SOL    HW112997   2.165   2.652   0.021 -0.6220  1.2379 -0.1598
 1046SOL    HW212998   2.090   2.516   0.073  1.7490 -1.0564 -2.5668
 1047SOL     OW12999   4.881   3.329   1.177 -0.2059 -0.0297  0.8629
 1047SOL    HW113000   4.880   3.379   1.090  2.9495 -0.3139  0.6154
 1047SOL    HW213001   4.918   3.388   1.249 -1.1349 -0.3823  1.6360
 1048SOL     OW13002   3.761   2.485   2.639 -0.2559  0.0584  0.0739
 1048SOL    HW113003   3.733   2.564   2.694  0.5948  0.4278 -0.0073
 1048SOL    HW213004   3.685   2.421   2.631 -1.1128  1.0890 -0.2431
 1049SOL     OW13005   4.281   1.267   1.131  0.3204 -0.2801 -0.6736
 1049SOL    HW113006   4.182   1.248   1.135  0.5803 -1.3510  1.3210
 1049SOL    HW213007   4.315   1.244   1.040 -0.9974 -1.3559 -0.9247
 1050SOL     OW13008   4.375   2.103   2.613  0.2457 -0.5388  0.1143
 1050SOL    HW113009   4.277   2.081   2.616  0.3321 -0.8377  1.1627
 1050SOL    HW213010   4.387   2.197   2.580 -0.5626  0.3709  2.2414
 1051SOL     OW13011   4.053   3.909   2.497  0.3955 -0.0453 -0.4468
 1051SOL    HW113012   4.122   3.972   2.462  0.0337 -0.0477 -1.1790
 1051SOL    HW213013   4.095   3.822   2.519  0.8920  0.4460  0.5309
 1052SOL     OW13014   2.623   5.425   1.734  0.3719 -0.6628 -0.3394
 1052SOL    HW113015   2.625   5.447   1.832 -0.3897 -0.7635 -0.2990
 1052SOL    HW213016   2.539   5.376   1.713 -0.2799  0.8453 -1.3581
 1053SOL     OW13017   2.509   8.531   0.783  0.2415 -0.3034  0.1511
 1053SOL    HW113018   2.542   8.577   0.866 -0.9254  1.3699 -0.2761
 1053SOL    HW213019   2.410   8.519   0.789 -0.3139  2.4198 -2.1636
 1054SOL     OW13020   2.555   7.588   2.507 -0.8572  0.1523  0.2832
 1054SOL    HW113021   2.503   7.567   2.590  0.4626 -0.0155  1.0817
 1054SOL    HW213022   2.602   7.675   2.519 -2.8572  1.5166 -1.3632
 1055SOL     OW13023   4.111   0.099   0.167 -0.5625 -0.5055  0.3062
 1055SOL    HW113024   4.199   0.052   0.171 -1.1374 -1.6747 -0.2725
 1055SOL    HW213025   4.090   0.141   0.255  0.4782 -0.3884  0.4973
 1056SOL     OW13026   2.580   5.639   0.201  0.4785  0.1250  0.2018
 1056SOL    HW113027   2.487   5.674   0.195 -0.2023 -1.6557  0.1594
 1056SOL    HW213028   2.604   5.625   0.297  0.4460 -0.0835  0.1799
 1057SOL     OW13029   4.019   0.833   2.178 -0.2824 -0.4504  0.7319
 1057SOL    HW113030   3.988   0.762   2.242  0.7412 -0.3671  1.3496
 1057SOL    HW213031   3.941   0.882   2.142 -0.8300  0.5720  3.1853
 1058SOL     OW13032   2.532   3.645   2.146 -0.4311  0.1116 -0.0572
 1058SOL    HW113033   2.602   3.714   2.126 -1.5219  1.2289 -0.0711
 1058SOL    HW213034   2.557   3.559   2.101  0.5198  0.7241 -0.7310
 1059SOL     OW13035   2.229   3.673   2.468 -0.8221 -0.0000 -0.4567
 1059SOL    HW113036   2.263   3.740   2.402  0.1057 -0.9107 -0.9280
 1059SOL    HW213037   2.282   3.679   2.553 -0.1248 -0.7372 -0.8283
 1060SOL     OW13038   1.837   4.124   1.718 -0.0489 -0.3632 -0.3876
 1060SOL    HW113039   1.851   4.026   1.709  0.8884 -0.2812  0.0563
 1060SOL    HW213040   1.819   4.147   1.814 -0.1324 -0.0927 -0.4660
 1061SOL     OW13041   3.025   6.132   1.056 -0.1709  0.0538  0.1490
 1061SOL    HW113042   3.008   6.055   1.118 -0.6025 -0.3250 -0.4482
 1061SOL    HW213043   3.006   6.218   1.104 -2.1764 -0.2913  0.0061
 1062SOL     OW13044   2.361   8.199   1.011 -0.0119 -0.3444 -0.5246
 1062SOL    HW113045   2.290   8.173   1.077  0.5751 -1.2211 -0.2188
 1062SOL    HW213046   2.337   8.163   0.921 -1.3812  1.8155 -1.0594
 1063SOL     OW13047   2.226   0.035   2.069  0.0998 -0.8008 -0.0316
 1063SOL    HW113048   2.305  -0.022   2.092  3.4063  2.2142 -3.2449
 1063SOL    HW213049   2.203   0.021   1.972 -2.0333 -0.0803  0.3511
 1064SOL     OW13050   2.261   5.806   0.677 -0.0828 -0.5415  0.2976
 1064SOL    HW113051   2.314   5.760   0.748  0.6348  0.0216  0.1228
 1064SOL    HW213052   2.201   5.874   0.718 -1.0685 -1.5268  0.5475
 1065SOL     OW13053   4.499   4.330   1.926 -1.0114  0.0277 -0.0946
 1065SOL    HW113054   4.493   4.426   1.952 -1.0739  0.2176 -0.7960
 1065SOL    HW213055   4.413   4.284   1.947 -0.5710 -0.1645  1.3573
 1066SOL     OW13056   3.290   4.899   1.462 -0.0146 -0.0911  0.4498
 1066SOL    HW113057   3.290   4.820   1.401  0.2182 -0.0973  0.4585
 1066SOL    HW213058   3.200   4.943   1.460 -0.4856 -0.9933  1.2588
 1067SOL     OW13059   2.431   9.845   2.135 -0.4001 -0.1678 -0.5480
 1067SOL    HW113060   2.499   9.891   2.078 -1.1760  1.7220 -0.0007
 1067SOL    HW213061   2.408   9.756   2.095  1.0242 -0.0231 -1.7183
 1068SOL     OW13062   3.805   4.783   0.389 -0.1058 -0.7959 -0.0390
 1068SOL    HW113063   3.723   4.755   0.339 -0.1975  0.4444 -0.6007
 1068SOL    HW213064   3.826   4.879   0.369  1.3570 -1.0282  0.2680
 1069SOL     OW13065   3.257   7.878   0.817 -0.1553 -0.2003  0.3934
 1069SOL    HW113066   3.247   7.976   0.836 -1.6807 -0.3050  0.2029
 1069SOL    HW213067   3.250   7.863   0.718 -0.6892 -0.5891  0.4922
 1070SOL     OW13068   4.219   1.207   1.744 -0.2683 -0.2291  0.4386
 1070SOL    HW113069   4.206   1.108   1.742  1.2408 -0.4225 -0.2180
 1070SOL    HW213070   4.257   1.238   1.657  1.2516  0.6288  1.3822
 1071SOL     OW13071   2.984   0.286   1.835 -0.2362 -0.4810  0.6533
 1071SOL    HW113072   2.933   0.222   1.778  0.3538 -1.1001  0.8184
 1071SOL    HW213073   2.988   0.375   1.790  0.3479 -1.0029 -0.3355
 1072SOL     OW13074   2.278   7.383   0.629 -0.0112  0.1469  1.0564
 1072SOL    HW113075   2.325   7.451   0.573  0.3056 -0.9314  0.0059
 1072SOL    HW213076   2.225   7.430   0.700 -0.3666  1.5302 -0.0916
 1073SOL     OW13077   2.690   0.087   2.261 -0.1339  0.1025 -0.0004
 1073SOL    HW113078   2.693   0.006   2.202 -0.2786 -0.0497  0.1983
 1073SOL    HW213079   2.769   0.146   2.242  1.0362 -1.0358  1.2142
 1074SOL     OW13080   4.006   2.524   1.991 -0.4454 -0.0867  0.7784
 1074SOL    HW113081   3.977   2.525   2.087 -3.4497 -1.7791 -0.0444
 1074SOL    HW213082   4.088   2.467   1.981  0.3030  0.6731  2.4287
 1075SOL     OW13083   2.462   5.567   1.283  0.1474 -0.3551 -0.5324
 1075SOL    HW113084   2.494   5.656   1.316 -0.1075 -0.1080 -0.9387
 1075SOL    HW213085   2.535   5.521   1.232 -0.0665  0.1221 -1.2900
 1076SOL     OW13086   2.062   6.386   1.049 -0.1388 -0.0427 -0.4704
 1076SOL    HW113087   2.155   6.350   1.045 -0.0861 -0.1661  1.4569
 1076SOL    HW213088   2.058   6.462   1.114 -1.2369  0.3958 -1.0375
 1077SOL     OW13089   2.341   8.919   1.792  0.1990  0.2439 -0.3970
 1077SOL    HW113090   2.363   8.837   1.739  0.8449  0.1006  0.0846
 1077SOL    HW213091   2.424   8.970   1.811 -0.2885  1.3898 -1.2953
 1078SOL     OW13092   3.780   4.355   2.405 -0.1610 -0.0124 -0.1727
 1078SOL    HW113093   3.697   4.408   2.386  0.1993  0.6743  0.1651
 1078SOL    HW213094   3.768   4.303   2.489  0.1746  0.9843  0.5015
 1079SOL     OW13095   2.420   9.890   0.200 -0.3187  0.2352  0.3805
 1079SOL    HW113096   2.444   9.987   0.199  0.7644 -0.0328 -0.7533
 1079SOL    HW213097   2.403   9.859   0.106 -1.7211 -0.4233  0.8390
 1080SOL     OW13098   2.674   5.554   2.644 -0.3068  0.1522  0.9875
 1080SOL    HW113099   2.653   5.565   2.741  0.8772 -0.6540  1.3469
 1080SOL    HW213100   2.671   5.643   2.598  0.5143  0.7205  2.0334
 1081SOL     OW13101   4.373   1.870   0.481  0.2233 -0.1931  0.2026
 1081SOL    HW113102   4.301   1.847   0.546  0.1274  0.6850  0.4133
 1081SOL    HW213103   4.333   1.908   0.398  0.4622  0.7750  0.5215
 1082SOL     OW13104   2.601   7.044   1.227  0.1028  0.1223  0.0712
 1082SOL    HW113105   2.696   7.067   1.250  0.6970 -2.6238  0.6011
 1082SOL    HW213106   2.601   6.972   1.158 -1.6270  0.7049 -0.5447
 1083SOL     OW13107   2.891   8.557   0.179  0.0343  0.0580 -0.0993
 1083SOL    HW113108   2.793   8.577   0.180  0.2549  1.3157 -1.1908
 1083SOL    HW213109   2.931   8.595   0.095  1.6655  0.6671  0.9421
 1084SOL     OW13110   2.943   3.172   2.613 -0.1623  0.3867  0.2449
 1084SOL    HW113111   2.898   3.137   2.531 -0.5589 -0.2710  0.7453
 1084SOL    HW213112   2.874   3.196   2.682  0.2547 -1.0823  1.1980
 1085SOL     OW13113   3.699   9.942   1.466 -0.8334 -0.1169  0.3397
 1085SOL    HW113114   3.774   9.953   1.401  0.8871  0.7200  2.4156
 1085SOL    HW213115   3.715   9.860   1.522 -1.8601 -0.3511  0.3005
 1086SOL     OW13116   4.283   2.465   2.522  0.2707 -0.1278 -0.1972
 1086SOL    HW113117   4.283   2.554   2.475 -0.6961 -0.1542 -0.2740
 1086SOL    HW213118   4.240   2.476   2.612  2.3128 -0.0292  0.7889
 1087SOL     OW13119   3.414   0.921   2.195  0.5405 -0.3073  0.1111
 1087SOL    HW113120   3.357   0.841   2.182  0.9480 -0.8052  1.3676
 1087SOL    HW213121   3.394   0.963   2.283 -0.1139  1.3404 -0.8020
 1088SOL     OW13122   3.519   8.564   2.645  1.0141  0.3804  0.1138
 1088SOL    HW113123   3.492   8.576   2.549  0.3789  0.0674  0.2474
 1088SOL    HW213124   3.568   8.644   2.677  1.8888  0.1759 -0.7047
 1089SOL     OW13125   2.565   0.218   0.769  0.1494 -0.5397 -0.3847
 1089SOL    HW113126   2.529   0.296   0.717 -0.1272  0.4103  1.2068
 1089SOL    HW213127   2.665   0.223   0.772  0.0774  0.4637  0.7721
 1090SOL     OW13128   2.126   5.959   1.751  0.1360 -0.3892 -0.2424
 1090SOL    HW113129   2.103   5.899   1.675 -1.7599  1.0364 -0.8486
 1090SOL    HW213130   2.224   5.976   1.753  0.3185 -1.2429 -1.7546
 1091SOL     OW13131   2.298   5.287   1.921 -0.3530 -0.0571 -0.8485
 1091SOL    HW113132   2.259   5.378   1.916  0.8359  0.5733  0.8685
 1091SOL    HW213133   2.319   5.254   1.828 -0.7105  1.4277 -1.4632
 1092SOL     OW13134   2.589   6.290   2.424 -1.1457 -0.2465 -0.4730
 1092SOL    HW113135   2.529   6.218   2.460 -0.2706 -0.7300  0.0339
 1092SOL    HW213136   2.658   6.250   2.364  0.0876  0.0004  0.7557
 1093SOL     OW13137   3.906   1.665   2.160 -0.1179  0.3560  0.7216
 1093SOL    HW113138   3.835   1.642   2.227 -1.6835 -0.8087 -1.3057
 1093SOL    HW213139   3.878   1.634   2.070  3.3138 -0.7788 -0.0200
 1094SOL     OW13140   1.742   2.243   0.529  0.3159  0.6533  0.4564
 1094SOL    HW113141   1.817   2.246   0.594 -0.4088 -2.8517  1.5480
 1094SOL    HW213142   1.753   2.165   0.468 -1.4829  1.1514 -0.5675
 1095SOL     OW13143   3.517   4.244   0.768 -0.5780 -0.1377 -0.6239
 1095SOL    HW113144   3.594   4.182   0.783 -0.7683 -0.4290 -0.8486
 1095SOL    HW213145   3.549   4.338   0.770 -0.4116 -0.2158  0.4742
 1096SOL     OW13146   2.348   7.016   1.757 -0.2633  0.1743  0.0147
 1096SOL    HW113147   2.435   7.065   1.751 -1.2422  2.1786  1.5337
 1096SOL    HW213148   2.350   6.954   1.835 -0.2107  0.2090  0.0407
 1097SOL     OW13149   3.721   4.164   1.041 -0.6898  0.0576 -0.1932
 1097SOL    HW113150   3.770   4.105   1.106 -1.4248 -0.3782 -0.0296
 1097SOL    HW213151   3.712   4.117   0.953  0.5497  0.7577 -0.7156
 1098SOL     OW13152   2.869   7.613   0.025 -0.1706 -0.2820  0.0995
 1098SOL    HW113153   2.838   7.523  -0.006 -0.0854 -0.5943  0.9083
 1098SOL    HW213154   2.807   7.683  -0.011 -1.2551 -0.8128  0.8947
 1099SOL     OW13155   2.775   0.886   0.809 -0.2383  0.2011  0.0102
 1099SOL    HW113156   2.697   0.908   0.751 -1.5136 -1.7417  0.9341
 1099SOL    HW213157   2.783   0.787   0.818  1.1311  0.4270  1.5646
 1100SOL     OW13158   2.999   6.462   0.004  0.8051  0.4994 -0.2085
 1100SOL    HW113159   2.969   6.493   0.094  1.8201  0.1885  0.2414
 1100SOL    HW213160   2.919   6.451  -0.055 -0.0083 -0.4642  1.0215
 1101SOL     OW13161   4.453   2.280   0.593  0.3419 -0.4099 -0.6821
 1101SOL    HW113162   4.503   2.273   0.680  0.6725 -0.4185 -0.8735
 1101SOL    HW213163   4.482   2.206   0.532  1.9688  1.0925 -1.7630
 1102SOL     OW13164   2.020   5.422   2.081 -0.4418 -0.4106  0.3910
 1102SOL    HW113165   2.051   5.486   2.011 -0.8885 -0.8605 -0.2187
 1102SOL    HW213166   2.008   5.332   2.041  0.0734 -0.8600  1.2239
 1103SOL     OW13167   3.469   9.219   1.251  0.9063  0.3069  0.6315
 1103SOL    HW113168   3.495   9.144   1.191 -1.6404  0.0110 -0.1575
 1103SOL    HW213169   3.493   9.306   1.208  0.4211  0.0487 -0.1748
 1104SOL     OW13170   3.873   0.669   2.321  0.5943 -0.1655  0.2590
 1104SOL    HW113171   3.936   0.633   2.391  1.8633  2.1017  0.3476
 1104SOL    HW213172   3.783   0.684   2.362  1.1987  0.6998  1.3166
 1105SOL     OW13173   3.548   9.661   0.027 -0.1887 -0.3089  0.3958
 1105SOL    HW113174   3.628   9.710  -0.007  0.1267 -0.6550  0.6316
 1105SOL    HW213175   3.472   9.725   0.041 -0.2889 -0.1478 -0.8661
 1106SOL     OW13176   2.283   9.436   2.372 -0.7638  0.3935  0.7133
 1106SOL    HW113177   2.269   9.357   2.432 -0.0599 -1.2818 -1.2729
 1106SOL    HW213178   2.196   9.484   2.360 -1.5465 -0.9680  0.7417
 1107SOL     OW13179   2.760   5.365   2.471 -0.2767 -0.2935 -0.1337
 1107SOL    HW113180   2.797   5.426   2.401  1.0000 -1.5884 -0.6174
 1107SOL    HW213181   2.720   5.419   2.544  1.2016  1.1453 -0.3579
 1108SOL     OW13182   2.242   3.103   0.176  0.5482 -0.6692 -0.0453
 1108SOL    HW113183   2.233   3.201   0.196  1.7714 -0.3774 -0.8537
 1108SOL    HW213184   2.326   3.088   0.123 -0.8457 -1.8372 -1.9921
 1109SOL     OW13185   1.869   5.352   0.264 -0.7485 -0.0870 -0.3911
 1109SOL    HW113186   1.868   5.253   0.249 -2.1952 -0.1072 -0.2349
 1109SOL    HW213187   1.881   5.399   0.176 -1.0853 -0.3786 -0.5947
 1110SOL     OW13188   4.400   2.636   0.251 -0.1913 -0.0493  0.2110
 1110SOL    HW113189   4.443   2.644   0.162  1.6546  2.7317  1.3069
 1110SOL    HW213190   4.463   2.592   0.315  0.5662  2.7638  1.4640
 1111SOL     OW13191   3.910   8.670   1.154  0.2988 -0.7892  0.3442
 1111SOL    HW113192   3.899   8.588   1.098  0.8420 -0.7903  0.2393
 1111SOL    HW213193   3.840   8.672   1.226  0.9713 -1.9014  1.0388
 1112SOL     OW13194   2.493   5.132   1.145 -0.1296  0.1067 -0.5759
 1112SOL    HW113195   2.426   5.201   1.118 -0.9453 -0.6554 -0.4810
 1112SOL    HW213196   2.499   5.061   1.075  0.2225 -0.0889 -0.3515
 1113SOL     OW13197   3.648   5.399   0.078  0.0747  0.2328 -0.3036
 1113SOL    HW113198   3.683   5.395  -0.016  1.5426 -1.6359  0.3017
 1113SOL    HW213199   3.693   5.472   0.128  1.8783 -1.0022 -0.0627
 1114SOL     OW13200   1.660   7.958   0.552 -0.2982  0.4256 -0.1718
 1114SOL    HW113201   1.694   8.052   0.546  2.2092 -0.2310  2.2855
 1114SOL    HW213202   1.595   7.951   0.628  0.8210 -0.1194  0.7675
 1115SOL     OW13203   3.531   5.382   2.267  0.1135  0.0622  0.3723
 1115SOL    HW113204   3.580   5.374   2.180  0.7110 -0.3847  0.7493
 1115SOL    HW213205   3.435   5.404   2.249 -0.1824 -1.8745 -0.4568
 1116SOL     OW13206   4.345   2.449   1.754  0.1676 -0.1778  0.3006
 1116SOL    HW113207   4.278   2.422   1.822 -0.0216 -0.0451  0.1691
 1116SOL    HW213208   4.415   2.506   1.797 -0.3663  0.5339  0.2355
 1117SOL     OW13209   2.228   2.180   0.984  0.6089 -0.1210  0.0252
 1117SOL    HW113210   2.290   2.116   0.938  0.8553  0.6052 -0.6726
 1117SOL    HW213211   2.269   2.211   1.069  1.7942  1.3383 -1.0463
 1118SOL     OW13212   3.689   4.744   1.488  0.7650  0.1085  0.2734
 1118SOL    HW113213   3.710   4.662   1.436 -0.9523  0.3186 -0.8169
 1118SOL    HW213214   3.610   4.727   1.548  0.1663  1.0341 -0.2244
 1119SOL     OW13215   2.632   0.095   1.021 -0.6058  0.2230  0.3367
 1119SOL    HW113216   2.569   0.022   1.050 -0.2230 -0.6414 -0.9734
 1119SOL    HW213217   2.601   0.134   0.935  1.0595 -0.7456 -0.7295
 1120SOL     OW13218   4.125   4.705   1.770 -0.9055 -0.2095  0.6374
 1120SOL    HW113219   4.026   4.699   1.779 -1.1301  1.7438 -0.3847
 1120SOL    HW213220   4.167   4.703   1.861 -1.7494 -2.5213  1.0211
 1121SOL     OW13221   3.888   8.749   0.837 -0.6582  0.5857 -0.1839
 1121SOL    HW113222   3.830   8.667   0.830  0.1552 -0.0721  0.6917
 1121SOL    HW213223   3.903   8.770   0.933  2.2328 -0.4548 -0.3673
 1122SOL     OW13224   1.939   2.769   1.546  0.2648  0.1075 -0.4416
 1122SOL    HW113225   1.930   2.864   1.517  1.4412  0.4410  0.2580
 1122SOL    HW213226   2.035   2.741   1.540 -0.2721 -1.5108 -2.0875
 1123SOL     OW13227   3.937   3.302   0.330 -0.1479  1.2308 -0.0719
 1123SOL    HW113228   4.029   3.263   0.336  0.0584  1.6753 -0.3536
 1123SOL    HW213229   3.873   3.244   0.382 -0.3705 -1.0843 -2.8381
 1124SOL     OW13230   1.955   2.404   2.149 -0.2604 -0.4420  0.2494
 1124SOL    HW113231   1.988   2.493   2.119  0.1041 -1.1464 -1.5029
 1124SOL    HW213232   1.882   2.416   2.217 -0.8697  1.1857 -0.6819
 1125SOL     OW13233   2.881   4.076   1.722  0.6761  0.4229  0.3835
 1125SOL    HW113234   2.882   4.174   1.740  1.8279  0.8687 -1.9232
 1125SOL    HW213235   2.789   4.040   1.737 -0.1310  2.1683 -0.2347
 1126SOL     OW13236   4.286   3.035   1.599  0.1855  0.3675  0.0996
 1126SOL    HW113237   4.375   3.051   1.643  0.4282 -0.3642 -0.1288
 1126SOL    HW213238   4.229   2.979   1.659 -0.2184  1.0600  0.3615
 1127SOL     OW13239   1.958   6.829   2.534  0.0600 -0.3642  0.1713
 1127SOL    HW113240   2.044   6.878   2.520  0.8271 -1.5773  0.5337
 1127SOL    HW213241   1.970   6.761   2.607 -0.6369 -1.8777 -1.0899
 1128SOL     OW13242   3.023   1.269   0.703  0.2240  0.0842  0.1327
 1128SOL    HW113243   3.014   1.364   0.733 -0.2073 -0.2689  1.1157
 1128SOL    HW213244   2.936   1.237   0.666  0.2657 -0.0462  0.1459
 1129SOL     OW13245   2.021   8.081   1.669 -0.0768  0.3975  0.6315
 1129SOL    HW113246   1.979   8.103   1.581  4.4324  0.2123 -1.7407
 1129SOL    HW213247   2.009   7.984   1.688 -1.0935  0.4446  0.2822
 1130SOL     OW13248   2.730   7.880   2.117 -0.3010 -0.0221 -0.4423
 1130SOL    HW113249   2.774   7.940   2.184 -0.7612  0.7256 -0.8029
 1130SOL    HW213250   2.743   7.785   2.144  1.2291  0.1983 -0.3619
 1131SOL     OW13251   3.219   9.156   1.521 -0.0017  0.1123 -0.4615
 1131SOL    HW113252   3.247   9.175   1.615 -0.6208 -0.0740 -0.2324
 1131SOL    HW213253   3.134   9.205   1.502  0.6840  0.9863 -1.2694
 1132SOL     OW13254   1.921   1.634   1.284  0.1395  0.1256  0.0070
 1132SOL    HW113255   1.943   1.721   1.329 -0.2019  0.0088  0.4064
 1132SOL    HW213256   1.993   1.568   1.305  0.6112  0.4324 -0.6411
 1133SOL     OW13257   2.790   3.157   2.328 -0.2870  0.3295 -0.2292
 1133SOL    HW113258   2.864   3.099   2.293  0.1942 -0.2184  1.6428
 1133SOL    HW213259   2.708   3.144   2.272  0.8997  0.6159 -2.0624
 1134SOL     OW13260   2.402   3.549   0.014  0.2224  0.4038  0.4983
 1134SOL    HW113261   2.316   3.500  -0.002 -0.5004  2.1330 -1.1615
 1134SOL    HW213262   2.462   3.537  -0.065 -0.1507  2.4970 -0.1374
 1135SOL     OW13263   2.795   3.742   0.987 -0.1065  0.2130 -0.4099
 1135SOL    HW113264   2.729   3.797   1.039 -0.9189 -0.4167 -0.7719
 1135SOL    HW213265   2.873   3.800   0.962  0.5528  0.3976  1.9336
 1136SOL     OW13266   3.623   2.918   0.959  0.5265 -0.4750  0.1300
 1136SOL    HW113267   3.596   2.824   0.939  0.7462 -0.9606  2.0486
 1136SOL    HW213268   3.652   2.963   0.874 -0.1316 -1.9395 -0.8924
 1137SOL     OW13269   3.085   3.641   1.182  0.0495  0.0384  0.5522
 1137SOL    HW113270   3.071   3.645   1.281 -2.0378 -0.0117  0.2802
 1137SOL    HW213271   3.030   3.567   1.144  1.9008 -0.8178 -0.4882
 1138SOL     OW13272   2.089   0.739   0.347  0.4485 -0.4016  0.5582
 1138SOL    HW113273   2.098   0.762   0.250  2.4668  1.7902  1.2139
 1138SOL    HW213274   2.177   0.753   0.393 -0.3517 -1.8897  2.6275
 1139SOL     OW13275   3.286   2.829   1.683  0.2085  0.8112  0.6103
 1139SOL    HW113276   3.356   2.823   1.755 -1.1206 -1.0982  1.8143
 1139SOL    HW213277   3.202   2.868   1.722 -0.1783  0.7602 -0.1702
 1140SOL     OW13278   5.186   3.067   0.515  0.3578  0.4018  0.0248
 1140SOL    HW113279   5.198   3.092   0.611  3.3232 -0.1671 -0.1487
 1140SOL    HW213280   5.267   3.095   0.464 -0.8718  0.0024 -2.1782
 1141SOL     OW13281   2.671   3.281   1.088 -0.2504  0.0634  0.1909
 1141SOL    HW113282   2.607   3.275   1.164 -0.6874 -0.5905 -0.2181
 1141SOL    HW213283   2.659   3.368   1.040  0.7538  0.9416  1.4944
 1142SOL     OW13284   3.911   9.176   2.092  0.0703  0.2053 -0.1662
 1142SOL    HW113285   4.010   9.165   2.089  0.3703  2.0060  1.5064
 1142SOL    HW213286   3.883   9.248   2.028  0.2128  1.6936  1.4052
 1143SOL     OW13287   2.539   5.820   1.425 -0.0663  0.0559 -0.2211
 1143SOL    HW113288   2.484   5.877   1.365 -1.5391 -0.0288  1.0471
 1143SOL    HW213289   2.625   5.867   1.446 -0.8079  1.3457 -0.0290
 1144SOL     OW13290   3.378   9.223   0.097 -0.2302 -0.2572 -0.1034
 1144SOL    HW113291   3.284   9.221   0.133  0.2525  2.5611  1.4743
 1144SOL    HW213292   3.397   9.315   0.062  2.1670 -0.6578  0.1309
 1145SOL     OW13293   4.249   4.709   1.339 -0.1227 -0.3558  0.0592
 1145SOL    HW113294   4.190   4.728   1.417  0.2618 -0.1557  0.3053
 1145SOL    HW213295   4.301   4.625   1.355 -0.6830 -0.7880 -0.3606
 1146SOL     OW13296   2.099   2.962   2.024  0.7497  0.1934 -0.2634
 1146SOL    HW113297   2.023   2.989   2.082  1.0933  2.2110 -0.7190
 1146SOL    HW213298   2.065   2.917   1.941 -0.0966  2.8452 -1.4085
 1147SOL     OW13299   3.470   0.171   0.203 -0.5020  0.8880 -0.2642
 1147SOL    HW113300   3.510   0.080   0.215  1.0775  1.5797 -0.0812
 1147SOL    HW213301   3.544   0.238   0.191 -1.6832  1.9372 -1.8726
 1148SOL     OW13302   3.293   4.486   1.450 -0.0122 -0.4249  0.3051
 1148SOL    HW113303   3.216   4.447   1.400  0.9284 -0.1532 -1.3875
 1148SOL    HW213304   3.311   4.579   1.418 -0.0076  0.1291  1.8493
 1149SOL     OW13305   2.773   7.803   0.657 -0.4029  0.5728 -0.4907
 1149SOL    HW113306   2.825   7.732   0.610  0.5384  0.8130  0.1838
 1149SOL    HW213307   2.720   7.762   0.731 -1.7256  0.2254 -1.6028
 1150SOL     OW13308   3.163   5.414   0.806 -0.3029 -1.1501 -0.1524
 1150SOL    HW113309   3.090   5.415   0.739 -0.1117 -1.3763 -0.3642
 1150SOL    HW213310   3.245   5.457   0.768 -0.9347  0.9716  0.7841
 1151SOL     OW13311   2.924   4.311   1.034  0.4512 -0.1605  0.6673
 1151SOL    HW113312   2.944   4.268   1.122 -0.6389 -1.6543  0.2213
 1151SOL    HW213313   3.009   4.333   0.987  1.0367 -0.6764  1.4820
 1152SOL     OW13314   1.898   3.870   0.947 -0.2597 -0.2015  0.0024
 1152SOL    HW113315   1.819   3.808   0.944 -1.4501  1.2229  1.5253
 1152SOL    HW213316   1.981   3.818   0.967 -0.8208 -1.6850 -1.4218
 1153SOL     OW13317   1.944   2.351   0.297  0.0863 -0.0617 -0.0384
 1153SOL    HW113318   1.993   2.407   0.364 -0.8059  1.0937 -0.3200
 1153SOL    HW213319   1.861   2.314   0.339  0.1388 -0.3157 -0.1583
 1154SOL     OW13320   3.428   0.018   1.580  0.4631 -0.1488  0.5595
 1154SOL    HW113321   3.419   0.023   1.680  3.4483 -0.0968  0.8759
 1154SOL    HW213322   3.523   0.000   1.556 -0.7844 -3.5858 -2.2189
 1155SOL     OW13323   2.631   2.037   2.200 -0.1244  0.2901 -0.1056
 1155SOL    HW113324   2.595   2.122   2.162  2.5222  0.9317 -1.2984
 1155SOL    HW213325   2.661   2.053   2.294 -2.6066 -0.1939  0.8186
 1156SOL     OW13326   3.935   4.567   1.245  0.6956  0.3265 -0.1393
 1156SOL    HW113327   3.920   4.591   1.149 -0.6252  2.1379  0.4986
 1156SOL    HW213328   4.011   4.620   1.281  1.1368 -0.2923 -0.1435
 1157SOL     OW13329   3.067   0.379   1.523 -0.5633  0.3800 -0.2645
 1157SOL    HW113330   3.051   0.445   1.596  0.5231 -0.1018  0.4264
 1157SOL    HW213331   3.165   0.358   1.517 -0.4888  1.1741 -2.5363
 1158SOL     OW13332   1.962   8.948   2.204  0.3405  0.4800 -0.0032
 1158SOL    HW113333   2.013   8.863   2.192  0.0968  0.2974  0.2595
 1158SOL    HW213334   2.013   9.010   2.264  0.4053  0.4257 -0.0020
 1159SOL     OW13335   3.766   3.802   2.556 -0.0724  0.0327  0.0957
 1159SOL    HW113336   3.770   3.702   2.566  1.8642  0.1907  1.0727
 1159SOL    HW213337   3.848   3.834   2.510 -0.6302  1.2119 -0.1024
 1160SOL     OW13338   2.061   8.232   0.185 -0.3217  0.2617  0.1833
 1160SOL    HW113339   2.134   8.234   0.116 -0.2780 -0.0648  0.2191
 1160SOL    HW213340   1.990   8.298   0.160 -0.1683  0.3489 -0.0219
 1161SOL     OW13341   3.532   4.795   2.284 -0.0640 -0.1801 -0.9344
 1161SOL    HW113342   3.513   4.843   2.369  1.4087  0.1860 -0.8068
 1161SOL    HW213343   3.453   4.738   2.260 -0.3482 -0.5542  0.8445
 1162SOL     OW13344   2.488   0.613   1.123 -0.2467  0.2368  0.2387
 1162SOL    HW113345   2.588   0.607   1.121 -0.2970 -0.5961 -2.2431
 1162SOL    HW213346   2.456   0.600   1.217  1.9198 -0.3987  0.9333
 1163SOL     OW13347   2.712   1.305   0.820  0.0330  0.2112 -0.0805
 1163SOL    HW113348   2.651   1.381   0.800 -1.2274 -0.5648  0.7675
 1163SOL    HW213349   2.743   1.310   0.915 -2.0467 -1.6921  0.7344
 1164SOL     OW13350   2.091   5.624   0.208 -0.4443  0.2459 -0.6454
 1164SOL    HW113351   2.040   5.558   0.153  0.2978  0.1309 -1.2028
 1164SOL    HW213352   2.053   5.626   0.301 -1.7105  0.4561 -1.1568
 1165SOL     OW13353   4.202   1.977   1.045  0.0538  0.1544  0.0228
 1165SOL    HW113354   4.287   1.964   0.995 -0.1118  1.0273 -0.4980
 1165SOL    HW213355   4.222   2.014   1.136  0.1406  1.8963 -0.6881
 1166SOL     OW13356   2.012   7.559   1.465  0.0845  0.1274  0.9217
 1166SOL    HW113357   1.960   7.644   1.469 -1.9347 -1.0487  0.1956
 1166SOL    HW213358   2.064   7.556   1.380 -1.0957 -0.0716  0.2020
 1167SOL     OW13359   3.268   4.320   0.708  0.1940 -0.1045 -0.0066
 1167SOL    HW113360   3.238   4.306   0.614  0.2980 -0.6983  0.0508
 1167SOL    HW213361   3.364   4.293   0.718  0.1579 -0.1285  0.2936
 1168SOL     OW13362   2.241   7.945   2.126  0.1890  0.1600 -0.6105
 1168SOL    HW113363   2.319   7.926   2.067  0.6904 -1.0586  0.4024
 1168SOL    HW213364   2.157   7.919   2.079  0.5972 -1.0323 -0.7147
 1169SOL     OW13365   4.010   8.056   0.468  0.0532 -0.4694 -0.2257
 1169SOL    HW113366   4.024   7.964   0.431  0.4920 -0.1623 -0.8341
 1169SOL    HW213367   4.090   8.113   0.448 -0.0228 -0.0834  0.5447
 1170SOL     OW13368   2.921   4.737   0.710 -0.0794 -0.1337  0.0871
 1170SOL    HW113369   3.006   4.685   0.718  1.1502  1.9441  1.0867
 1170SOL    HW213370   2.866   4.724   0.793 -0.6704 -1.2993 -0.4662
 1171SOL     OW13371   3.113   0.819   1.308  0.5937 -0.1746  1.1092
 1171SOL    HW113372   3.192   0.881   1.311  0.5583 -0.0924  0.5284
 1171SOL    HW213373   3.145   0.725   1.304  0.7414 -0.0496 -1.9718
 1172SOL     OW13374   3.293   1.195   0.956  0.6588  0.1124 -0.3727
 1172SOL    HW113375   3.313   1.243   0.871 -0.7659 -0.8254 -1.2655
 1172SOL    HW213376   3.326   1.101   0.950 -0.2347 -0.2197 -0.2504
 1173SOL     OW13377   4.887   3.477   0.935 -0.4649 -0.3405 -0.0439
 1173SOL    HW113378   4.977   3.440   0.912 -0.6142 -0.6783 -0.0991
 1173SOL    HW213379   4.819   3.440   0.870 -0.4932  0.6117 -0.5544
 1174SOL     OW13380   1.987   9.264   1.606  0.4737  0.2035  0.2732
 1174SOL    HW113381   1.903   9.310   1.634 -0.2346 -1.6072  1.2737
 1174SOL    HW213382   2.003   9.186   1.668  1.7211 -0.7476 -1.2239
 1175SOL     OW13383   1.581   6.870   1.064 -0.2562 -0.0317 -0.4759
 1175SOL    HW113384   1.614   6.779   1.089 -0.6616 -0.4411 -1.3835
 1175SOL    HW213385   1.605   6.936   1.135 -0.0615 -0.8742  0.2419
 1176SOL     OW13386   4.261   4.735   2.008 -0.2113 -0.0595  0.3214
 1176SOL    HW113387   4.239   4.789   2.090  0.2923  0.3285  0.2062
 1176SOL    HW213388   4.350   4.692   2.019 -0.1794 -0.0735  0.0080
 1177SOL     OW13389   4.498   4.578   2.079 -0.4343  0.4256  0.1574
 1177SOL    HW113390   4.581   4.628   2.056 -0.1212 -0.0420  0.2678
 1177SOL    HW213391   4.488   4.574   2.179  0.4857 -1.2563  0.2060
 1178SOL     OW13392   3.437   4.621   2.539 -0.5524 -0.1715 -0.1077
 1178SOL    HW113393   3.419   4.707   2.490 -0.3710 -0.3839 -0.5474
 1178SOL    HW213394   3.521   4.631   2.593 -1.4075  0.4739  1.1352
 1179SOL     OW13395   2.909   2.820   2.450  0.2535 -0.2756  0.2567
 1179SOL    HW113396   2.935   2.890   2.383  1.1562  0.4851  1.3948
 1179SOL    HW213397   2.853   2.751   2.404 -0.0614  0.8031 -1.0485
 1180SOL     OW13398   2.546   6.672   0.832  0.3117 -0.3220 -0.7210
 1180SOL    HW113399   2.533   6.734   0.755 -1.7629  0.2209  0.0398
 1180SOL    HW213400   2.492   6.589   0.817  0.1090 -0.3267  0.0203
 1181SOL     OW13401   2.258   7.114   2.611  0.2023 -0.0903 -0.2031
 1181SOL    HW113402   2.240   7.018   2.636  0.1910  0.4291  1.8440
 1181SOL    HW213403   2.172   7.165   2.611  0.2740  0.0272 -0.8046
 1182SOL     OW13404   3.738   8.360   0.581  0.1298  0.2012  0.6047
 1182SOL    HW113405   3.829   8.401   0.570 -0.4372  1.4572  0.4303
 1182SOL    HW213406   3.707   8.323   0.493  0.5670 -0.4289  0.7161
 1183SOL     OW13407   4.238   0.664   2.182 -0.3147 -0.2453 -0.0218
 1183SOL    HW113408   4.280   0.654   2.092  0.3853 -0.1738  0.2964
 1183SOL    HW213409   4.167   0.734   2.178 -0.2572 -0.2161 -0.5089
 1184SOL     OW13410   2.640   3.700   0.103 -1.2750 -0.6325  0.3930
 1184SOL    HW113411   2.562   3.640   0.084 -1.7957  0.5704 -1.4025
 1184SOL    HW213412   2.719   3.667   0.051 -1.0164 -0.9113  0.9594
 1185SOL     OW13413   2.753   5.096   0.880 -0.0732  0.4128  0.1966
 1185SOL    HW113414   2.756   5.046   0.966 -1.5736  0.3193  0.2198
 1185SOL    HW213415   2.822   5.061   0.817  0.3932 -0.1542  1.0227
 1186SOL     OW13416   4.235   4.176   0.283 -0.2238  0.2225  0.0601
 1186SOL    HW113417   4.315   4.236   0.278 -1.3024  1.8181  1.4567
 1186SOL    HW213418   4.152   4.232   0.289 -1.5176 -1.4072 -1.9067
 1187SOL     OW13419   2.772   7.971   0.214  0.1746 -0.0770 -0.2629
 1187SOL    HW113420   2.755   7.883   0.258 -1.9034  0.2854 -0.3095
 1187SOL    HW213421   2.859   8.008   0.247  0.7830 -1.8692  0.1923
 1188SOL     OW13422   3.757   9.075   2.287 -0.0627  0.1632  0.8163
 1188SOL    HW113423   3.824   9.110   2.221 -0.4209 -1.4025 -0.4162
 1188SOL    HW213424   3.805   9.040   2.367  0.4721  0.6340  0.7080
 1189SOL     OW13425   2.325   6.470   0.760 -0.3189 -0.0047  0.2437
 1189SOL    HW113426   2.267   6.396   0.791  0.2613  0.0900  1.5670
 1189SOL    HW213427   2.394   6.435   0.696 -1.6683 -0.1482 -1.1735
 1190SOL     OW13428   3.168   8.637   2.448 -1.0824  0.0599 -0.2191
 1190SOL    HW113429   3.139   8.713   2.389 -1.4381  0.6129  0.6520
 1190SOL    HW213430   3.267   8.625   2.441 -1.1793 -0.2074 -1.3002
 1191SOL     OW13431   2.008   5.837   2.196  0.2182 -0.3913  0.3102
 1191SOL    HW113432   2.076   5.800   2.259  0.2971  0.1298  0.5399
 1191SOL    HW213433   1.927   5.779   2.195 -0.5024  0.5366  2.2445
 1192SOL     OW13434   1.895   5.626   0.423  0.2233 -0.3585 -0.5614
 1192SOL    HW113435   1.834   5.553   0.394 -0.5598  0.9134 -2.1800
 1192SOL    HW213436   1.966   5.589   0.483 -0.1951 -2.4184 -1.3246
 1193SOL     OW13437   3.248   9.929   2.001 -0.2769  0.3296  0.3127
 1193SOL    HW113438   3.206  10.003   2.052  2.2202  2.0296  0.0138
 1193SOL    HW213439   3.308   9.967   1.930 -0.0604 -1.9736 -0.7882
 1194SOL     OW13440   2.966   5.001   0.711  0.7268 -0.0600  0.8769
 1194SOL    HW113441   3.061   5.027   0.700  0.7059 -0.6919 -1.0877
 1194SOL    HW213442   2.958   4.901   0.710 -0.0532  0.0007 -0.0540
 1195SOL     OW13443   3.699   2.046   2.469 -0.2815 -0.3769 -0.2500
 1195SOL    HW113444   3.796   2.058   2.447 -0.1794 -1.6322 -0.5225
 1195SOL    HW213445   3.687   2.040   2.568 -0.1070 -0.0279 -0.2073
 1196SOL     OW13446   3.744   1.148   1.977  0.3555 -0.6774  0.4366
 1196SOL    HW113447   3.708   1.215   2.042  0.3124 -0.8627  0.6070
 1196SOL    HW213448   3.833   1.179   1.942  0.3806 -0.5784  0.5889
 1197SOL     OW13449   2.111   6.566   1.741 -0.4984 -0.2103 -0.2470
 1197SOL    HW113450   2.163   6.579   1.825  0.3915  1.0136 -0.9757
 1197SOL    HW213451   2.084   6.470   1.732 -0.4056 -0.3838  1.3111
 1198SOL     OW13452   5.195   1.877   0.298  0.0278  0.1193 -0.2823
 1198SOL    HW113453   5.188   1.884   0.198  0.7370 -2.4407 -0.5459
 1198SOL    HW213454   5.147   1.795   0.329 -0.4035  1.0286  1.5304
 1199SOL     OW13455   3.838   4.108   2.232 -0.6422 -0.2420 -0.3483
 1199SOL    HW113456   3.753   4.109   2.286 -0.1017 -1.0921  0.5352
 1199SOL    HW213457   3.824   4.157   2.147 -1.2491  1.9841  0.9968
 1200SOL     OW13458   2.591   5.164   2.396 -0.3204 -0.0930 -0.4582
 1200SOL    HW113459   2.662   5.232   2.412 -1.4086  1.3906 -1.7716
 1200SOL    HW213460   2.501   5.206   2.408 -1.0189 -1.1752 -1.7619
 1201SOL     OW13461   2.950   0.269   0.385  0.0360 -0.3969 -0.0608
 1201SOL    HW113462   3.040   0.259   0.429  1.1169  2.0879 -1.6149
 1201SOL    HW213463   2.946   0.210   0.304  0.5931  0.1197 -0.4674
 1202SOL     OW13464   1.855   8.904   2.647  0.3823 -0.5348  0.5300
 1202SOL    HW113465   1.798   8.882   2.726 -2.3150  1.7544 -0.7065
 1202SOL    HW213466   1.879   8.819   2.600  0.3554 -1.7593  2.6387
 1203SOL     OW13467   2.688   9.467   1.955 -0.2894 -0.5095 -0.5295
 1203SOL    HW113468   2.687   9.490   1.857 -0.9282 -0.4741 -0.5151
 1203SOL    HW213469   2.603   9.421   1.979 -0.0997 -0.5820 -0.0016
 1204SOL     OW13470   2.303   4.081   2.669 -0.5540 -0.0782 -0.0056
 1204SOL    HW113471   2.254   4.107   2.752 -0.9414  0.4136 -0.3796
 1204SOL    HW213472   2.349   3.993   2.682  0.4919  0.6395  1.1735
 1205SOL     OW13473   2.997   2.950   1.724  0.1102 -0.4145  0.3935
 1205SOL    HW113474   2.954   2.862   1.744  2.7660 -2.0178 -0.6856
 1205SOL    HW213475   2.946   2.997   1.651 -0.8352 -1.4338  0.3930
 1206SOL     OW13476   1.869   7.998   1.405 -0.1034  0.1576 -0.2713
 1206SOL    HW113477   1.820   8.051   1.336 -1.3852 -0.3760  0.2279
 1206SOL    HW213478   1.917   7.922   1.361 -0.5930  0.0485 -0.6207
 1207SOL     OW13479   3.323   1.791   0.487 -0.0994  0.1783 -0.2231
 1207SOL    HW113480   3.276   1.876   0.511 -1.6020 -0.8214  0.4586
 1207SOL    HW213481   3.391   1.769   0.557 -0.7734  0.0399  0.3959
 1208SOL     OW13482   2.082   8.704   2.159 -0.0487  0.6879  0.3041
 1208SOL    HW113483   2.175   8.721   2.126 -1.0674  1.4471 -2.3835
 1208SOL    HW213484   2.058   8.608   2.143  0.5869  0.2589  1.8717
 1209SOL     OW13485   1.925   8.427   0.029  0.0416 -0.8526  0.5850
 1209SOL    HW113486   1.846   8.366   0.027 -0.6624  0.0806 -0.2984
 1209SOL    HW213487   1.956   8.444  -0.065 -0.1624  0.6494  0.7794
 1210SOL     OW13488   3.317   9.254   1.749 -0.3654  0.5819 -0.3727
 1210SOL    HW113489   3.233   9.303   1.727 -0.5578  0.4605  0.0803
 1210SOL    HW213490   3.367   9.304   1.820  0.7102  1.4595 -1.7153
 1211SOL     OW13491   3.522   4.683   0.873  0.5118 -0.9245  0.2217
 1211SOL    HW113492   3.438   4.715   0.829  0.7317  0.0205  0.4575
 1211SOL    HW213493   3.501   4.605   0.932 -0.3390 -0.2380  0.8478
 1212SOL     OW13494   1.860   7.531   2.576  0.1055  0.4648 -0.0474
 1212SOL    HW113495   1.922   7.571   2.644 -0.3393 -0.8438  1.1516
 1212SOL    HW213496   1.914   7.497   2.498  0.5913  2.2151 -0.4805
 1213SOL     OW13497   3.705   3.435   1.981 -0.0844 -0.3510  1.1099
 1213SOL    HW113498   3.698   3.510   2.048 -0.9006 -0.9165  1.6618
 1213SOL    HW213499   3.790   3.446   1.928 -0.3886  1.1824  0.9119
 1214SOL     OW13500   1.970   7.907   2.048  0.8311 -0.1778  0.4575
 1214SOL    HW113501   1.981   7.999   2.011  1.4767 -0.5832 -0.3750
 1214SOL    HW213502   1.873   7.888   2.064  0.7729  0.9771  1.4923
 1215SOL     OW13503   2.129   9.549   1.749 -0.0411  0.0149 -0.1509
 1215SOL    HW113504   2.126   9.608   1.829  0.2647 -0.9709  0.5985
 1215SOL    HW213505   2.213   9.494   1.751  0.4647  0.7131 -1.6662
 1216SOL     OW13506   1.810   9.162   2.568 -0.1067  0.0643  0.3826
 1216SOL    HW113507   1.824   9.065   2.591  1.8117  0.3021  0.3232
 1216SOL    HW213508   1.713   9.178   2.550 -0.7319 -1.4539  2.2059
 1217SOL     OW13509   1.951   3.454   0.221  0.2732  0.6535 -0.3974
 1217SOL    HW113510   1.878   3.388   0.239  1.7619 -0.6026  1.2494
 1217SOL    HW213511   1.934   3.537   0.275  1.7283 -0.9085  2.6210
 1218SOL     OW13512   3.657   2.319   1.888 -0.1937  0.4062 -0.1955
 1218SOL    HW113513   3.733   2.331   1.824  0.9911 -1.3466  0.8307
 1218SOL    HW213514   3.692   2.285   1.975 -2.0303  0.7261  0.6882
 1219SOL     OW13515   3.357   0.865   0.135 -0.3735 -0.0657  0.3590
 1219SOL    HW113516   3.297   0.790   0.163 -1.1828  0.8499  1.1040
 1219SOL    HW213517   3.394   0.846   0.044 -0.6714 -1.2993  0.4850
 1220SOL     OW13518   2.094   9.015   1.208  0.0710 -0.2287  0.4297
 1220SOL    HW113519   2.042   9.099   1.222 -0.8928 -0.7926  0.2778
 1220SOL    HW213520   2.054   8.942   1.263  1.9641 -0.1709  1.9342
 1221SOL     OW13521   3.541   2.510   1.341 -0.5115  0.2742 -0.2238
 1221SOL    HW113522   3.588   2.422   1.346  1.2083  1.1968  0.0592
 1221SOL    HW213523   3.581   2.566   1.268 -0.3311  1.5537  0.8379
 1222SOL     OW13524   3.127   4.097   1.106 -0.3396  0.0088  0.2373
 1222SOL    HW113525   3.165   4.169   1.048 -0.2289 -2.0836 -2.3439
 1222SOL    HW213526   3.202   4.047   1.149 -0.3274 -0.4412 -0.3040
 1223SOL     OW13527   2.410   3.839   2.617 -0.3839 -0.3095 -0.2728
 1223SOL    HW113528   2.502   3.806   2.601  0.3866  0.3666  2.4629
 1223SOL    HW213529   2.374   3.798   2.701 -0.8119  2.9174  1.1716
 1224SOL     OW13530   1.855   5.592   2.241  0.3921 -0.6801 -0.3996
 1224SOL    HW113531   1.918   5.555   2.173 -0.3921 -0.8732 -1.0287
 1224SOL    HW213532   1.761   5.584   2.207 -0.0638 -1.4163  0.9860
 1225SOL     OW13533   1.729   2.412   2.317  0.1419  0.0028 -1.0470
 1225SOL    HW113534   1.642   2.363   2.313  0.7415 -1.0516 -1.2040
 1225SOL    HW213535   1.714   2.502   2.359 -0.8075 -0.6641  0.0798
 1226SOL     OW13536   3.988   1.980   0.864 -0.1248  0.0018 -0.1217
 1226SOL    HW113537   4.074   1.962   0.911  0.0550  2.2047  0.4414
 1226SOL    HW213538   3.913   1.984   0.930 -0.6703 -1.8413 -0.6013
 1227SOL     OW13539   2.778   9.599   0.686 -0.2471 -0.0199 -0.0060
 1227SOL    HW113540   2.838   9.590   0.766  0.3491 -1.8570 -0.6104
 1227SOL    HW213541   2.700   9.656   0.708 -1.1236 -2.1100  2.5308
 1228SOL     OW13542   3.076   4.844   1.208  0.0792  0.5459  0.9053
 1228SOL    HW113543   3.113   4.931   1.241  0.7555  0.5832  0.0631
 1228SOL    HW213544   3.081   4.841   1.109 -1.2844  0.1329  0.8440
 1229SOL     OW13545   1.809   0.797   1.781  0.4669 -0.0671  0.2875
 1229SOL    HW113546   1.902   0.762   1.767 -0.0670 -1.3817 -0.1263
 1229SOL    HW213547   1.790   0.868   1.714  0.4900 -1.1993 -0.9465
 1230SOL     OW13548   3.468   4.109   2.036 -0.1392 -0.1705  0.2159
 1230SOL    HW113549   3.481   4.067   1.947  2.9736  1.7380 -0.2973
 1230SOL    HW213550   3.496   4.205   2.033 -0.1904 -0.0017  3.1819
 1231SOL     OW13551   4.598   2.567   0.829 -0.3448  0.3119  0.2686
 1231SOL    HW113552   4.587   2.624   0.747 -1.6411  1.8981  1.5036
 1231SOL    HW213553   4.508   2.535   0.858  0.1716 -0.6616  0.7967
 1232SOL     OW13554   1.654   3.185   1.266 -0.0258  0.4779 -0.0957
 1232SOL    HW113555   1.726   3.223   1.324 -1.6486  1.8260  1.1021
 1232SOL    HW213556   1.594   3.127   1.321  0.1065 -0.6170 -1.0768
 1233SOL     OW13557   3.900   1.320   1.312  0.3019 -0.0025 -0.1614
 1233SOL    HW113558   3.902   1.274   1.401  1.0285 -1.8602 -1.1034
 1233SOL    HW213559   3.929   1.415   1.323 -0.0090 -0.0925  1.6381
 1234SOL     OW13560   3.996   4.344   1.435 -0.2545  0.0095 -0.3969
 1234SOL    HW113561   3.954   4.421   1.387 -0.8945  0.0334  0.1965
 1234SOL    HW213562   3.926   4.279   1.462 -0.0504  0.5372  1.4917
 1235SOL     OW13563   2.043   1.296   2.666 -0.4504 -0.0525 -0.3882
 1235SOL    HW113564   1.970   1.363   2.654 -1.0436 -0.4268  0.9886
 1235SOL    HW213565   2.008   1.217   2.716  1.0560  0.1067  0.9757
 1236SOL     OW13566   1.827   0.800   1.390  0.4496  0.0744  0.2882
 1236SOL    HW113567   1.813   0.832   1.296 -0.0051  0.1427  0.3779
 1236SOL    HW213568   1.831   0.880   1.451 -2.3711 -0.0693  0.7441
 1237SOL     OW13569   2.506   2.587   0.060  0.1276  0.3639  0.5464
 1237SOL    HW113570   2.589   2.604   0.007 -0.3112  1.5667  0.2262
 1237SOL    HW213571   2.435   2.651   0.031 -0.9741 -0.7825  0.6801
 1238SOL     OW13572   1.984   2.414   1.736  0.0652  0.3347 -0.0253
 1238SOL    HW113573   2.021   2.490   1.789 -0.4370 -0.2435  1.1675
 1238SOL    HW213574   1.934   2.353   1.796  0.1705 -0.7645 -1.0377
 1239SOL     OW13575   3.113   5.381   1.077  0.7132 -0.2053 -0.0873
 1239SOL    HW113576   3.056   5.459   1.104  1.2288  0.2463 -0.3018
 1239SOL    HW213577   3.132   5.385   0.979  0.4659 -0.7853 -0.1637
 1240SOL     OW13578   4.646   3.674   0.349 -0.1676  0.1394 -0.6783
 1240SOL    HW113579   4.703   3.686   0.268 -0.0476 -2.8070 -1.1192
 1240SOL    HW213580   4.704   3.667   0.430  0.0485 -1.2181 -0.9250
 1241SOL     OW13581   4.175   4.442   1.658 -0.3107  0.4026 -0.3700
 1241SOL    HW113582   4.125   4.434   1.571  0.4722  0.3035 -0.8109
 1241SOL    HW213583   4.167   4.536   1.691  0.6328  0.8300 -1.3125
 1242SOL     OW13584   3.169   4.270   1.644  0.2806 -0.1261  0.6077
 1242SOL    HW113585   3.141   4.176   1.624  2.2955 -0.4161 -0.9514
 1242SOL    HW213586   3.142   4.329   1.568  2.0856 -0.0509  0.0232
 1243SOL     OW13587   2.359   2.566   1.378 -0.1630 -0.6070  0.6072
 1243SOL    HW113588   2.267   2.603   1.389 -0.5630 -0.7949 -1.8036
 1243SOL    HW213589   2.377   2.498   1.449 -2.3485 -1.4852  0.3458
 1244SOL     OW13590   1.838   1.901   1.662  0.2751  0.0445  0.0643
 1244SOL    HW113591   1.806   1.809   1.685  0.1991 -0.5927 -2.4124
 1244SOL    HW213592   1.760   1.961   1.648  0.2777 -0.0408 -0.3219
 1245SOL     OW13593   2.684   2.162   0.496  0.0197 -0.7552  0.4500
 1245SOL    HW113594   2.585   2.170   0.502 -0.1672 -2.7542  0.4262
 1245SOL    HW213595   2.715   2.187   0.404 -0.4368 -0.0276  0.4904
 1246SOL     OW13596   4.128   2.957   1.809  0.3205  0.0098 -0.2519
 1246SOL    HW113597   4.033   2.941   1.836  0.2220 -0.4176 -0.8280
 1246SOL    HW213598   4.152   3.052   1.825 -1.0018  0.7589 -2.4670
 1247SOL     OW13599   2.045   3.447   0.581  0.0141  0.9180  0.1738
 1247SOL    HW113600   1.945   3.444   0.580  0.0093  1.3089 -0.9973
 1247SOL    HW213601   2.081   3.361   0.546  0.0529  1.7771 -2.0068
 1248SOL     OW13602   2.588   4.927   0.567 -0.2411  0.1648  0.7577
 1248SOL    HW113603   2.570   4.869   0.647 -1.7135  0.2852  0.5262
 1248SOL    HW213604   2.529   4.900   0.492 -0.1077  1.2093  0.2637
 1249SOL     OW13605   2.646   0.457   1.785  0.1539  0.2462 -0.6101
 1249SOL    HW113606   2.709   0.420   1.853 -1.7483 -0.3621  0.8902
 1249SOL    HW213607   2.655   0.407   1.700  1.4524 -0.0486 -0.3034
 1250SOL     OW13608   2.546   5.125   1.401  0.1883 -0.4112  0.4804
 1250SOL    HW113609   2.501   5.205   1.439 -0.6302 -0.4427 -0.4222
 1250SOL    HW213610   2.528   5.119   1.303  1.3843 -0.9376  0.2766
 1251SOL     OW13611   1.942   8.039   2.670  0.1484 -0.3675 -0.2644
 1251SOL    HW113612   2.028   8.088   2.655  0.5857 -1.3565 -1.1016
 1251SOL    HW213613   1.955   7.969   2.740 -0.6449  1.1065  1.3982
 1252SOL     OW13614   4.730   3.271   0.519  0.4163 -0.2462 -0.0847
 1252SOL    HW113615   4.825   3.290   0.495  0.4785  0.7679  0.9396
 1252SOL    HW213616   4.687   3.218   0.446  2.3742 -2.5908  0.4140
 1253SOL     OW13617   2.725   8.528   0.559  0.3453  0.0494 -0.2834
 1253SOL    HW113618   2.671   8.526   0.642  0.3113 -0.2350 -0.3141
 1253SOL    HW213619   2.761   8.621   0.545  1.8016 -0.3006  0.9845
 1254SOL     OW13620   2.560   0.833   2.096 -0.5227  0.5398  0.2985
 1254SOL    HW113621   2.479   0.777   2.109  1.0378 -1.6919  0.7686
 1254SOL    HW213622   2.605   0.807   2.011  0.2659  1.0248  0.5604
 1255SOL     OW13623   4.415   1.241   0.124  0.0093 -0.0967  0.4201
 1255SOL    HW113624   4.387   1.250   0.028  0.5517  0.9118  0.3472
 1255SOL    HW213625   4.480   1.313   0.146  0.1414 -0.5310  1.4613
 1256SOL     OW13626   2.266   1.150   0.221 -0.4310 -0.2190  0.2030
 1256SOL    HW113627   2.249   1.248   0.231 -0.2560 -0.1569 -0.0812
 1256SOL    HW213628   2.342   1.123   0.280  0.3327  0.0635 -0.6371
 1257SOL     OW13629   2.913   0.764   1.543 -0.3136  0.0653 -0.0565
 1257SOL    HW113630   2.973   0.790   1.467 -0.0247  0.7351  0.3937
 1257SOL    HW213631   2.818   0.768   1.513 -0.1221 -1.8007 -1.0228
 1258SOL     OW13632   3.756   3.379   0.123  0.5196 -0.0308  0.2844
 1258SOL    HW113633   3.810   3.325   0.188  3.0493 -0.6599 -2.2441
 1258SOL    HW213634   3.689   3.320   0.079  0.6489 -0.2232  0.3423
 1259SOL     OW13635   1.874   2.044   1.206 -0.1094  0.6465 -0.6507
 1259SOL    HW113636   1.903   2.025   1.299 -1.7749  0.8048 -0.0699
 1259SOL    HW213637   1.891   1.964   1.148 -0.2219  0.0918  0.0797
 1260SOL     OW13638   4.611   4.355   2.459  0.4854  0.1598  0.3198
 1260SOL    HW113639   4.665   4.345   2.376  0.2097 -0.1994  0.1824
 1260SOL    HW213640   4.629   4.277   2.520 -0.1658 -0.1609  0.1078
 1261SOL     OW13641   2.246   7.672   1.192 -0.1323  0.3280  0.1648
 1261SOL    HW113642   2.210   7.579   1.183 -1.8372  0.7842  1.9362
 1261SOL    HW213643   2.307   7.677   1.271  1.0999  0.3817 -0.7813
 1262SOL     OW13644   3.742   8.502   0.293 -0.0804 -0.4857  0.0472
 1262SOL    HW113645   3.701   8.575   0.239  2.5879  1.2080  0.2015
 1262SOL    HW213646   3.793   8.542   0.369 -0.4696 -2.6520  1.4986
 1263SOL     OW13647   1.883   2.010   0.049 -0.2185  0.2863 -0.2190
 1263SOL    HW113648   1.868   1.911   0.047 -0.8022  0.3660  0.1596
 1263SOL    HW213649   1.975   2.029   0.083  1.0856 -0.2261 -3.3055
 1264SOL     OW13650   3.369   5.259   1.808  0.1693 -0.4311  0.5219
 1264SOL    HW113651   3.388   5.347   1.851 -0.1039  0.3433 -0.8947
 1264SOL    HW213652   3.438   5.241   1.737 -0.7596 -0.5457 -0.3614
 1265SOL     OW13653   3.793   3.510   2.580 -0.3618 -0.4436 -0.3867
 1265SOL    HW113654   3.769   3.474   2.670  0.8208  0.9558  0.4954
 1265SOL    HW213655   3.879   3.469   2.550 -0.1442 -0.0175 -0.3490
 1266SOL     OW13656   2.122   7.999   0.809  0.5129 -0.5948 -0.2433
 1266SOL    HW113657   2.221   7.986   0.797  0.7588  2.4763 -2.1601
 1266SOL    HW213658   2.073   7.958   0.732  0.6899  1.9170 -1.7642
 1267SOL     OW13659   3.652   1.058   1.715 -0.0073 -0.6169  0.0400
 1267SOL    HW113660   3.581   0.987   1.715 -0.3803 -0.2600  0.8529
 1267SOL    HW213661   3.670   1.086   1.809  0.3353  0.1699 -0.2565
 1268SOL     OW13662   2.539   9.750   0.792  0.0233  0.2157  0.5024
 1268SOL    HW113663   2.501   9.842   0.781  0.0865  0.1871  0.0660
 1268SOL    HW213664   2.480   9.684   0.747 -0.7828 -0.1284  2.0213
 1269SOL     OW13665   3.911   8.940   0.651  0.2655  0.5482 -0.2719
 1269SOL    HW113666   3.959   9.025   0.674  2.4045 -0.1176 -2.0892
 1269SOL    HW213667   3.907   8.880   0.731  3.5126  0.1510 -0.3579
 1270SOL     OW13668   4.994   1.531   0.678 -0.1322  0.3135  0.3649
 1270SOL    HW113669   5.069   1.485   0.725 -0.2315  0.4757  0.6825
 1270SOL    HW213670   4.932   1.571   0.745 -1.2345 -0.9788  0.1179
 1271SOL     OW13671   2.019   7.775   1.747 -0.3195 -0.1905  0.1873
 1271SOL    HW113672   2.014   7.723   1.832 -1.6330  0.4310  0.4907
 1271SOL    HW213673   1.932   7.770   1.699 -0.6099  2.0426  0.4207
 1272SOL     OW13674   2.736   7.747   1.331 -0.0408 -0.4039 -0.3799
 1272SOL    HW113675   2.722   7.653   1.362 -0.5152  0.0608  0.8183
 1272SOL    HW213676   2.652   7.799   1.344  0.8134  0.7100  0.8246
 1273SOL     OW13677   3.011   4.672   1.633 -0.0863 -0.0946  0.8797
 1273SOL    HW113678   3.054   4.617   1.705 -2.7928 -1.1484  1.7579
 1273SOL    HW213679   2.997   4.765   1.667  0.4972 -0.0520  1.0009
 1274SOL     OW13680   3.699   2.316   2.295  0.2155  0.4951  0.1403
 1274SOL    HW113681   3.686   2.258   2.376 -0.5639 -0.0460 -0.3633
 1274SOL    HW213682   3.765   2.273   2.234  0.8320  0.9218  0.4931
 1275SOL     OW13683   4.392   3.613   0.475 -0.5639  0.2118  0.2676
 1275SOL    HW113684   4.479   3.627   0.428 -1.0315  0.9816 -0.3845
 1275SOL    HW213685   4.346   3.533   0.437 -0.3190  0.0314  0.3504
 1276SOL     OW13686   2.809   0.134   1.705  0.4433 -0.1124  0.2716
 1276SOL    HW113687   2.782   0.037   1.703  0.9200 -0.2185 -0.9289
 1276SOL    HW213688   2.758   0.184   1.636  1.3449  0.2013 -0.1652
 1277SOL     OW13689   2.048   0.548   0.727 -0.4988  0.1646  0.5239
 1277SOL    HW113690   2.081   0.635   0.692 -1.3350  0.1816 -0.2482
 1277SOL    HW213691   2.008   0.561   0.818 -0.9104  0.6563  0.2760
 1278SOL     OW13692   3.403   0.018   2.587  0.5711 -0.3825 -0.3466
 1278SOL    HW113693   3.356   0.025   2.675  2.1580 -0.9820  0.5715
 1278SOL    HW213694   3.491   0.065   2.592  0.5174 -0.1106 -1.7391
 1279SOL     OW13695   2.270   6.826   0.317  0.2519  0.2995 -0.2412
 1279SOL    HW113696   2.232   6.860   0.404  0.1108  1.8470 -0.8869
 1279SOL    HW213697   2.284   6.727   0.323  2.8424  0.7344  2.5512
 1280SOL     OW13698   2.479   6.970   1.479 -0.1611 -0.1720 -0.8182
 1280SOL    HW113699   2.531   7.031   1.539 -1.9295  0.0613  0.5221
 1280SOL    HW213700   2.461   7.016   1.392 -0.9544  1.0222 -0.0422
 1281SOL     OW13701   2.741   8.914   0.001  0.1470 -0.2983 -0.3224
 1281SOL    HW113702   2.820   8.857  -0.022  0.3820 -0.4288  0.7606
 1281SOL    HW213703   2.719   8.902   0.098 -0.2691  0.8872 -0.2693
 1282SOL     OW13704   3.186   1.393   0.033  0.3901 -0.0021  0.0668
 1282SOL    HW113705   3.230   1.324   0.091 -1.6098  0.1765  1.8897
 1282SOL    HW213706   3.196   1.483   0.076  0.3884  0.4093 -0.7814
 1283SOL     OW13707   2.930   4.196   0.175 -0.4741 -0.3028  0.6213
 1283SOL    HW113708   2.903   4.130   0.245 -1.2507  0.7022  1.2858
 1283SOL    HW213709   2.944   4.286   0.217 -2.4844  0.6808 -0.7249
 1284SOL     OW13710   3.091   8.411   2.073  0.3036 -0.0688  0.4374
 1284SOL    HW113711   3.114   8.336   2.134 -0.8277 -0.3626  0.5079
 1284SOL    HW213712   3.011   8.388   2.019  0.4358  0.7610 -0.1354
 1285SOL     OW13713   1.991   7.286   1.605  0.5460 -0.2172  0.4395
 1285SOL    HW113714   2.025   7.356   1.542  1.6092  0.3210  1.5910
 1285SOL    HW213715   1.927   7.328   1.669 -2.1771 -1.1714 -1.5480
 1286SOL     OW13716   3.059   7.800   0.113  0.1881 -0.0159 -1.1375
 1286SOL    HW113717   3.004   7.720   0.091  0.3392 -0.5219  0.2687
 1286SOL    HW213718   3.004   7.864   0.167  0.1637  0.7068 -1.9943
 1287SOL     OW13719   3.573   5.756   0.571  0.4861  0.5754  0.5143
 1287SOL    HW113720   3.501   5.800   0.624 -1.1457 -0.8907 -0.4384
 1287SOL    HW213721   3.621   5.690   0.628 -1.6588 -1.4338  0.0912
 1288SOL     OW13722   3.912   9.898   0.185 -0.4443  0.3908 -0.1411
 1288SOL    HW113723   3.860   9.875   0.102 -0.8899 -0.5999  0.4036
 1288SOL    HW213724   3.961   9.983   0.170 -0.6907  0.3364 -1.3578
 1289SOL     OW13725   2.761   7.412   1.032  0.5525 -0.2229  0.2104
 1289SOL    HW113726   2.794   7.506   1.038 -0.6476  0.2270 -0.0724
 1289SOL    HW213727   2.670   7.406   1.073  0.5705 -1.2323  0.1107
 1290SOL     OW13728   2.402   3.576   0.279  0.2844  0.3137 -0.7172
 1290SOL    HW113729   2.491   3.599   0.318  2.3532 -1.5636 -4.1050
 1290SOL    HW213730   2.410   3.567   0.180 -3.2606 -1.7901 -0.8949
 1291SOL     OW13731   2.094   3.979   2.542 -0.0212 -0.0383 -0.1756
 1291SOL    HW113732   2.173   4.033   2.572 -0.3362 -0.0107  0.6018
 1291SOL    HW213733   2.092   3.977   2.442  0.0898  1.2436 -0.2125
 1292SOL     OW13734   2.361   6.127   0.818  0.0425  0.3048  0.8327
 1292SOL    HW113735   2.409   6.195   0.761  0.9856 -1.0729 -0.0670
 1292SOL    HW213736   2.267   6.117   0.786  0.0569  0.7872  0.6301
 1293SOL     OW13737   3.731   4.693   2.111  0.1461 -0.1258  0.2991
 1293SOL    HW113738   3.664   4.720   2.180 -1.1876 -1.2871 -0.5008
 1293SOL    HW213739   3.764   4.601   2.131 -1.0708 -0.9088 -1.1907
 1294SOL     OW13740   3.110   8.440   0.493  0.0112 -0.0652 -0.0086
 1294SOL    HW113741   3.142   8.397   0.577 -0.3544 -0.6841 -0.1904
 1294SOL    HW213742   3.013   8.421   0.481 -0.3269  1.4007  0.2849
 1295SOL     OW13743   2.213   9.803   0.397 -0.1137 -0.2774  0.4148
 1295SOL    HW113744   2.158   9.846   0.469 -1.0026  0.6748 -0.8051
 1295SOL    HW213745   2.293   9.860   0.378  1.6236 -1.9208  2.5493
 1296SOL     OW13746   2.340   3.062   0.998 -0.1271  0.0578  0.0628
 1296SOL    HW113747   2.318   3.159   0.991 -0.8559  0.0257  1.5838
 1296SOL    HW213748   2.329   3.018   0.909 -3.2938  0.6530  0.1128
 1297SOL     OW13749   2.893   3.085   1.055 -0.4972  0.0537 -0.0972
 1297SOL    HW113750   2.811   3.132   1.088 -0.1506  0.7508 -0.2129
 1297SOL    HW213751   2.950   3.059   1.133 -1.4410 -1.5871  0.0629
 1298SOL     OW13752   2.103   9.245   0.642  0.4922  0.3338  0.1798
 1298SOL    HW113753   2.004   9.254   0.639  0.7239  3.0044 -0.3644
 1298SOL    HW213754   2.128   9.188   0.721 -1.4341  0.0733  0.6352
 1299SOL     OW13755   2.992   3.001   2.231 -0.3656  0.0737 -0.0170
 1299SOL    HW113756   3.082   2.960   2.246 -0.3662 -0.1268 -0.5389
 1299SOL    HW213757   2.985   3.032   2.136 -1.0207 -0.3578 -0.1175
 1300SOL     OW13758   3.185   3.961   2.080 -0.0533 -0.3824 -0.2171
 1300SOL    HW113759   3.145   3.966   1.989 -1.3914 -2.1567  0.2480
 1300SOL    HW213760   3.281   3.990   2.076  0.2612 -1.6352 -2.4071
 1301SOL     OW13761   3.046   1.309   2.467  0.4529 -0.5661 -0.1190
 1301SOL    HW113762   2.990   1.391   2.454  1.6398  0.6999  2.3663
 1301SOL    HW213763   3.107   1.323   2.545  1.0531 -3.6383  0.0095
 1302SOL     OW13764   2.362   1.197   2.618 -0.2752 -0.5019 -0.2078
 1302SOL    HW113765   2.275   1.190   2.668 -0.9010 -1.2493 -1.3537
 1302SOL    HW213766   2.395   1.105   2.597  0.7724 -0.2180  0.1679
 1303SOL     OW13767   3.139   8.935   0.063 -0.2865 -1.1038  0.1977
 1303SOL    HW113768   3.181   8.948  -0.027 -1.0078 -0.0881  0.0084
 1303SOL    HW213769   3.085   9.015   0.087 -0.6934 -1.6769  1.2253
 1304SOL     OW13770   3.783   1.917   1.047 -0.7104 -0.1066  0.1146
 1304SOL    HW113771   3.689   1.950   1.043  0.0396  1.9166 -2.0463
 1304SOL    HW213772   3.783   1.817   1.044 -2.6729 -0.1029 -4.2961
 1305SOL     OW13773   3.131   8.835   1.021  0.4133 -0.1124  0.5656
 1305SOL    HW113774   3.035   8.807   1.022  0.6793 -1.2002 -1.3475
 1305SOL    HW213775   3.163   8.848   1.115 -1.2490 -0.9730  1.2754
 1306SOL     OW13776   4.026   2.307   2.509  0.3992  0.0216  0.2157
 1306SOL    HW113777   3.956   2.362   2.555  0.2786  0.2917 -0.2917
 1306SOL    HW213778   4.103   2.365   2.483 -0.1631  0.1472 -1.2054
 1307SOL     OW13779   2.758   9.900   2.650 -0.9671 -0.3519  0.3015
 1307SOL    HW113780   2.727   9.819   2.601 -0.9643  0.4858 -1.1382
 1307SOL    HW213781   2.789   9.875   2.742 -0.1056 -2.1054 -0.4469
 1308SOL     OW13782   2.937   1.043   2.139  0.5018 -0.1126 -0.3359
 1308SOL    HW113783   3.023   1.083   2.169 -0.9767  2.4351  0.5895
 1308SOL    HW213784   2.955   0.976   2.067  3.2465  0.2955 -0.0756
 1309SOL     OW13785   4.190   1.909   2.593  0.2925 -0.1077  0.0703
 1309SOL    HW113786   4.112   1.919   2.655 -0.9303  0.3368 -1.5255
 1309SOL    HW213787   4.207   1.811   2.577 -0.9066 -0.1829 -0.7847
 1310SOL     OW13788   4.844   3.012   0.100  0.4811 -0.3041  0.2666
 1310SOL    HW113789   4.771   3.073   0.068  0.3515 -0.6536 -0.1129
 1310SOL    HW213790   4.876   3.043   0.189  0.6063  0.4795 -0.0423
 1311SOL     OW13791   2.595   1.252   2.014 -0.5533  0.1097  0.9053
 1311SOL    HW113792   2.653   1.331   2.031 -1.4216  1.0984 -0.6210
 1311SOL    HW213793   2.649   1.168   2.021  0.8160  0.9553  0.5332
 1312SOL     OW13794   3.786   5.397   1.584  0.7349  0.6997  0.2135
 1312SOL    HW113795   3.755   5.474   1.641 -1.2115  0.5978 -0.6768
 1312SOL    HW213796   3.799   5.429   1.490  1.2407  0.2485  0.1339
 1313SOL     OW13797   3.006   8.051   1.005  0.1112 -0.6882  0.0873
 1313SOL    HW113798   3.013   7.955   0.978  0.0811 -0.7465  0.2822
 1313SOL    HW213799   2.975   8.056   1.100 -0.8010 -0.4699 -0.2147
 1314SOL     OW13800   4.179   3.763   0.607 -0.2343  0.5158  0.3622
 1314SOL    HW113801   4.177   3.822   0.526  0.5311  2.0377  1.4360
 1314SOL    HW213802   4.252   3.695   0.597 -0.3441  0.4963 -0.3455
 1315SOL     OW13803   3.525   2.676   0.899  0.1361  0.6730  0.2711
 1315SOL    HW113804   3.492   2.656   0.807 -0.4555 -0.7694  0.7867
 1315SOL    HW213805   3.471   2.624   0.966 -1.1413  3.6378  1.6347
 1316SOL     OW13806   2.862   8.282   1.242 -0.1722  0.2981 -0.0549
 1316SOL    HW113807   2.786   8.308   1.182 -1.0469  2.0820  1.7387
 1316SOL    HW213808   2.938   8.346   1.228  0.7050 -1.0064 -1.2827
 1317SOL     OW13809   3.578   8.638   1.358 -0.0634  0.6690  0.1601
 1317SOL    HW113810   3.671   8.639   1.397 -0.1105 -0.9721  0.3326
 1317SOL    HW213811   3.540   8.730   1.361  1.1205  1.1361  1.1699
 1318SOL     OW13812   3.336   2.510   1.003 -0.6523  0.1294  0.4783
 1318SOL    HW113813   3.274   2.583   0.973 -3.3574 -1.8104  1.1869
 1318SOL    HW213814   3.340   2.439   0.933 -0.4944 -0.5377  1.1645
 1319SOL     OW13815   2.015   7.305   0.726  0.1989 -0.2442  0.1935
 1319SOL    HW113816   1.963   7.220   0.732 -0.1414 -0.1051 -0.7152
 1319SOL    HW213817   2.097   7.290   0.672  0.8588 -0.3430  1.2235
 1320SOL     OW13818   2.751   2.609   2.309  0.5483  0.6554 -0.2804
 1320SOL    HW113819   2.678   2.541   2.299  0.9590  0.3018 -0.9290
 1320SOL    HW213820   2.787   2.632   2.218  1.8333  0.1755  0.0958
 1321SOL     OW13821   3.459   1.213   1.463  0.0281  0.4593  0.5463
 1321SOL    HW113822   3.557   1.203   1.480 -0.0335 -1.8522 -0.3230
 1321SOL    HW213823   3.444   1.232   1.366 -0.4499 -0.3914  0.4487
 1322SOL     OW13824   2.732   7.484   2.160  0.3972  0.3687  0.2695
 1322SOL    HW113825   2.812   7.536   2.190  0.5973 -0.6234  1.4738
 1322SOL    HW213826   2.728   7.485   2.060  1.0510  1.7029  0.2362
 1323SOL     OW13827   1.755   0.992   1.149 -0.0648  0.3308  0.6006
 1323SOL    HW113828   1.845   1.027   1.123  0.4196 -1.1040  0.2973
 1323SOL    HW213829   1.686   1.026   1.085  0.0429  2.4592  1.5563
 1324SOL     OW13830   1.869   7.692   0.439  0.2269 -0.3013 -0.2871
 1324SOL    HW113831   1.872   7.675   0.538  1.5850 -0.5656 -0.3571
 1324SOL    HW213832   1.882   7.605   0.391 -0.1460 -0.1286 -0.6997
 1325SOL     OW13833   3.692   0.195   1.765  0.4753  0.0462 -0.3365
 1325SOL    HW113834   3.711   0.265   1.834  0.5097 -0.0930 -0.2034
 1325SOL    HW213835   3.768   0.191   1.700  0.4719  0.1343 -0.3464
 1326SOL     OW13836   2.120   3.671   0.314  0.3399  0.0867  0.2471
 1326SOL    HW113837   2.199   3.613   0.295 -0.8717 -0.4845 -3.4997
 1326SOL    HW213838   2.106   3.734   0.238 -2.8761  0.0725  0.7407
 1327SOL     OW13839   4.300   1.627   1.547 -0.0256  0.2830  0.1798
 1327SOL    HW113840   4.314   1.691   1.471  1.0700  0.2345  0.3205
 1327SOL    HW213841   4.269   1.677   1.628  0.6054  0.6164  0.2227
 1328SOL     OW13842   4.524   3.882   0.216  0.1073  0.0588  0.4670
 1328SOL    HW113843   4.436   3.876   0.170 -0.3937  0.8012  1.3166
 1328SOL    HW213844   4.539   3.799   0.270  0.4326 -0.5499 -0.5253
 1329SOL     OW13845   2.768   3.206   1.891 -0.4658  0.3589 -0.2238
 1329SOL    HW113846   2.735   3.131   1.834 -1.0356 -0.8514  1.6507
 1329SOL    HW213847   2.857   3.181   1.930  0.4659  1.6502 -1.4600
 1330SOL     OW13848   2.571   3.881   1.133  0.2601  0.7201  0.0358
 1330SOL    HW113849   2.519   3.965   1.150 -1.1604 -0.2589  0.6332
 1330SOL    HW213850   2.516   3.819   1.076  2.0514  0.9501 -2.0106
 1331SOL     OW13851   2.004   9.937   0.291  0.2480  0.1527 -0.3070
 1331SOL    HW113852   2.022   9.991   0.209  0.5473 -0.7252 -0.8330
 1331SOL    HW213853   2.081   9.874   0.307  0.1454  0.2520  0.5853
 1332SOL     OW13854   2.442   1.863   1.083 -0.1198 -0.0566  0.8052
 1332SOL    HW113855   2.479   1.775   1.111  1.9664  0.4804 -0.2185
 1332SOL    HW213856   2.429   1.921   1.163  0.3681 -0.5873  1.2685
 1333SOL     OW13857   3.469   9.867   1.309 -0.5758  1.0240  0.1079
 1333SOL    HW113858   3.436   9.940   1.249  1.8993  0.7979 -1.6130
 1333SOL    HW213859   3.522   9.907   1.383 -2.0400  1.1655  1.1099
 1334SOL     OW13860   2.484   4.924   2.184  0.0478  0.5349  0.0266
 1334SOL    HW113861   2.556   4.890   2.245  0.1917  0.8879  0.0541
 1334SOL    HW213862   2.475   5.023   2.195 -1.0536  0.3682  0.6731
 1335SOL     OW13863   4.631   0.742   0.865  0.0043  0.3233 -0.3832
 1335SOL    HW113864   4.536   0.722   0.889 -0.3263  0.7932 -1.2746
 1335SOL    HW213865   4.672   0.663   0.821  0.3724 -0.2666  0.9897
 1336SOL     OW13866   2.555   1.038   0.729 -0.4635  0.0702  0.4272
 1336SOL    HW113867   2.473   1.073   0.683 -1.3619 -1.5834  0.7127
 1336SOL    HW213868   2.620   1.112   0.744 -1.8543  1.3742  0.0678
 1337SOL     OW13869   2.989   1.505   0.848 -0.0436  0.0830  0.3722
 1337SOL    HW113870   2.950   1.596   0.863 -1.3818 -0.3034 -0.6684
 1337SOL    HW213871   2.944   1.439   0.908 -0.0757 -0.1370  0.1090
 1338SOL     OW13872   2.449   1.812   0.533 -0.1827 -0.0103 -0.1933
 1338SOL    HW113873   2.407   1.767   0.612  0.2315  2.5267  1.5484
 1338SOL    HW213874   2.410   1.774   0.449 -1.1333 -2.3051  1.2128
 1339SOL     OW13875   2.574   3.218   1.547  0.1823  0.1820 -0.1064
 1339SOL    HW113876   2.550   3.246   1.640 -0.8683  0.5281 -0.4682
 1339SOL    HW213877   2.605   3.123   1.547  3.8209  1.3092  1.1479
 1340SOL     OW13878   3.588   1.423   1.164  0.1019  0.3883 -0.2008
 1340SOL    HW113879   3.571   1.324   1.165  1.0087  0.2174  2.6543
 1340SOL    HW213880   3.507   1.470   1.132 -0.8704 -1.2167 -0.1728
 1341SOL     OW13881   3.444   2.500   2.519 -0.1342  0.5223  0.5427
 1341SOL    HW113882   3.483   2.511   2.427 -0.4262  0.6663  0.4339
 1341SOL    HW213883   3.486   2.421   2.563  1.9748  2.0302  1.3262
 1342SOL     OW13884   3.112   9.397   1.717  0.3511 -0.2812 -0.0649
 1342SOL    HW113885   3.058   9.420   1.799  0.2787 -1.8482  0.3376
 1342SOL    HW213886   3.051   9.361   1.647  0.7559 -1.2219  0.0683
 1343SOL     OW13887   1.839   9.624   0.845 -0.4749 -0.1943 -0.5431
 1343SOL    HW113888   1.936   9.602   0.841 -0.3312  0.4793 -0.8063
 1343SOL    HW213889   1.823   9.691   0.918 -0.5025  0.8726 -1.5012
 1344SOL     OW13890   3.638   9.245   2.580 -0.1622 -0.0738 -0.0419
 1344SOL    HW113891   3.570   9.316   2.597 -0.4250 -0.1973 -0.5611
 1344SOL    HW213892   3.599   9.155   2.600 -0.1615 -0.1493 -0.3813
 1345SOL     OW13893   3.642   9.016   0.608 -0.2677  0.0968  0.5077
 1345SOL    HW113894   3.740   8.996   0.612 -0.2580  0.2301  0.9954
 1345SOL    HW213895   3.600   8.961   0.535  0.3736  0.9267 -0.4990
 1346SOL     OW13896   2.532   2.120   1.548 -0.6633 -0.0764 -0.3631
 1346SOL    HW113897   2.453   2.103   1.607  1.4505 -2.0478  2.0534
 1346SOL    HW213898   2.513   2.088   1.456 -1.4976 -3.7800  1.0175
 1347SOL     OW13899   2.716   0.409   0.283  0.1849 -0.5296  0.0978
 1347SOL    HW113900   2.802   0.370   0.317 -0.7330 -2.3907  0.3367
 1347SOL    HW213901   2.655   0.428   0.360  0.6863  1.5705 -0.0030
 1348SOL     OW13902   3.649   0.763   0.056  0.3572  0.1035 -0.2308
 1348SOL    HW113903   3.693   0.686   0.009  1.5933  0.8313 -0.2853
 1348SOL    HW213904   3.634   0.739   0.152 -0.3894 -0.6585 -0.5284
 1349SOL     OW13905   1.973   5.314   2.329 -0.2080  0.0250  0.0977
 1349SOL    HW113906   2.029   5.380   2.379 -0.1910 -0.4555  0.7183
 1349SOL    HW213907   1.962   5.345   2.235  0.8070  0.3042  0.0610
 1350SOL     OW13908   4.646   2.883   1.476  0.3224 -0.7251  0.0006
 1350SOL    HW113909   4.736   2.920   1.497 -0.3670  0.5876  0.7325
 1350SOL    HW213910   4.602   2.851   1.561 -0.2896 -0.4537 -0.2108
 1351SOL     OW13911   2.915   5.738   2.013 -0.1616  0.0337 -0.5113
 1351SOL    HW113912   2.863   5.820   2.035  1.6321  1.2751 -0.7590
 1351SOL    HW213913   3.002   5.740   2.062  0.6254 -0.8739 -1.8270
 1352SOL     OW13914   3.472   5.172   2.434 -0.4472  0.2877 -0.2902
 1352SOL    HW113915   3.493   5.249   2.373 -1.7166  0.2486 -0.7949
 1352SOL    HW213916   3.416   5.106   2.385 -1.7982  0.4270  1.0438
 1353SOL     OW13917   4.606   3.138   0.307 -0.4166  0.0477 -0.0514
 1353SOL    HW113918   4.608   3.047   0.348 -0.5568 -0.6032 -1.4472
 1353SOL    HW213919   4.625   3.131   0.209 -1.0690  1.4483 -0.3003
 1354SOL     OW13920   3.128   8.160   2.187  0.3700 -0.2710 -0.4299
 1354SOL    HW113921   3.108   8.139   2.092 -0.1662  0.1116 -0.3985
 1354SOL    HW213922   3.112   8.078   2.243 -1.9152  0.2462 -0.2819
 1355SOL     OW13923   4.352   3.608   2.159 -0.2822  0.1283  0.0431
 1355SOL    HW113924   4.408   3.603   2.241 -0.7689  1.0896  0.4364
 1355SOL    HW213925   4.298   3.692   2.160 -1.2232 -0.4558 -0.6522
 1356SOL     OW13926   3.805   4.216   1.980 -0.1953 -0.2427 -0.3533
 1356SOL    HW113927   3.753   4.297   2.007  0.6736  0.3053 -0.3046
 1356SOL    HW213928   3.902   4.240   1.972  0.1748 -1.4472  0.3995
 1357SOL     OW13929   2.455   9.315   1.994 -0.1103  0.0026 -0.1238
 1357SOL    HW113930   2.426   9.267   2.076 -0.3819 -0.6233 -0.5768
 1357SOL    HW213931   2.386   9.304   1.922  0.2965  0.2213 -0.5577
 1358SOL     OW13932   4.524   2.349   1.078  0.2314 -0.3608 -0.4035
 1358SOL    HW113933   4.470   2.404   1.015 -0.4439 -0.7373 -0.1521
 1358SOL    HW213934   4.576   2.410   1.139  0.5530 -0.0007 -1.0301
 1359SOL     OW13935   3.899   8.908   1.542  0.3959 -0.5919 -0.1408
 1359SOL    HW113936   3.821   8.879   1.597  1.0326  2.9150  2.8519
 1359SOL    HW213937   3.868   8.971   1.471  0.3534  0.3463  0.6853
 1360SOL     OW13938   1.626   3.257   2.424  0.8116 -0.6361 -0.2150
 1360SOL    HW113939   1.721   3.250   2.394  0.3493 -0.4311 -1.7739
 1360SOL    HW213940   1.585   3.340   2.387  0.5017  0.1571  1.8418
 1361SOL     OW13941   4.150   0.631   2.444 -0.3946  0.3428  0.1658
 1361SOL    HW113942   4.198   0.688   2.510 -0.9231  1.3060 -0.2823
 1361SOL    HW213943   4.202   0.627   2.359  0.2205 -0.7907  0.5713
 1362SOL     OW13944   4.943   2.637   1.631  0.6929 -0.6879  0.0677
 1362SOL    HW113945   5.001   2.570   1.584 -0.8759 -1.1806 -1.1845
 1362SOL    HW213946   4.848   2.607   1.628 -0.1604  2.0452 -1.3028
 1363SOL     OW13947   3.952   0.728   1.839  0.1819 -0.0070  0.5920
 1363SOL    HW113948   3.932   0.820   1.805  1.9464  0.9611  2.0897
 1363SOL    HW213949   3.924   0.721   1.934  0.0490 -1.0431  0.4857
 1364SOL     OW13950   3.288   2.295   1.595 -0.0874 -0.1365  0.1069
 1364SOL    HW113951   3.267   2.259   1.504 -1.2835  0.6708  0.0509
 1364SOL    HW213952   3.204   2.305   1.648  0.3274  1.5208  0.5059
 1365SOL     OW13953   2.860   1.302   2.141  0.0656 -0.0501  0.1725
 1365SOL    HW113954   2.933   1.348   2.090 -0.7545 -1.0597 -1.9526
 1365SOL    HW213955   2.887   1.208   2.159 -0.2190 -0.0822  0.4327
 1366SOL     OW13956   4.738   1.770   0.424  0.4096 -0.4409  0.1827
 1366SOL    HW113957   4.648   1.726   0.425  0.4386 -0.7011 -3.1726
 1366SOL    HW213958   4.735   1.855   0.477 -1.5830 -0.8544  0.7449
 1367SOL     OW13959   2.532   8.656   2.108 -0.1608  0.4665 -0.8851
 1367SOL    HW113960   2.535   8.738   2.166 -0.4045  0.8527 -1.4213
 1367SOL    HW213961   2.586   8.584   2.151 -1.5962  0.2446  0.6152
 1368SOL     OW13962   2.733   2.075   1.208 -0.5744  0.0853 -0.0403
 1368SOL    HW113963   2.778   2.031   1.131 -0.5188  0.7080 -0.3624
 1368SOL    HW213964   2.796   2.139   1.252 -0.3732 -0.7692  0.9467
 1369SOL     OW13965   2.161   7.855   0.106  0.3948  0.0110  0.3732
 1369SOL    HW113966   2.182   7.920   0.179  0.4073 -0.9524  1.2564
 1369SOL    HW213967   2.208   7.881   0.022  1.8013  0.1688  1.2031
 1370SOL     OW13968   2.119   2.612   1.843  0.1163  0.0405 -0.6349
 1370SOL    HW113969   2.073   2.701   1.847 -0.7523 -0.3758 -1.1477
 1370SOL    HW213970   2.180   2.603   1.921 -0.7976  0.5516  0.1583
 1371SOL     OW13971   1.767   2.896   0.658 -0.8787  0.3206  0.1691
 1371SOL    HW113972   1.792   2.807   0.695 -0.1966  0.2742 -0.4067
 1371SOL    HW213973   1.697   2.884   0.587 -2.1854  0.4098  1.4189
 1372SOL     OW13974   2.795   1.710   0.855  0.6439 -0.0297  0.1306
 1372SOL    HW113975   2.775   1.766   0.774 -1.3317 -1.4182 -0.3716
 1372SOL    HW213976   2.831   1.769   0.927  1.8619  1.3373 -1.5349
 1373SOL     OW13977   2.213   0.504   2.349  0.1615  0.5112  0.0845
 1373SOL    HW113978   2.115   0.504   2.370  0.2680  1.0192  0.5751
 1373SOL    HW213979   2.250   0.412   2.361  0.1694  0.7311  1.8529
 1374SOL     OW13980   2.829   0.984   2.470  0.1732  0.0341  0.3432
 1374SOL    HW113981   2.794   1.007   2.379  0.0045  0.8843  0.6180
 1374SOL    HW213982   2.910   0.926   2.461 -0.1172 -0.2732 -0.3398
 1375SOL     OW13983   3.406   2.418   0.228  0.1428 -0.3544  0.0982
 1375SOL    HW113984   3.487   2.433   0.286  0.2152 -1.4061  0.2752
 1375SOL    HW213985   3.369   2.506   0.200  0.7154  0.1521  0.9089
 1376SOL     OW13986   1.696   2.666   2.444 -0.1128  0.0063 -0.4226
 1376SOL    HW113987   1.638   2.632   2.518  1.6876  0.5970  1.2951
 1376SOL    HW213988   1.683   2.764   2.434  0.0965  0.0279 -0.4804
 1377SOL     OW13989   2.534   7.165   2.627  0.6351 -0.3956 -0.4082
 1377SOL    HW113990   2.434   7.160   2.634  0.7142 -0.5780  0.5817
 1377SOL    HW213991   2.559   7.219   2.547 -0.2584 -0.5156 -0.7736
 1378SOL     OW13992   3.017   2.039   2.589 -0.6653 -0.9029 -0.2788
 1378SOL    HW113993   3.002   2.135   2.613  1.9681 -1.1341  2.7003
 1378SOL    HW213994   2.929   1.993   2.578 -1.9767  1.4018  0.2010
 1379SOL     OW13995   3.576   7.942   0.503  0.2187  0.0919 -0.1340
 1379SOL    HW113996   3.480   7.951   0.477 -0.3143  1.0160  2.0412
 1379SOL    HW213997   3.585   7.876   0.577  1.2981 -0.1196 -0.4327
 1380SOL     OW13998   2.569   4.897   2.459  0.2972  0.2659 -0.0459
 1380SOL    HW113999   2.575   4.997   2.454  1.0211  0.3086  1.4827
 1380SOL    HW214000   2.478   4.871   2.490  0.7427  0.5467  1.5631
 1381SOL     OW14001   1.930   2.507   1.493 -0.1424  0.1476  0.9220
 1381SOL    HW114002   1.913   2.605   1.506 -1.1224  0.1921 -0.5258
 1381SOL    HW214003   1.955   2.465   1.580  0.8192  1.7906  1.4420
 1382SOL     OW14004   3.742   2.115   0.288 -0.1156 -0.4465  0.1099
 1382SOL    HW114005   3.693   2.193   0.326  0.2742 -0.4101  0.5367
 1382SOL    HW214006   3.791   2.067   0.361  2.9288  1.2483 -0.7562
 1383SOL     OW14007   2.160   4.538   1.248  0.2938 -0.1987  0.1912
 1383SOL    HW114008   2.126   4.446   1.231  0.5736 -0.4299  0.8750
 1383SOL    HW214009   2.136   4.566   1.341 -0.5965  0.7799 -0.3183
 1384SOL     OW14010   2.396   7.673   1.442  0.2643 -0.2137 -0.0531
 1384SOL    HW114011   2.413   7.575   1.456  0.9122  0.1262  1.6643
 1384SOL    HW214012   2.375   7.716   1.530 -2.2398  0.7853 -1.0956
 1385SOL     OW14013   4.250   4.922   1.123 -0.0035 -0.1821 -0.1375
 1385SOL    HW114014   4.255   5.019   1.144 -1.5987 -0.1659  0.2142
 1385SOL    HW214015   4.247   4.869   1.207 -2.6428 -0.3215 -0.2885
 1386SOL     OW14016   1.800   9.332   2.073  0.0941  0.5653  0.0032
 1386SOL    HW114017   1.831   9.267   2.003 -0.8373  0.6560 -0.4956
 1386SOL    HW214018   1.713   9.371   2.045 -0.8689 -0.2801  1.7934
 1387SOL     OW14019   3.958   1.674   1.373 -0.6827 -0.9374 -0.4708
 1387SOL    HW114020   3.861   1.690   1.390 -0.0872  1.1301  1.1021
 1387SOL    HW214021   4.007   1.669   1.460  0.8507 -0.4216 -1.2839
 1388SOL     OW14022   2.754   5.154   1.824 -0.0524 -0.9987 -0.3221
 1388SOL    HW114023   2.704   5.075   1.787 -1.9836  0.3896 -0.7742
 1388SOL    HW214024   2.721   5.237   1.781  1.8586  0.0960  0.2703
 1389SOL     OW14025   1.808   7.693   2.333  0.0503  0.2888 -0.1673
 1389SOL    HW114026   1.779   7.615   2.278 -0.5121  0.7091 -0.4803
 1389SOL    HW214027   1.821   7.664   2.428  0.4946 -0.3208 -0.4125
 1390SOL     OW14028   3.559   1.717   2.148  0.3754 -0.5041 -0.4061
 1390SOL    HW114029   3.572   1.756   2.239  0.0981 -1.5616  0.1004
 1390SOL    HW214030   3.467   1.737   2.115  1.0573  1.3939 -1.2165
 1391SOL     OW14031   3.963   2.957   0.517  0.6278 -0.3148 -0.0919
 1391SOL    HW114032   4.008   2.894   0.580 -0.9864  0.6844  2.1084
 1391SOL    HW214033   3.893   3.009   0.566  0.8049  2.0212 -2.2215
 1392SOL     OW14034   4.454   1.766   1.155 -0.1232  0.2689 -0.7314
 1392SOL    HW114035   4.520   1.827   1.112  1.4667 -0.1670  1.0483
 1392SOL    HW214036   4.435   1.797   1.248 -2.6204  0.5110 -1.2669
 1393SOL     OW14037   3.172   0.252   1.209  0.4210  0.2109 -0.7390
 1393SOL    HW114038   3.081   0.257   1.250  0.2029 -2.2750 -0.8568
 1393SOL    HW214039   3.170   0.290   1.117 -0.1580  1.4632 -0.2192
 1394SOL     OW14040   2.219   4.169   1.609 -0.2797 -0.4810 -0.6785
 1394SOL    HW114041   2.315   4.154   1.586  0.1917 -1.2757  1.7544
 1394SOL    HW214042   2.212   4.220   1.695 -2.0416 -1.4233 -0.2418
 1395SOL     OW14043   3.451   4.458   1.675  0.5575  0.7849 -0.1899
 1395SOL    HW114044   3.370   4.468   1.617  0.6751  1.8733 -0.1691
 1395SOL    HW214045   3.483   4.364   1.671 -1.5419 -0.0213  0.8638
 1396SOL     OW14046   4.430   4.067   2.468  0.2800  0.4539  0.3185
 1396SOL    HW114047   4.363   4.057   2.541 -0.5027  2.6754 -0.0618
 1396SOL    HW214048   4.520   4.036   2.501 -0.3444  0.1583  1.7712
 1397SOL     OW14049   2.566   8.071   0.059  0.0730 -0.8323 -0.2380
 1397SOL    HW114050   2.642   8.024   0.102  0.1820 -0.2485  0.2143
 1397SOL    HW214051   2.540   8.151   0.114 -1.4358 -1.5279  0.0837
 1398SOL     OW14052   2.450   2.437   1.616  0.0744  0.1884 -0.0888
 1398SOL    HW114053   2.353   2.413   1.627  0.0857  0.8179  1.6409
 1398SOL    HW214054   2.507   2.364   1.653  0.2021  0.8610  1.0588
 1399SOL     OW14055   3.804   1.540   0.187 -0.2304  0.3885 -0.6982
 1399SOL    HW114056   3.707   1.565   0.183 -0.4585 -0.0832  1.3627
 1399SOL    HW214057   3.815   1.447   0.153 -0.6387  0.1196 -0.1101
 1400SOL     OW14058   4.956   3.038   0.356  0.1437 -0.5449  1.0351
 1400SOL    HW114059   4.895   2.972   0.398  0.2973 -1.0112  0.5224
 1400SOL    HW214060   5.047   3.029   0.396  0.3544 -1.1678  0.4174
 1401SOL     OW14061   3.668   9.506   1.950 -0.0581 -0.2565 -0.9031
 1401SOL    HW114062   3.618   9.568   1.890  0.9187  0.8319 -0.5927
 1401SOL    HW214063   3.694   9.553   2.034 -0.0126 -1.3161 -0.3063
 1402SOL     OW14064   2.086   9.877   2.267 -0.2942 -0.2051  0.1114
 1402SOL    HW114065   2.157   9.945   2.250 -1.3848  0.6229 -1.2500
 1402SOL    HW214066   2.126   9.799   2.317  0.8739  1.5722  2.0618
 1403SOL     OW14067   2.070   5.945   0.787  0.1099  0.2867 -0.0050
 1403SOL    HW114068   2.011   5.931   0.707  1.0902  0.2832 -0.7319
 1403SOL    HW214069   2.036   6.022   0.840 -1.3247 -0.5365  0.3053
 1404SOL     OW14070   3.121   1.619   0.426 -0.7508 -0.0244  0.4362
 1404SOL    HW114071   3.135   1.531   0.472 -0.3719 -0.8087 -1.1665
 1404SOL    HW214072   3.196   1.681   0.449 -0.0311 -0.7535  0.0898
 1405SOL     OW14073   2.215   5.203   2.325  0.0035 -0.2663  0.1357
 1405SOL    HW114074   2.115   5.208   2.328 -0.0141 -1.2888  1.9154
 1405SOL    HW214075   2.253   5.278   2.377  0.1733  0.1580 -0.5950
 1406SOL     OW14076   2.430   8.271   2.458  0.1268 -0.1388 -0.5424
 1406SOL    HW114077   2.519   8.226   2.469  0.3690  0.1622 -1.2959
 1406SOL    HW214078   2.392   8.250   2.368  0.8347  2.2208 -1.4066
 1407SOL     OW14079   2.623   6.097   1.596  0.1751  0.6224 -0.1181
 1407SOL    HW114080   2.609   6.155   1.516  0.8821 -0.7561 -1.2714
 1407SOL    HW214081   2.720   6.094   1.618  0.1538 -0.1584 -0.1110
 1408SOL     OW14082   3.581   1.507   1.773 -0.5305 -0.3251 -0.0148
 1408SOL    HW114083   3.608   1.427   1.719  0.4435 -0.8675  1.2692
 1408SOL    HW214084   3.485   1.528   1.754 -1.0377 -2.2787  0.2134
 1409SOL     OW14085   1.747   0.240   0.407  0.1447 -0.2190 -0.2414
 1409SOL    HW114086   1.760   0.307   0.480 -0.0907  0.1764 -0.5668
 1409SOL    HW214087   1.763   0.283   0.318  2.6927 -1.2287 -0.3319
 1410SOL     OW14088   3.752   3.669   0.775 -0.0507  0.3074  0.8164
 1410SOL    HW114089   3.739   3.587   0.831 -0.0729  1.1869  2.1290
 1410SOL    HW214090   3.663   3.702   0.744 -0.1862  0.7702  1.6752
 1411SOL     OW14091   3.698   8.804   0.393 -0.2545  0.2076 -0.0972
 1411SOL    HW114092   3.724   8.884   0.340 -0.1802  0.9032  0.9909
 1411SOL    HW214093   3.598   8.802   0.403 -0.1274  1.2372  1.5414
 1412SOL     OW14094   2.654   8.226   1.422 -0.6908 -0.2370  0.0962
 1412SOL    HW114095   2.643   8.128   1.407 -2.9376 -0.1635  1.1039
 1412SOL    HW214096   2.719   8.262   1.355 -0.7703 -2.1798 -1.0886
 1413SOL     OW14097   3.740   8.354   2.060  0.1732 -0.2802 -0.0851
 1413SOL    HW114098   3.814   8.380   1.998 -1.2999  0.4353 -1.5974
 1413SOL    HW214099   3.683   8.285   2.016 -2.7571  2.5299 -0.8865
 1414SOL     OW14100   2.845   6.033   1.364 -0.6131  0.3763  0.1745
 1414SOL    HW114101   2.849   5.948   1.417 -1.5288 -0.6703 -1.3973
 1414SOL    HW214102   2.868   6.014   1.268 -3.5370  1.3753 -0.7782
 1415SOL     OW14103   2.458   6.796   1.948 -0.0336  0.1936  0.0437
 1415SOL    HW114104   2.549   6.778   1.910  0.2746 -0.5636  1.0898
 1415SOL    HW214105   2.459   6.881   2.000 -0.4630  1.2442 -1.6301
 1416SOL     OW14106   2.909   3.742   0.660  0.3031 -0.3607  0.0505
 1416SOL    HW114107   2.892   3.780   0.751 -1.8698 -1.1651  0.0144
 1416SOL    HW214108   2.892   3.812   0.591 -1.8508 -0.8054  0.0863
 1417SOL     OW14109   2.209   7.657   0.677  0.5437  0.4482  0.1094
 1417SOL    HW114110   2.258   7.677   0.593  0.1645  1.1968  0.0591
 1417SOL    HW214111   2.254   7.703   0.754  0.1985  0.7460  0.1344
 1418SOL     OW14112   2.564   2.378   2.362 -0.4899 -0.6241 -0.5201
 1418SOL    HW114113   2.570   2.341   2.269 -0.9823  1.2338 -1.3047
 1418SOL    HW214114   2.631   2.331   2.420 -0.9285 -2.5601 -1.5338
 1419SOL     OW14115   2.478   7.033   2.103  0.5754  0.1992 -0.4105
 1419SOL    HW114116   2.444   6.968   2.171 -0.4231  1.2267  0.0884
 1419SOL    HW214117   2.571   7.062   2.128  2.0550 -2.8730 -1.9639
 1420SOL     OW14118   2.456   8.861   1.021 -0.1325  0.7458 -0.0109
 1420SOL    HW114119   2.406   8.940   1.057  0.5496  0.0662  2.4601
 1420SOL    HW214120   2.406   8.777   1.043 -1.3972  0.4581 -3.5122
 1421SOL     OW14121   3.707   5.056   1.019 -0.0817 -0.1861  0.0066
 1421SOL    HW114122   3.743   4.978   0.968 -0.7759 -0.5394  0.0476
 1421SOL    HW214123   3.705   5.035   1.117  2.1868  0.8652  0.3045
 1422SOL     OW14124   3.007   0.952   1.719  0.1732  0.2577 -0.3880
 1422SOL    HW114125   2.982   0.878   1.657 -1.6868  0.4159  0.1508
 1422SOL    HW214126   3.091   0.927   1.768  0.3616 -0.8614 -1.2616
 1423SOL     OW14127   3.027   5.569   0.519 -0.3289 -0.2291  0.5094
 1423SOL    HW114128   3.030   5.488   0.460  0.6267 -1.0141  1.6167
 1423SOL    HW214129   3.034   5.651   0.462 -0.4079 -0.9456 -0.5524
 1424SOL     OW14130   3.631   8.598   1.749  0.2032 -0.7648 -0.2104
 1424SOL    HW114131   3.605   8.691   1.721  0.6381 -0.4975  0.2718
 1424SOL    HW214132   3.644   8.541   1.668  2.2547  0.2219 -0.5897
 1425SOL     OW14133   3.396   1.912   1.942  0.0913 -0.2782 -0.1695
 1425SOL    HW114134   3.415   1.970   2.021 -0.0214  0.8440 -0.9482
 1425SOL    HW214135   3.354   1.827   1.972 -1.9698  1.0310  0.8294
 1426SOL     OW14136   1.626   2.822   0.169  0.2863 -0.0198 -0.5760
 1426SOL    HW114137   1.665   2.732   0.150  0.2836  0.4216 -2.7934
 1426SOL    HW214138   1.680   2.892   0.122 -0.9494  0.9477 -0.5865
 1427SOL     OW14139   2.310   2.320   1.250 -0.2918  0.6125  0.2951
 1427SOL    HW114140   2.211   2.306   1.255 -0.1055 -0.5186  0.8879
 1427SOL    HW214141   2.332   2.411   1.284 -1.0531  0.5627  0.9389
 1428SOL     OW14142   4.210   3.189   1.919 -0.0708 -0.0140 -0.4246
 1428SOL    HW114143   4.204   3.281   1.958  0.7984  0.7642 -2.1066
 1428SOL    HW214144   4.306   3.167   1.901 -0.4737 -0.3309 -2.2042
 1429SOL     OW14145   3.199   0.177   0.079 -0.3914  0.1061 -0.1814
 1429SOL    HW114146   3.135   0.100   0.084 -0.6726  0.0319 -3.6292
 1429SOL    HW214147   3.276   0.160   0.141 -1.5700 -1.8517  0.8138
 1430SOL     OW14148   2.813   0.625   2.207  0.2148 -0.0469 -0.1478
 1430SOL    HW114149   2.729   0.630   2.261 -0.3191 -2.2907 -0.7382
 1430SOL    HW214150   2.891   0.646   2.266 -0.4476 -1.4786  1.2910
 1431SOL     OW14151   3.917   3.153   0.830 -0.1701  0.0663  0.2964
 1431SOL    HW114152   3.961   3.076   0.877 -0.9912 -0.5556  0.0484
 1431SOL    HW214153   3.965   3.171   0.744 -1.3071 -1.5905 -0.7049
 1432SOL     OW14154   1.975   3.000   0.193  0.3663 -0.3406  0.2496
 1432SOL    HW114155   1.918   3.057   0.253 -1.2176 -1.6728  0.0395
 1432SOL    HW214156   2.062   3.047   0.175 -0.5012  1.5511  0.8864
 1433SOL     OW14157   4.512   2.734   1.183 -0.0312  0.7459 -0.4774
 1433SOL    HW114158   4.595   2.791   1.183 -0.4415  1.3422 -0.2751
 1433SOL    HW214159   4.434   2.789   1.153 -0.4186  0.2752 -0.3280
 1434SOL     OW14160   2.470   2.064   0.885 -0.4650  0.3195 -0.4345
 1434SOL    HW114161   2.473   1.974   0.928 -0.2884  0.8047  0.5747
 1434SOL    HW214162   2.484   2.135   0.954  0.5731  1.0816 -1.4049
 1435SOL     OW14163   2.456   0.041   1.488  0.0791 -0.1269  0.2902
 1435SOL    HW114164   2.442   0.105   1.563  0.5064 -0.5041  0.6928
 1435SOL    HW214165   2.423   0.083   1.403  1.7743  1.2578  0.2824
 1436SOL     OW14166   2.064   7.600   0.074  0.0218 -0.1999  0.1947
 1436SOL    HW114167   2.089   7.690   0.109 -0.6787  0.0843 -0.0237
 1436SOL    HW214168   2.050   7.537   0.151 -0.4473  0.1341  0.3836
 1437SOL     OW14169   2.900   9.038   2.184 -0.3564  0.3894  1.1371
 1437SOL    HW114170   2.810   9.082   2.187  0.1629  1.6239 -0.5718
 1437SOL    HW214171   2.957   9.084   2.116  0.9130 -1.6130  0.8039
 1438SOL     OW14172   2.160   3.964   2.264  0.4932 -0.6458  0.0144
 1438SOL    HW114173   2.189   3.878   2.221  1.0472 -0.7049  0.5004
 1438SOL    HW214174   2.239   4.008   2.307  0.1458 -0.0552  0.0507
 1439SOL     OW14175   2.185   3.698   1.803 -0.3919  0.2385 -0.3474
 1439SOL    HW114176   2.160   3.781   1.852  2.5205  0.9664 -0.0500
 1439SOL    HW214177   2.262   3.716   1.742 -2.0815 -1.3601 -3.0666
 1440SOL     OW14178   3.784   5.114   2.353 -0.2655  0.5905 -0.5642
 1440SOL    HW114179   3.836   5.075   2.277 -0.0794  0.2451 -0.2562
 1440SOL    HW214180   3.686   5.111   2.330 -0.3233 -0.8954 -0.1607
 1441SOL     OW14181   2.364   9.304   0.541  0.6647  0.5450 -0.1526
 1441SOL    HW114182   2.415   9.365   0.602  1.0860  0.2919 -0.2500
 1441SOL    HW214183   2.274   9.286   0.581  1.0693  0.0872  0.5811
 1442SOL     OW14184   2.998   3.136   0.809  0.1956  0.5531 -0.6835
 1442SOL    HW114185   3.024   3.232   0.820 -0.5141  0.4707  1.8798
 1442SOL    HW214186   2.930   3.112   0.878  0.3843 -1.8054 -1.2970
 1443SOL     OW14187   2.877   9.462   1.374  0.3156  0.0278  0.0837
 1443SOL    HW114188   2.851   9.544   1.323  3.6754  2.2525  1.7518
 1443SOL    HW214189   2.830   9.461   1.462  0.6468  0.4721  0.2712
 1444SOL     OW14190   2.920   9.984   1.392 -0.3756 -0.0976  0.5789
 1444SOL    HW114191   2.956   9.937   1.472 -2.4418  1.5519  2.5316
 1444SOL    HW214192   2.963  10.074   1.383  1.0113 -0.8982 -1.1229
 1445SOL     OW14193   4.247   2.398   2.013  0.2910  0.0303 -0.2233
 1445SOL    HW114194   4.324   2.447   2.054  0.9487 -0.9410 -0.2894
 1445SOL    HW214195   4.243   2.305   2.049 -0.9325  0.1042 -0.1265
 1446SOL     OW14196   4.089   1.554   0.463  0.0938  0.3712 -0.3186
 1446SOL    HW114197   4.105   1.536   0.560  0.9246  0.0604 -0.5096
 1446SOL    HW214198   4.000   1.516   0.437  0.6882 -1.2278 -0.1068
 1447SOL     OW14199   4.321   2.719   2.420  0.3934 -0.3343  0.5893
 1447SOL    HW114200   4.377   2.723   2.337  0.8891  2.1405  1.0054
 1447SOL    HW214201   4.235   2.768   2.404 -1.0524 -2.8406  0.4343
 1448SOL     OW14202   3.154   8.630   1.624 -0.0749  0.4854  0.3866
 1448SOL    HW114203   3.148   8.604   1.721 -3.0597  1.3642  0.4686
 1448SOL    HW214204   3.144   8.729   1.616 -0.9900  0.2924 -0.9190
 1449SOL     OW14205   1.949   8.006   2.390  0.2196  0.0382  0.2088
 1449SOL    HW114206   1.915   7.983   2.481  3.0903 -0.0272  1.3423
 1449SOL    HW214207   1.912   7.943   2.323  0.3732 -1.7895  1.8036
 1450SOL     OW14208   2.025   6.398   0.270  0.3133  0.2297  0.0409
 1450SOL    HW114209   2.083   6.359   0.341  0.4490  0.9915  0.3513
 1450SOL    HW214210   1.980   6.481   0.305  0.3646  0.5987 -0.7515
 1451SOL     OW14211   2.382   6.152   2.595  0.3814 -0.0077  0.6562
 1451SOL    HW114212   2.300   6.184   2.549  1.4054  0.3464 -0.9594
 1451SOL    HW214213   2.385   6.052   2.593  1.1675  0.0388 -1.4180
 1452SOL     OW14214   2.178   4.066   0.295 -0.2078 -0.2703 -0.4885
 1452SOL    HW114215   2.144   4.160   0.294 -0.4773 -0.2954  2.1104
 1452SOL    HW214216   2.180   4.033   0.390  1.5150 -2.2910 -1.2084
 1453SOL     OW14217   1.834   6.862   0.372  0.3999 -0.3834  0.0305
 1453SOL    HW114218   1.780   6.937   0.410 -0.6385 -1.0953 -0.0180
 1453SOL    HW214219   1.882   6.894   0.290  1.2680  0.6661  0.9264
 1454SOL     OW14220   2.586   3.054   0.935 -0.6238  0.0471 -0.4608
 1454SOL    HW114221   2.618   3.146   0.955 -0.0249  0.2094 -2.0548
 1454SOL    HW214222   2.496   3.040   0.976 -0.9351  1.5111 -0.6148
 1455SOL     OW14223   2.201   3.908   1.961  0.0038 -0.1766  0.2472
 1455SOL    HW114224   2.257   3.990   1.973 -0.2877  0.3176 -1.5568
 1455SOL    HW214225   2.218   3.844   2.036  1.4783  0.8215  0.7809
 1456SOL     OW14226   3.920   2.786   1.560 -0.5050  0.4237 -0.4009
 1456SOL    HW114227   4.009   2.827   1.543 -0.4228  0.3331 -0.1913
 1456SOL    HW214228   3.895   2.801   1.656 -0.5953  0.2145 -0.3924
 1457SOL     OW14229   2.517   3.052   0.082  0.3561  0.5306  0.0637
 1457SOL    HW114230   2.525   2.988   0.159 -0.6503  2.1445  1.5491
 1457SOL    HW214231   2.571   3.018   0.005 -0.0426 -2.0279  0.8552
 1458SOL     OW14232   1.966   8.152   1.932 -0.1366 -0.5646 -0.4827
 1458SOL    HW114233   1.979   8.250   1.946 -0.3733 -0.5627 -0.2718
 1458SOL    HW214234   2.004   8.125   1.843 -0.6669 -0.1613 -0.8333
 1459SOL     OW14235   1.858   9.358   0.551  0.3276  0.6850  0.4247
 1459SOL    HW114236   1.907   9.407   0.479  0.1901  0.4755  0.1892
 1459SOL    HW214237   1.789   9.418   0.591  0.3890  0.7942  0.3673
 1460SOL     OW14238   4.332   2.482   0.948 -0.1008  0.1278  0.6751
 1460SOL    HW114239   4.283   2.548   1.004 -0.6890  0.1923  0.0884
 1460SOL    HW214240   4.266   2.428   0.894  0.5532  1.4043 -1.4482
 1461SOL     OW14241   4.275   1.595   0.262 -0.4111 -0.1946  0.6175
 1461SOL    HW114242   4.359   1.551   0.294 -0.4487 -0.3551  0.4946
 1461SOL    HW214243   4.203   1.579   0.329 -0.9900 -2.1156 -0.4255
 1462SOL     OW14244   4.424   3.188   1.135  0.3999 -0.0090  0.0432
 1462SOL    HW114245   4.364   3.260   1.170 -1.0368 -1.0542 -0.2248
 1462SOL    HW214246   4.415   3.106   1.191 -0.0987 -0.8976 -1.2994
 1463SOL     OW14247   1.793   7.202   2.575  0.0990  0.3396 -0.5101
 1463SOL    HW114248   1.764   7.245   2.489  0.0714 -0.8973 -1.1239
 1463SOL    HW214249   1.776   7.104   2.570  1.8477 -0.0117  0.1975
 1464SOL     OW14250   3.977   4.123   0.010  0.4126 -0.0329  0.2041
 1464SOL    HW114251   3.886   4.154   0.037  0.1635  0.4280 -1.1287
 1464SOL    HW214252   3.971   4.070  -0.075  1.5499  1.2495 -0.7022
 1465SOL     OW14253   4.154   4.902   2.252 -0.6002  0.3345  0.0407
 1465SOL    HW114254   4.142   4.933   2.347 -0.1267  0.1126  0.1765
 1465SOL    HW214255   4.066   4.907   2.204 -1.2689 -1.3193  1.0198
 1466SOL     OW14256   2.860   1.047   0.235  0.5622  0.1810 -0.0937
 1466SOL    HW114257   2.846   1.143   0.211 -0.4579 -0.2154 -1.1374
 1466SOL    HW214258   2.884   1.040   0.332 -0.8583  1.3745  0.3582
 1467SOL     OW14259   2.621   0.966   1.060 -0.4510  0.1515 -0.7725
 1467SOL    HW114260   2.668   0.973   0.972  0.6684  1.0292 -0.1169
 1467SOL    HW214261   2.680   0.921   1.126 -1.5235 -1.0501 -0.6131
 1468SOL     OW14262   1.929   3.071   2.215  0.0559  0.4231 -0.4145
 1468SOL    HW114263   1.926   3.169   2.231 -2.7246  0.5337 -1.2576
 1468SOL    HW214264   1.847   3.028   2.254  0.3995 -1.3140 -1.5223
 1469SOL     OW14265   2.827   8.379   0.374 -0.3632  0.3907 -0.2614
 1469SOL    HW114266   2.793   8.429   0.453 -2.1270 -0.6432 -0.3566
 1469SOL    HW214267   2.823   8.437   0.293  0.3239  1.0453  0.1692
 1470SOL     OW14268   4.155   1.673   2.077  0.0115  0.8092  0.3132
 1470SOL    HW114269   4.172   1.629   1.989  0.4077  1.0477  0.2695
 1470SOL    HW214270   4.060   1.657   2.104  0.6728 -1.6459  1.2107
 1471SOL     OW14271   3.543   5.098   0.366  0.1224  0.2120 -0.1595
 1471SOL    HW114272   3.597   5.033   0.420 -1.7750  0.5405  2.2146
 1471SOL    HW214273   3.508   5.051   0.285 -0.6185 -1.5813  1.1456
 1472SOL     OW14274   3.490   3.729   1.711  0.4496 -0.1204 -0.1652
 1472SOL    HW114275   3.527   3.637   1.722 -0.1760 -0.2789  0.6000
 1472SOL    HW214276   3.472   3.746   1.614  2.1470 -0.1862 -0.5183
 1473SOL     OW14277   2.083   0.263   2.185 -0.3774  0.6650  0.3069
 1473SOL    HW114278   2.005   0.303   2.137 -0.6183 -2.0530 -1.6958
 1473SOL    HW214279   2.114   0.181   2.136  0.1724 -1.5360  4.1271
 1474SOL     OW14280   2.311   6.417   1.287  0.1704  0.7492 -0.4964
 1474SOL    HW114281   2.277   6.333   1.244  0.5685  0.1907  0.2776
 1474SOL    HW214282   2.242   6.488   1.279 -1.3694 -0.4876  1.4220
 1475SOL     OW14283   3.676   1.719   1.560  0.1393 -0.2104 -0.3664
 1475SOL    HW114284   3.651   1.649   1.626 -1.2554  1.9433  1.4738
 1475SOL    HW214285   3.666   1.809   1.602  3.5099  1.0664 -2.1217
 1476SOL     OW14286   3.698   9.561   1.435  0.6270 -0.5286 -0.5503
 1476SOL    HW114287   3.724   9.609   1.519 -0.1797 -2.1819  0.6898
 1476SOL    HW214288   3.690   9.626   1.360 -1.5999  1.4901  1.3450
 1477SOL     OW14289   2.483   1.670   2.323 -0.2703 -0.6911  0.3077
 1477SOL    HW114290   2.441   1.672   2.233 -0.3288 -0.8254  0.3304
 1477SOL    HW214291   2.563   1.609   2.321  0.7444  0.6420 -0.0804
 1478SOL     OW14292   2.769   4.316   2.094  0.0990 -0.2359  0.7872
 1478SOL    HW114293   2.862   4.339   2.064  0.3227 -1.4394  0.5040
 1478SOL    HW214294   2.763   4.324   2.194  1.1155 -2.1576  1.0244
 1479SOL     OW14295   4.149   1.544   0.771  0.2501  0.2990  0.9858
 1479SOL    HW114296   4.212   1.524   0.845 -0.6318 -1.9230  1.1793
 1479SOL    HW214297   4.159   1.639   0.742  1.2796  0.9024  3.2864
 1480SOL     OW14298   3.516   1.448   0.732 -0.0755 -0.0573 -0.1968
 1480SOL    HW114299   3.579   1.405   0.797  0.5571  0.8991 -0.1763
 1480SOL    HW214300   3.439   1.386   0.716  0.4844 -0.9195  0.3489
 1481SOL     OW14301   3.707   1.892   1.949 -0.0250  0.1619 -0.1341
 1481SOL    HW114302   3.698   1.805   1.998 -0.2056  0.4115  0.2737
 1481SOL    HW214303   3.652   1.888   1.865 -1.3030  0.4439  0.6686
 1482SOL     OW14304   1.639   9.611   1.865  0.4146 -0.2189  0.0517
 1482SOL    HW114305   1.582   9.656   1.934 -0.0653 -0.0202 -0.4679
 1482SOL    HW214306   1.697   9.678   1.820 -1.2333  0.1182 -1.6242
 1483SOL     OW14307   3.542   5.605   0.326  0.4171  0.2252  0.1251
 1483SOL    HW114308   3.559   5.687   0.380  1.3533  0.1393 -0.0185
 1483SOL    HW214309   3.622   5.587   0.268  0.6254 -1.3659  0.9050
 1484SOL     OW14310   2.479   1.307   2.408  0.2253  0.0260 -0.3679
 1484SOL    HW114311   2.443   1.235   2.467  1.1239  0.4106  0.6740
 1484SOL    HW214312   2.433   1.304   2.319  0.6617 -2.1960 -0.5407
 1485SOL     OW14313   3.318   4.873   0.134  0.2222  0.0092  0.4754
 1485SOL    HW114314   3.245   4.886   0.201  1.5579  1.7861  1.6282
 1485SOL    HW214315   3.341   4.961   0.092  0.7672 -0.7554 -0.8621
 1486SOL     OW14316   2.800   1.234   2.598 -0.1876 -0.4134  0.1843
 1486SOL    HW114317   2.791   1.161   2.530 -0.5410 -1.8781  1.7663
 1486SOL    HW214318   2.832   1.317   2.553  0.1276 -1.4992 -1.6732
 1487SOL     OW14319   3.551   9.913   0.231  0.1536 -0.0325 -0.2095
 1487SOL    HW114320   3.625   9.870   0.179  0.0476 -0.6974  0.1812
 1487SOL    HW214321   3.523   9.852   0.306 -0.5121  0.3921 -0.1063
 1488SOL     OW14322   2.330   9.555   2.052  0.2644 -0.4799  0.0975
 1488SOL    HW114323   2.373   9.467   2.032  0.0445 -0.6682  0.4597
 1488SOL    HW214324   2.302   9.558   2.148 -0.7828 -0.4603 -0.2022
 1489SOL     OW14325   3.184   9.970   0.381 -0.0583 -0.3467 -0.1650
 1489SOL    HW114326   3.145   9.918   0.305  1.2695 -0.3750 -0.8504
 1489SOL    HW214327   3.183   9.915   0.464  0.7065 -1.2278 -0.7269
 1490SOL     OW14328   2.043   9.819   1.110 -0.3538 -0.5437  0.1657
 1490SOL    HW114329   2.005   9.840   1.020 -0.5191  3.6869  1.1057
 1490SOL    HW214330   2.122   9.758   1.100 -0.1685  0.1429 -2.8673
 1491SOL     OW14331   2.421   4.826   0.379 -0.0164 -0.1608 -0.3618
 1491SOL    HW114332   2.362   4.746   0.384  0.5739 -0.5068  1.2092
 1491SOL    HW214333   2.366   4.909   0.381 -0.4587 -0.4839  0.9212
 1492SOL     OW14334   3.919   8.307   0.280  0.1630 -0.3318 -0.2754
 1492SOL    HW114335   3.959   8.326   0.369 -1.8816 -0.7008  0.7558
 1492SOL    HW214336   3.846   8.374   0.262  0.4659 -0.3430 -1.6142
 1493SOL     OW14337   5.317   3.602   1.054  0.2482 -0.1290 -0.2115
 1493SOL    HW114338   5.237   3.650   1.089  1.2385  1.2669  0.1871
 1493SOL    HW214339   5.389   3.602   1.124  0.8775 -0.6707 -0.8458
 1494SOL     OW14340   2.915   9.838   2.232  0.4516  0.0316  0.0947
 1494SOL    HW114341   2.923   9.878   2.140 -0.7742  1.0840  0.4380
 1494SOL    HW214342   2.896   9.740   2.224 -1.5648  0.4741 -0.8098
 1495SOL     OW14343   3.707   9.748   1.644 -0.0742 -0.2464  0.1059
 1495SOL    HW114344   3.717   9.797   1.730  0.5179 -1.0061  0.4769
 1495SOL    HW214345   3.624   9.691   1.647 -0.3301  0.1180 -0.0244
 1496SOL     OW14346   2.214   8.386   1.219  0.3125 -0.1912 -0.2529
 1496SOL    HW114347   2.280   8.374   1.293  1.1889 -0.9985 -1.1505
 1496SOL    HW214348   2.153   8.307   1.216 -0.5544  0.4407  0.4181
 1497SOL     OW14349   3.304   9.529   0.295  0.0044 -0.3065 -0.8978
 1497SOL    HW114350   3.228   9.471   0.325  0.1710  0.2443  0.6255
 1497SOL    HW214351   3.387   9.502   0.344  0.0601  1.2757 -0.0967
 1498SOL     OW14352   3.910   5.040   2.608 -0.1127  0.1453  0.5531
 1498SOL    HW114353   3.887   5.049   2.512  0.9828  1.2385  0.3775
 1498SOL    HW214354   3.945   4.948   2.626 -1.0780 -0.3197  0.0821
 1499SOL     OW14355   2.003   9.300   2.405  0.2926  0.5737  0.6300
 1499SOL    HW114356   1.959   9.354   2.333 -0.0276 -0.5046  0.0103
 1499SOL    HW214357   1.941   9.228   2.436  1.7921 -1.3063 -0.6297
 1500SOL     OW14358   4.881   2.445   2.351 -0.1649  0.4795  0.2276
 1500SOL    HW114359   4.823   2.443   2.269 -1.5483  0.1465  1.2085
 1500SOL    HW214360   4.958   2.383   2.337 -0.2596  0.5938 -0.9196
 1501SOL     OW14361   3.743   4.951   1.669  0.6075 -0.1902 -0.1275
 1501SOL    HW114362   3.751   4.890   1.591 -0.5262  0.5451 -0.8289
 1501SOL    HW214363   3.655   4.997   1.667  1.6256  1.8524  0.1063
 1502SOL     OW14364   5.303   3.607   0.792 -0.5275 -0.2418 -0.0128
 1502SOL    HW114365   5.266   3.696   0.768 -0.4606  0.1115  1.1936
 1502SOL    HW214366   5.304   3.596   0.891 -0.8563 -1.7202 -0.1552
 1503SOL     OW14367   1.994   1.866   0.340 -0.0568 -0.4978 -0.8494
 1503SOL    HW114368   1.993   1.872   0.440  0.1834 -1.7872 -0.7626
 1503SOL    HW214369   2.038   1.948   0.302 -1.3995  0.6583  0.0276
 1504SOL     OW14370   2.743   9.956   0.494 -0.4596  0.3755 -0.0259
 1504SOL    HW114371   2.829   9.971   0.544  0.0257  0.2553 -0.8160
 1504SOL    HW214372   2.762   9.907   0.409 -1.0710  1.8526 -1.0485
 1505SOL     OW14373   3.313   5.363   1.239 -0.4078  0.1976  0.1371
 1505SOL    HW114374   3.396   5.390   1.190 -1.2329  0.9794 -0.8271
 1505SOL    HW214375   3.233   5.373   1.180 -1.3044  0.2868  1.3330
 1506SOL     OW14376   3.998   3.582   1.001  0.4359  0.0588  0.2496
 1506SOL    HW114377   4.066   3.527   0.952  0.4615  0.1834  0.1460
 1506SOL    HW214378   3.908   3.564   0.963  0.2578 -0.9656  1.1365
 1507SOL     OW14379   2.406   0.007   0.786  0.2318 -0.3386  0.1774
 1507SOL    HW114380   2.343   0.001   0.708 -1.4088 -0.1290  1.4567
 1507SOL    HW214381   2.452   0.096   0.783 -1.4050  0.5523  0.5950
 1508SOL     OW14382   5.234   3.810   0.210  0.5027  0.4538  0.1213
 1508SOL    HW114383   5.197   3.725   0.246 -1.2832  1.3080  0.3878
 1508SOL    HW214384   5.274   3.864   0.284  2.4604 -0.5299 -0.1877
 1509SOL     OW14385   3.628   1.410   2.044 -0.2287 -0.0624  0.3060
 1509SOL    HW114386   3.570   1.395   1.965  1.3389  0.5126 -0.9866
 1509SOL    HW214387   3.656   1.506   2.048 -2.1347  0.4403  2.8666
 1510SOL     OW14388   3.130   3.547   1.697 -0.4127 -0.1814 -0.0129
 1510SOL    HW114389   3.197   3.592   1.756 -1.6000 -1.3817  2.2782
 1510SOL    HW214390   3.041   3.548   1.740 -1.6511  0.2113 -2.4658
 1511SOL     OW14391   3.445   4.438   0.391 -0.1882 -0.4527  0.4721
 1511SOL    HW114392   3.403   4.513   0.340  1.6127  0.8066  0.7834
 1511SOL    HW214393   3.431   4.352   0.341  0.6814  0.6045 -1.6873
 1512SOL     OW14394   1.629   0.427   0.967 -0.3110 -0.6111  0.4734
 1512SOL    HW114395   1.587   0.515   0.945  3.4651  0.8119 -1.6219
 1512SOL    HW214396   1.694   0.440   1.042 -0.6883 -1.9159  1.0282
 1513SOL     OW14397   2.651   2.898   2.543 -0.2316  0.4236 -0.5506
 1513SOL    HW114398   2.721   2.928   2.477 -0.5038 -1.4922 -1.7453
 1513SOL    HW214399   2.670   2.804   2.571 -2.1185 -0.0036 -0.6318
 1514SOL     OW14400   3.256   2.710   0.185 -0.5031  0.0404 -0.3098
 1514SOL    HW114401   3.188   2.765   0.234 -0.0990  1.3732 -1.2114
 1514SOL    HW214402   3.261   2.739   0.090  1.0472 -0.2967 -0.3555
 1515SOL     OW14403   3.085   8.359   2.484  0.1271 -1.0060  0.3623
 1515SOL    HW114404   3.105   8.440   2.429  1.3976 -0.8550  1.0416
 1515SOL    HW214405   3.117   8.277   2.435  0.1737 -0.9677  0.3274
 1516SOL     OW14406   2.388   9.554   0.612 -0.2922 -0.6619  0.1231
 1516SOL    HW114407   2.421   9.615   0.540 -1.0422 -1.7280 -1.1439
 1516SOL    HW214408   2.289   9.561   0.620  0.0227  1.3547  2.8360
 1517SOL     OW14409   2.802   7.001   1.516 -0.1909  0.3019  0.2776
 1517SOL    HW114410   2.828   7.000   1.419 -2.4318 -0.6265 -0.3566
 1517SOL    HW214411   2.847   7.078   1.562  1.8723  0.0255 -1.2056
 1518SOL     OW14412   3.302   0.902   1.007 -0.2031 -0.4170  0.5376
 1518SOL    HW114413   3.207   0.889   0.982 -0.0039  0.0603 -0.4829
 1518SOL    HW214414   3.316   0.871   1.101 -1.3587 -0.4846  0.6960
 1519SOL     OW14415   2.194   3.333   1.180  0.5914  0.3878  0.0831
 1519SOL    HW114416   2.192   3.345   1.081 -1.7422  0.0026  0.0534
 1519SOL    HW214417   2.289   3.319   1.210  1.3346  0.6304 -2.0603
 1520SOL     OW14418   2.458   6.785   0.595 -0.6055 -0.1337 -0.3891
 1520SOL    HW114419   2.453   6.699   0.544  0.3031  0.8101 -2.1020
 1520SOL    HW214420   2.381   6.844   0.568  1.2565  1.3849 -2.6424
 1521SOL     OW14421   3.427   0.524   2.364  0.3551  0.0367  0.4559
 1521SOL    HW114422   3.433   0.546   2.267  0.9140 -0.5120  0.3654
 1521SOL    HW214423   3.498   0.458   2.388  2.1129  2.3635  1.8542
 1522SOL     OW14424   3.693   0.552   0.869  0.6239  0.4666 -0.1739
 1522SOL    HW114425   3.658   0.642   0.896 -1.6569 -0.9625  1.7985
 1522SOL    HW214426   3.648   0.524   0.784  0.8763  0.9116 -0.4593
 1523SOL     OW14427   2.307   0.731   2.501 -0.0311  0.0547 -0.1048
 1523SOL    HW114428   2.223   0.782   2.517 -0.6071  0.1169 -3.0300
 1523SOL    HW214429   2.287   0.650   2.446  1.7297 -0.3527 -0.1965
 1524SOL     OW14430   4.096   9.159   0.668  0.1084  0.2501  0.4135
 1524SOL    HW114431   4.078   9.236   0.729 -1.1296  1.8956 -1.9237
 1524SOL    HW214432   4.192   9.131   0.678  1.0688  3.2132  0.1364
 1525SOL     OW14433   2.254   5.998   1.396 -0.0751 -0.1887 -0.0678
 1525SOL    HW114434   2.332   6.048   1.434 -0.3607 -0.5656  1.0234
 1525SOL    HW214435   2.224   5.928   1.461 -3.5022  2.1712  1.0597
 1526SOL     OW14436   3.554   4.750   0.278  0.5151  0.2489  0.4006
 1526SOL    HW114437   3.468   4.706   0.307  1.1793 -0.8938  0.6961
 1526SOL    HW214438   3.545   4.782   0.184 -0.3240  0.3579  0.5153
 1527SOL     OW14439   1.783   0.239   0.833 -0.4721  0.5517  0.0800
 1527SOL    HW114440   1.712   0.288   0.883 -1.8503  0.4296 -1.6992
 1527SOL    HW214441   1.834   0.304   0.776 -2.2173  0.0259 -2.1797
 1528SOL     OW14442   1.938   7.381   1.868 -0.0755  0.3646 -0.2512
 1528SOL    HW114443   1.968   7.468   1.908  2.4562  0.4059 -2.1061
 1528SOL    HW214444   2.007   7.311   1.887 -0.0144 -0.1842 -2.4322
 1529SOL     OW14445   1.888   3.070   2.609  0.3101 -0.4923  0.1639
 1529SOL    HW114446   1.924   3.163   2.614  1.7644 -1.0352  0.3214
 1529SOL    HW214447   1.912   3.020   2.692 -0.9871 -0.8347  0.3455
 1530SOL     OW14448   1.781   1.014   1.595 -0.0388 -0.2034 -0.2815
 1530SOL    HW114449   1.721   1.086   1.631  1.1729  0.2774  0.8153
 1530SOL    HW214450   1.865   1.054   1.559  0.0945 -0.9634 -0.8384
 1531SOL     OW14451   2.117   6.620   1.223 -0.2135 -0.0934 -0.6886
 1531SOL    HW114452   2.095   6.688   1.154  1.2419  0.7676 -0.3314
 1531SOL    HW214453   2.067   6.640   1.307 -1.7532 -0.9681 -1.3924
 1532SOL     OW14454   4.672   1.909   0.759  0.2870  0.4877 -0.0912
 1532SOL    HW114455   4.692   1.813   0.779  0.5877  0.6530  0.4039
 1532SOL    HW214456   4.749   1.966   0.788  0.8946  0.6960 -2.0513
 1533SOL     OW14457   3.034   4.409   1.426 -0.1227 -0.0407  0.2742
 1533SOL    HW114458   2.982   4.334   1.384  1.6556 -0.5450 -1.0661
 1533SOL    HW214459   2.997   4.496   1.395 -0.1737 -0.3970 -0.6803
 1534SOL     OW14460   2.782   6.801   0.173 -0.4824  0.6472 -0.9403
 1534SOL    HW114461   2.753   6.737   0.101  1.1278  0.3275 -1.3331
 1534SOL    HW214462   2.747   6.892   0.152 -0.4523  0.4528 -1.8703
 1535SOL     OW14463   2.694   7.830   2.571 -0.1511 -0.1710  0.3515
 1535SOL    HW114464   2.617   7.865   2.517  0.7884 -0.1278 -0.9966
 1535SOL    HW214465   2.769   7.896   2.568  1.3156 -1.8510 -1.4743
 1536SOL     OW14466   2.283   6.661   2.233 -0.3623 -0.0364  0.0450
 1536SOL    HW114467   2.279   6.759   2.255 -0.5517  0.2705 -1.3179
 1536SOL    HW214468   2.286   6.608   2.318  2.4448  1.2615  0.8070
 1537SOL     OW14469   3.314   2.550   1.447  0.3184 -0.1841 -0.1920
 1537SOL    HW114470   3.287   2.472   1.504  0.7453 -0.8685 -0.9047
 1537SOL    HW214471   3.405   2.533   1.409  0.0108  0.2266 -1.1181
 1538SOL     OW14472   4.624   3.746   0.803  0.2880  0.2332  0.1057
 1538SOL    HW114473   4.670   3.720   0.888 -2.2323  1.1170  1.7871
 1538SOL    HW214474   4.637   3.844   0.787 -0.8324  0.4643  0.5242
 1539SOL     OW14475   2.517   8.462   1.849 -0.4572  0.1992 -0.2175
 1539SOL    HW114476   2.564   8.517   1.919  0.6833  1.4082 -1.8991
 1539SOL    HW214477   2.493   8.521   1.772 -2.6684 -0.9065 -0.4102
 1540SOL     OW14478   3.126   0.466   0.588 -0.0159  0.1030  0.2988
 1540SOL    HW114479   3.150   0.379   0.546  0.6887  0.2326  0.4228
 1540SOL    HW214480   3.190   0.537   0.557 -0.4702  0.5354  0.3412
 1541SOL     OW14481   4.317   1.965   2.348 -0.6333 -0.1537  0.5788
 1541SOL    HW114482   4.251   1.979   2.421 -1.4817  1.0224 -0.3954
 1541SOL    HW214483   4.390   2.032   2.354  0.3858 -1.3263  1.5340
 1542SOL     OW14484   1.695   1.066   0.007  0.1516  0.4016  0.3588
 1542SOL    HW114485   1.769   1.023   0.059  0.0904 -1.4376 -1.0063
 1542SOL    HW214486   1.725   1.081  -0.087 -1.0965 -0.0454 -0.1132
 1543SOL     OW14487   3.132   8.766   1.876 -0.0529  0.0998 -0.0152
 1543SOL    HW114488   3.177   8.855   1.867 -0.9236  0.5241 -0.2409
 1543SOL    HW214489   3.162   8.723   1.962 -1.2027  1.5333  1.1392
 1544SOL     OW14490   3.394   3.443   2.074  0.0752 -0.1412 -0.2464
 1544SOL    HW114491   3.382   3.467   1.977 -0.5046 -2.5804 -0.8136
 1544SOL    HW214492   3.452   3.512   2.118 -0.7047  1.7093 -2.0030
 1545SOL     OW14493   2.726   0.742   2.580  0.2281  0.5009  0.2347
 1545SOL    HW114494   2.704   0.829   2.534  1.0847  0.2806 -0.6194
 1545SOL    HW214495   2.662   0.672   2.551  1.6322  0.0096 -1.7689
 1546SOL     OW14496   2.438   0.760   0.884 -0.1583  0.3909  0.7644
 1546SOL    HW114497   2.463   0.853   0.855  0.3970  0.6886  2.1700
 1546SOL    HW214498   2.476   0.742   0.974  0.4697 -1.5375  0.1257
 1547SOL     OW14499   2.670   7.297   0.768 -0.2532  0.5514 -0.1177
 1547SOL    HW114500   2.615   7.220   0.801 -0.9787  1.3094  0.4660
 1547SOL    HW214501   2.702   7.351   0.846  0.8962  0.4075 -0.4819
 1548SOL     OW14502   3.563   8.853   2.390  0.0363 -0.0125  0.3984
 1548SOL    HW114503   3.523   8.904   2.466 -1.7723  0.6468 -0.9390
 1548SOL    HW214504   3.574   8.913   2.311 -1.2160 -1.4169 -0.9001
 1549SOL     OW14505   2.554   2.647   1.998 -0.1687 -0.1718 -0.9173
 1549SOL    HW114506   2.647   2.611   2.012 -0.3870 -0.9254 -1.4061
 1549SOL    HW214507   2.492   2.603   2.062 -0.4690 -0.7969 -1.6378
 1550SOL     OW14508   3.172   2.548   2.500  0.2685  0.3634  0.2759
 1550SOL    HW114509   3.144   2.640   2.529 -1.0193 -0.8112  2.8866
 1550SOL    HW214510   3.271   2.546   2.488  0.4329  1.8403  1.1946
 1551SOL     OW14511   4.588   4.692   0.261 -0.4251 -0.1555  0.0756
 1551SOL    HW114512   4.682   4.673   0.289 -0.8889 -0.3261  1.5580
 1551SOL    HW214513   4.535   4.723   0.339 -1.3171  1.1109 -0.9999
 1552SOL     OW14514   3.883   0.206   2.360  0.3822 -0.1275  0.6046
 1552SOL    HW114515   3.927   0.191   2.449  1.4575  1.2437  0.3314
 1552SOL    HW214516   3.943   0.172   2.287 -0.3382 -0.9266  0.3839
 1553SOL     OW14517   3.471   2.954   1.536 -0.1811  0.0467  0.2279
 1553SOL    HW114518   3.409   2.895   1.589 -0.9685 -0.6833 -1.4769
 1553SOL    HW214519   3.421   2.993   1.459  1.4741 -0.5378 -1.1663
 1554SOL     OW14520   3.469   2.062   2.167 -0.0943  0.2016  0.2158
 1554SOL    HW114521   3.515   1.990   2.220  0.2109  0.3128  0.1030
 1554SOL    HW214522   3.520   2.147   2.176  0.3135  0.0647 -0.7815
 1555SOL     OW14523   1.790   7.798   1.576 -0.2629 -0.4567  0.0430
 1555SOL    HW114524   1.819   7.878   1.524 -1.3307 -0.3562 -0.4209
 1555SOL    HW214525   1.691   7.804   1.592 -0.5566 -2.2458 -0.9825
 1556SOL     OW14526   4.976   3.493   2.474 -0.1729 -0.4069 -0.1647
 1556SOL    HW114527   5.043   3.419   2.471 -0.8601 -1.0033 -0.6338
 1556SOL    HW214528   4.886   3.458   2.452 -0.3563  0.7409 -1.2665
 1557SOL     OW14529   3.299   3.695   1.891 -0.1225  0.6069 -0.3491
 1557SOL    HW114530   3.389   3.685   1.847 -0.1600 -2.0845  0.0979
 1557SOL    HW214531   3.311   3.721   1.986  0.2635 -0.6007 -0.0476
 1558SOL     OW14532   2.806   2.535   0.326  0.3677  0.1943 -0.2747
 1558SOL    HW114533   2.757   2.557   0.410  1.4851 -1.3187  0.8099
 1558SOL    HW214534   2.860   2.614   0.298 -0.3828  0.8716  0.1689
 1559SOL     OW14535   3.129   8.844   2.253  0.6364  0.0853  0.0478
 1559SOL    HW114536   3.065   8.892   2.192  0.2538  0.3138  0.6251
 1559SOL    HW214537   3.167   8.764   2.206 -0.7933 -0.5889  0.0350
 1560SOL     OW14538   2.187   8.227   2.627 -0.1509 -0.1958 -0.5236
 1560SOL    HW114539   2.276   8.254   2.590 -0.7066 -1.3256 -2.7700
 1560SOL    HW214540   2.115   8.250   2.560 -1.4802  0.0501  0.9561
 1561SOL     OW14541   2.570   1.544   0.500 -0.4695 -0.1137 -0.2789
 1561SOL    HW114542   2.519   1.497   0.428 -1.7384 -0.4583  0.8334
 1561SOL    HW214543   2.534   1.636   0.512 -1.0647 -0.4779  0.7482
 1562SOL     OW14544   3.064   9.383   0.358  0.1946 -0.4940  0.4636
 1562SOL    HW114545   3.124   9.357   0.434 -1.7168 -0.5892  1.9895
 1562SOL    HW214546   2.970   9.392   0.391  0.0534  4.3958 -0.7996
 1563SOL     OW14547   2.864   1.347   1.046  0.1440  0.3536 -0.0269
 1563SOL    HW114548   2.935   1.276   1.041 -0.3689 -0.2912  1.6298
 1563SOL    HW214549   2.826   1.349   1.138 -1.3160  1.3676 -0.6483
 1564SOL     OW14550   2.338   5.873   2.564 -0.3575  0.2614  0.3191
 1564SOL    HW114551   2.430   5.844   2.539 -0.4835 -0.5926  0.7952
 1564SOL    HW214552   2.311   5.828   2.649 -1.2580  0.4083  0.1201
 1565SOL     OW14553   1.788   0.070   0.622 -0.0577  0.3732  0.1711
 1565SOL    HW114554   1.758   0.122   0.542  0.3202  1.0560  0.4652
 1565SOL    HW214555   1.763   0.120   0.705  0.2906  0.0793  0.4538
 1566SOL     OW14556   3.341   8.506   1.238  0.5538 -0.3860 -0.3756
 1566SOL    HW114557   3.367   8.533   1.145  0.6226 -0.5019 -0.3902
 1566SOL    HW214558   3.365   8.578   1.302 -0.7025  0.2603 -0.6220
 1567SOL     OW14559   1.843   0.153   1.938 -0.6552 -0.5178  0.2481
 1567SOL    HW114560   1.790   0.203   2.006 -1.4724  0.0898 -0.8231
 1567SOL    HW214561   1.796   0.157   1.850  1.0159 -0.2590 -0.6373
 1568SOL     OW14562   3.498   9.285   1.980 -0.4386 -0.1478 -0.0240
 1568SOL    HW114563   3.535   9.210   1.926  0.7538 -0.8637  1.7404
 1568SOL    HW214564   3.556   9.366   1.968 -1.7309  0.5239 -1.9338
 1569SOL     OW14565   2.298   8.696   1.991 -0.5640 -0.3847 -0.3207
 1569SOL    HW114566   2.383   8.703   2.043 -0.4088 -1.4762 -0.4210
 1569SOL    HW214567   2.296   8.767   1.921 -1.3358  1.9152  1.9632
 1570SOL     OW14568   3.278   5.502   1.923 -0.6604  0.1472  0.4195
 1570SOL    HW114569   3.273   5.571   1.852  2.3572 -0.4225 -0.4150
 1570SOL    HW214570   3.196   5.444   1.919 -0.8784  0.5737 -2.0982
 1571SOL     OW14571   3.152   7.662   1.267 -0.1274  0.0261  0.0669
 1571SOL    HW114572   3.159   7.569   1.232  2.1668  0.0228  0.4994
 1571SOL    HW214573   3.220   7.720   1.223  0.2295  0.8910  1.7416
 1572SOL     OW14574   2.576   1.078   0.340 -0.2112  0.0229  0.3384
 1572SOL    HW114575   2.623   1.165   0.328  0.0540 -0.0229  1.0363
 1572SOL    HW214576   2.604   1.014   0.269 -1.2505  0.8661 -0.8522
 1573SOL     OW14577   2.891   2.788   0.198 -0.4061 -0.5102 -0.0506
 1573SOL    HW114578   2.964   2.847   0.234 -1.7701  0.5701  0.9781
 1573SOL    HW214579   2.920   2.751   0.110  1.4876 -0.2817  0.4510
 1574SOL     OW14580   2.843   9.512   2.588 -0.5043 -0.6348 -0.1495
 1574SOL    HW114581   2.823   9.535   2.683  0.4715  1.6248 -0.4437
 1574SOL    HW214582   2.771   9.548   2.529 -0.9353 -1.7355 -0.2992
 1575SOL     OW14583   2.948   4.938   2.620  0.3670  0.8238  0.3214
 1575SOL    HW114584   2.942   5.037   2.607 -0.8976  0.4953 -1.6437
 1575SOL    HW214585   2.990   4.896   2.540 -1.3233 -0.5005  0.1171
 1576SOL     OW14586   3.884   3.801   1.727 -0.5500 -0.1672  0.2075
 1576SOL    HW114587   3.818   3.876   1.728  1.8069  2.0255 -1.4152
 1576SOL    HW214588   3.908   3.778   1.633  0.5820 -1.3013  0.7496
 1577SOL     OW14589   2.823   2.846   0.924  0.1299 -0.3567  0.8597
 1577SOL    HW114590   2.839   2.937   0.962  1.6262  0.7064 -2.1119
 1577SOL    HW214591   2.897   2.785   0.953  2.1894  0.8842 -1.5542
 1578SOL     OW14592   2.999   3.910   0.930 -0.2193  0.1948  0.2383
 1578SOL    HW114593   3.033   3.967   1.004  3.1251 -1.5182  0.0917
 1578SOL    HW214594   3.027   3.949   0.842 -1.5728  0.5811 -0.0383
 1579SOL     OW14595   2.998   2.466   0.525  0.3581  0.0010 -0.1738
 1579SOL    HW114596   2.943   2.429   0.450 -0.3827  0.0169  0.3584
 1579SOL    HW214597   2.959   2.438   0.612  0.4827  1.0188  0.2242
 1580SOL     OW14598   3.485   8.869   1.291  0.3100 -0.0969 -0.0748
 1580SOL    HW114599   3.532   8.904   1.210  2.3512 -1.1132  0.6397
 1580SOL    HW214600   3.482   8.940   1.361  0.8563 -0.0452 -0.1015
 1581SOL     OW14601   2.323   2.746   2.662  0.4858  0.5206 -0.1260
 1581SOL    HW114602   2.374   2.751   2.576  1.5307  0.9634  0.5082
 1581SOL    HW214603   2.256   2.820   2.665  0.4034  0.4697 -0.5769
 1582SOL     OW14604   3.669   8.368   1.266  0.2144  0.1934  0.5297
 1582SOL    HW114605   3.632   8.460   1.281  2.0551  0.8988  0.9598
 1582SOL    HW214606   3.736   8.371   1.191  2.1260 -0.2521  2.1655
 1583SOL     OW14607   2.989   0.448   1.010  0.0553 -0.3791  0.2204
 1583SOL    HW114608   2.990   0.495   0.922 -1.9517  1.4533  1.1306
 1583SOL    HW214609   2.939   0.362   1.001  0.3548 -0.4763 -0.5465
 1584SOL     OW14610   2.952   1.385   1.496 -0.0047 -0.5038  0.0558
 1584SOL    HW114611   2.934   1.478   1.531 -2.6800 -1.0909  0.3610
 1584SOL    HW214612   2.988   1.328   1.570  2.3486  0.4451 -0.3122
 1585SOL     OW14613   4.831   3.016   2.073 -0.6671  0.7381  0.3209
 1585SOL    HW114614   4.747   2.978   2.113 -1.3121  1.5263 -0.2673
 1585SOL    HW214615   4.821   3.115   2.065  1.5826  1.2687  3.2742
 1586SOL     OW14616   2.010   0.132   0.994  0.3982 -0.2485 -0.0190
 1586SOL    HW114617   2.085   0.161   0.934 -0.1624 -0.7108 -0.9553
 1586SOL    HW214618   1.923   0.161   0.955  0.0470 -0.1741  0.8034
 1587SOL     OW14619   2.587   1.324   0.054 -0.5792 -0.0015  0.5373
 1587SOL    HW114620   2.519   1.274  -0.000 -0.0457 -1.5504  1.2608
 1587SOL    HW214621   2.679   1.299   0.023 -0.3079  0.8574  0.6386
 1588SOL     OW14622   2.731   4.845   0.213  0.4813 -0.0100  0.3050
 1588SOL    HW114623   2.662   4.786   0.171  1.1105  0.0355 -0.8236
 1588SOL    HW214624   2.760   4.806   0.300 -1.6336  0.4577  1.2445
 1589SOL     OW14625   4.375   0.705   0.964  0.2267 -0.9089  0.0173
 1589SOL    HW114626   4.367   0.762   1.045 -0.2311 -2.4040  1.0528
 1589SOL    HW214627   4.293   0.715   0.907 -0.1412 -1.0139  0.5258
 1590SOL     OW14628   2.559   3.493   2.466  0.2448 -0.0635 -0.0501
 1590SOL    HW114629   2.539   3.560   2.394 -1.8183  0.1754  0.7134
 1590SOL    HW214630   2.657   3.476   2.468  0.4019  0.2608 -2.6154
 1591SOL     OW14631   2.929   9.979   1.965  0.2031 -0.4215  0.1935
 1591SOL    HW114632   2.935   9.905   1.898 -2.1307  0.3480 -0.9035
 1591SOL    HW214633   2.903  10.064   1.919 -2.3687 -0.0718  2.1930
 1592SOL     OW14634   2.579   6.395   1.139  0.1112  0.0950  0.7681
 1592SOL    HW114635   2.482   6.419   1.151 -0.0552 -0.6679  0.9792
 1592SOL    HW214636   2.634   6.479   1.135 -0.8344  0.6238 -1.8444
 1593SOL     OW14637   3.616   1.563   0.436  0.2413  0.1488 -0.5208
 1593SOL    HW114638   3.571   1.573   0.347 -0.7548  1.4777  0.1040
 1593SOL    HW214639   3.548   1.574   0.508  1.3469  0.8933  0.4228
 1594SOL     OW14640   3.351   1.229   1.930  0.3468 -0.3597 -0.3766
 1594SOL    HW114641   3.332   1.246   1.833 -2.4530 -1.0088  0.0309
 1594SOL    HW214642   3.363   1.131   1.944 -0.8745 -0.4401  0.1812
 1595SOL     OW14643   1.654   0.314   2.125 -0.4004 -0.0811 -0.1297
 1595SOL    HW114644   1.704   0.327   2.211  0.2364 -0.7083 -0.3995
 1595SOL    HW214645   1.626   0.404   2.090  0.0358  0.2388  0.3232
 1596SOL     OW14646   4.117   4.079   2.214 -0.1145 -0.6087 -0.0036
 1596SOL    HW114647   4.171   4.148   2.262  0.1530  0.4019 -1.7408
 1596SOL    HW214648   4.023   4.082   2.248  0.6853 -1.7754  2.3945
 1597SOL     OW14649   2.557   3.096   2.191  0.0052 -0.2399  0.0570
 1597SOL    HW114650   2.520   3.044   2.268  0.3729  0.4945  0.7418
 1597SOL    HW214651   2.484   3.149   2.148 -0.0473  0.0020  0.4384
 1598SOL     OW14652   3.535   9.140   0.338 -0.5519  0.0254  0.3046
 1598SOL    HW114653   3.623   9.099   0.313 -0.1386 -0.2106  2.0678
 1598SOL    HW214654   3.483   9.161   0.256  0.0326 -2.3241 -0.6987
 1599SOL     OW14655   2.074   4.420   0.903  0.2254  0.3615 -0.2148
 1599SOL    HW114656   2.006   4.471   0.957  1.1354  1.1870  0.1778
 1599SOL    HW214657   2.049   4.323   0.901 -1.4690  0.7935 -0.8641
 1600SOL     OW14658   1.981   8.665   2.479  0.5722  0.6123 -0.1653
 1600SOL    HW114659   1.893   8.617   2.468  0.3082  1.2323 -0.8198
 1600SOL    HW214660   1.995   8.726   2.401  1.7282  0.2982 -0.2057
 1601SOL     OW14661   3.528   9.717   0.474  0.1985  0.2585  0.1686
 1601SOL    HW114662   3.538   9.620   0.452  1.3449  0.2990  0.5006
 1601SOL    HW214663   3.454   9.729   0.539  0.2503 -0.4297  0.3527
 1602SOL     OW14664   2.528   6.189   0.126  0.0136  0.5141 -0.5175
 1602SOL    HW114665   2.547   6.287   0.124  0.3281  0.4703  0.0959
 1602SOL    HW214666   2.458   6.167   0.058 -1.7216  1.5198  0.9221
 1603SOL     OW14667   2.626   8.577   0.156 -0.1293  0.7076  0.0874
 1603SOL    HW114668   2.582   8.542   0.073 -0.0510 -0.7792  0.6786
 1603SOL    HW214669   2.572   8.653   0.192 -0.2691  1.2439 -1.2070
 1604SOL     OW14670   3.272   9.000   1.854  0.0683  0.1490  0.4754
 1604SOL    HW114671   3.297   9.091   1.820 -0.5499 -0.1896 -0.9036
 1604SOL    HW214672   3.355   8.947   1.873  0.4928  1.6758  3.2364
 1605SOL     OW14673   4.658   2.869   0.342 -0.6747  0.3543  0.2288
 1605SOL    HW114674   4.725   2.800   0.371  0.9282  2.1149  0.7458
 1605SOL    HW214675   4.636   2.853   0.245  0.8204  0.0029 -0.0825
 1606SOL     OW14676   2.541   7.028   0.776  0.2862  0.0853  0.1662
 1606SOL    HW114677   2.612   6.999   0.712  0.1673 -0.6673  0.3606
 1606SOL    HW214678   2.550   6.976   0.861  0.3328  0.9497  0.6873
 1607SOL     OW14679   2.074   3.488   1.937  0.2441  0.1841 -0.1238
 1607SOL    HW114680   2.120   3.566   1.894 -0.3058  0.1684 -0.7483
 1607SOL    HW214681   2.087   3.406   1.881  1.0241 -0.2378  0.6548
 1608SOL     OW14682   3.416   8.405   0.149  0.0690 -0.6090  0.6911
 1608SOL    HW114683   3.451   8.477   0.090  0.6690 -1.2535  0.2496
 1608SOL    HW214684   3.478   8.327   0.146  0.5670 -0.3281  2.8363
 1609SOL     OW14685   2.682   8.880   1.190 -0.9804 -0.2790  0.2531
 1609SOL    HW114686   2.607   8.891   1.125 -1.0700 -0.7376  0.2767
 1609SOL    HW214687   2.765   8.921   1.152 -0.6973 -1.7505 -0.7491
 1610SOL     OW14688   3.237   1.964   1.138 -0.4371  0.0165  0.2443
 1610SOL    HW114689   3.200   1.871   1.130  0.4152 -0.1791 -1.8536
 1610SOL    HW214690   3.197   2.022   1.067  1.7096  0.3056 -0.7907
 1611SOL     OW14691   3.278   8.157   0.887 -0.2143  0.8425  0.6465
 1611SOL    HW114692   3.266   8.248   0.847 -0.6986  0.2516 -0.5580
 1611SOL    HW214693   3.205   8.141   0.955  0.0797  1.4846  1.1214
 1612SOL     OW14694   1.673   9.512   0.676 -0.3594  0.1032  0.3636
 1612SOL    HW114695   1.732   9.567   0.734  1.8962 -1.1920 -0.6197
 1612SOL    HW214696   1.590   9.487   0.726 -0.5742  2.7899  1.4242
 1613SOL     OW14697   2.899   3.213   1.532 -0.2269 -0.4456 -0.1264
 1613SOL    HW114698   2.825   3.178   1.589 -0.3017  0.0786  0.0982
 1613SOL    HW214699   2.864   3.287   1.473 -0.2417 -1.2329 -1.1224
 1614SOL     OW14700   2.999   8.002   0.673  0.5856 -0.1684  0.2368
 1614SOL    HW114701   3.080   7.977   0.620  1.5811  0.3619  1.4487
 1614SOL    HW214702   2.933   7.927   0.673  1.4353 -0.9170 -0.1070
 1615SOL     OW14703   3.573   2.283   0.451  0.3044 -0.0821 -0.0473
 1615SOL    HW114704   3.609   2.264   0.542  0.3283 -1.0724 -0.2656
 1615SOL    HW214705   3.585   2.380   0.430 -0.5786  0.3534  1.4012
 1616SOL     OW14706   2.708   6.911   0.612  0.0506  0.0513 -0.5496
 1616SOL    HW114707   2.759   6.913   0.527 -1.0984 -0.1878 -1.2561
 1616SOL    HW214708   2.628   6.852   0.602 -1.3156  1.7651 -0.0280
 1617SOL     OW14709   2.257   8.402   2.107  0.2473  0.5147 -0.1003
 1617SOL    HW114710   2.338   8.453   2.076 -0.4503  0.5132 -2.0071
 1617SOL    HW214711   2.286   8.324   2.162  1.5364  0.7575 -0.4164
 1618SOL     OW14712   4.068   4.367   0.059 -0.2463 -0.1479  0.1366
 1618SOL    HW114713   4.039   4.392   0.152  0.2901  0.6538  0.0906
 1618SOL    HW214714   4.046   4.271   0.042  3.1065 -1.3929  2.4480
 1619SOL     OW14715   1.905   9.932   1.327  0.3017  0.2997  0.0373
 1619SOL    HW114716   1.873  10.011   1.275 -1.2132 -1.2534 -1.4601
 1619SOL    HW214717   1.947   9.866   1.264  1.1343 -0.2987  1.2046
 1620SOL     OW14718   3.196   3.533   2.410  0.5039 -0.1445 -0.3764
 1620SOL    HW114719   3.176   3.437   2.391 -2.6971  0.7529 -1.8331
 1620SOL    HW214720   3.163   3.556   2.502  1.1767 -0.3961 -0.0681
 1621SOL     OW14721   1.903   2.232   2.438  0.6469  0.2872  0.3140
 1621SOL    HW114722   1.888   2.279   2.525  0.6763  0.6430  0.1315
 1621SOL    HW214723   1.838   2.268   2.370  0.0169 -0.6301  0.4274
 1622SOL     OW14724   4.316   1.548   1.085 -0.2767 -0.3651 -0.2895
 1622SOL    HW114725   4.385   1.610   1.121 -1.8370  0.3850  1.4490
 1622SOL    HW214726   4.314   1.464   1.140  0.2203 -1.0137 -1.2267
 1623SOL     OW14727   4.411   2.629   2.108 -0.0999  0.2729  0.5752
 1623SOL    HW114728   4.496   2.614   2.057  0.0261 -0.7820  1.0708
 1623SOL    HW214729   4.382   2.724   2.097  0.9446  0.5516  0.0954
 1624SOL     OW14730   2.237   0.462   1.102 -0.3276 -0.0448 -0.1074
 1624SOL    HW114731   2.326   0.506   1.107 -0.1495 -0.5578  1.4893
 1624SOL    HW214732   2.207   0.458   1.006  1.7393 -0.6457 -0.7576
 1625SOL     OW14733   2.148   8.269   0.828  0.2004  0.8309  0.3715
 1625SOL    HW114734   2.205   8.272   0.910  0.8182 -0.2159 -0.0100
 1625SOL    HW214735   2.097   8.183   0.827  2.5859 -0.6170 -1.9106
 1626SOL     OW14736   3.679   2.704   0.088 -0.0893 -0.0664  0.2159
 1626SOL    HW114737   3.683   2.789   0.035  1.5433 -1.0466 -1.2674
 1626SOL    HW214738   3.735   2.715   0.171 -1.1927  0.8434  0.8599
 1627SOL     OW14739   1.828   1.626   1.002  0.0450  0.0542 -0.1622
 1627SOL    HW114740   1.833   1.658   1.097 -2.0450 -0.0930  0.0230
 1627SOL    HW214741   1.874   1.538   0.995  0.2616  0.0866  0.7058
 1628SOL     OW14742   1.594   7.485   2.609  0.5057  0.1376 -0.3159
 1628SOL    HW114743   1.545   7.561   2.653  1.2996  0.5305 -0.1019
 1628SOL    HW214744   1.689   7.511   2.595  0.5216 -0.4181 -1.2383
 1629SOL     OW14745   4.727   2.494   1.226  0.6397 -0.5337 -0.1821
 1629SOL    HW114746   4.648   2.546   1.258  1.6290  1.0482 -0.2611
 1629SOL    HW214747   4.801   2.557   1.202  2.0076 -2.0010  0.0951
 1630SOL     OW14748   2.304   5.386   1.420  0.0168 -0.0891 -0.0175
 1630SOL    HW114749   2.223   5.436   1.450 -1.4802 -1.9142 -0.9063
 1630SOL    HW214750   2.348   5.435   1.345 -1.7295 -0.3530 -1.2288
 1631SOL     OW14751   4.484   4.082   2.191 -0.8562 -0.0186  0.1787
 1631SOL    HW114752   4.485   4.175   2.156 -0.7108 -0.5234 -1.1777
 1631SOL    HW214753   4.474   4.084   2.291 -3.0943  1.3886 -0.0325
 1632SOL     OW14754   1.727   2.292   0.047 -0.0986 -0.1686 -0.0525
 1632SOL    HW114755   1.667   2.319   0.123 -2.2698 -0.1363 -1.7251
 1632SOL    HW214756   1.773   2.206   0.070 -2.6347 -1.4698  0.3638
 1633SOL     OW14757   1.786   0.266   1.166 -0.3640 -0.4576 -0.4183
 1633SOL    HW114758   1.767   0.347   1.222  1.4491  0.4506 -1.0604
 1633SOL    HW214759   1.701   0.231   1.128 -1.4933 -0.4948  2.0987
 1634SOL     OW14760   4.883   3.653   0.114  0.0852 -0.3008 -0.3037
 1634SOL    HW114761   4.936   3.736   0.095 -1.7182  0.8977 -0.1503
 1634SOL    HW214762   4.840   3.621   0.030 -0.9810  0.1511  0.0724
 1635SOL     OW14763   3.913   2.065   1.292  0.0834 -0.1047 -0.1383
 1635SOL    HW114764   3.885   2.019   1.376  0.7172  0.1799  0.2309
 1635SOL    HW214765   3.878   2.015   1.213 -0.0620 -0.6687  0.2823
 1636SOL     OW14766   2.094   2.338   0.082 -0.2608  0.5634  0.1551
 1636SOL    HW114767   2.100   2.239   0.067  0.1945  0.6460 -0.2110
 1636SOL    HW214768   2.040   2.356   0.164 -0.5094  0.0150  0.1136
 1637SOL     OW14769   3.121   3.992   1.809 -0.0544 -0.6313  0.2442
 1637SOL    HW114770   3.035   4.017   1.765  0.9464  0.7264 -1.0157
 1637SOL    HW214771   3.169   3.925   1.753  0.2390 -0.5157  0.3552
 1638SOL     OW14772   3.954   2.391   0.189  0.4808 -0.0710 -0.2442
 1638SOL    HW114773   3.939   2.466   0.254  2.0271  1.2159 -1.3325
 1638SOL    HW214774   3.925   2.419   0.098  1.9926 -0.4139 -0.8515
 1639SOL     OW14775   2.892   1.920   1.011  0.2147 -0.3485  0.9801
 1639SOL    HW114776   2.947   1.860   1.070 -0.8526 -0.0963  2.2651
 1639SOL    HW214777   2.942   2.005   0.994 -0.4339  0.5970  3.5580
 1640SOL     OW14778   2.323   6.736   1.497  0.2199 -0.3735 -0.1656
 1640SOL    HW114779   2.387   6.660   1.507  1.4478  0.5045 -1.0466
 1640SOL    HW214780   2.370   6.821   1.521 -0.3907  0.3722 -1.5737
 1641SOL     OW14781   2.555   0.262   2.111  0.1386  0.0745 -0.4626
 1641SOL    HW114782   2.617   0.337   2.085 -0.3000 -0.1782 -2.2931
 1641SOL    HW214783   2.600   0.203   2.177  1.2824  0.7559 -0.6235
 1642SOL     OW14784   2.187   3.626   1.530  0.6054 -0.2257 -0.3351
 1642SOL    HW114785   2.155   3.626   1.625 -2.4466 -2.2591 -1.2898
 1642SOL    HW214786   2.209   3.719   1.502  0.9559  0.4760  2.1797
 1643SOL     OW14787   3.405   9.482   2.367 -0.2342  0.0844  0.0666
 1643SOL    HW114788   3.340   9.513   2.297  1.7314  1.6268 -1.1471
 1643SOL    HW214789   3.442   9.393   2.341  0.3906  0.5918 -0.8437
 1644SOL     OW14790   2.392   4.448   1.569  0.5332  0.1713  0.4641
 1644SOL    HW114791   2.429   4.357   1.549  0.4365 -0.1195  1.5466
 1644SOL    HW214792   2.403   4.467   1.666 -2.3990 -0.0418  0.8793
 1645SOL     OW14793   3.306   0.232   1.452  0.0425 -0.5362  0.1765
 1645SOL    HW114794   3.276   0.217   1.358  1.9225 -0.6382 -0.4453
 1645SOL    HW214795   3.329   0.144   1.494 -1.3641 -0.5503  0.9532
 1646SOL     OW14796   2.124   3.868   0.131  0.1704  0.3726 -0.3716
 1646SOL    HW114797   2.139   3.949   0.188 -0.1486 -0.0886  0.3777
 1646SOL    HW214798   2.128   3.894   0.034  1.6658  0.9870 -0.1544
 1647SOL     OW14799   3.851   4.685   1.839 -0.1637  0.4238  0.1575
 1647SOL    HW114800   3.836   4.703   1.936  0.3876 -0.1042  0.3471
 1647SOL    HW214801   3.763   4.669   1.795 -0.3532 -0.3149  0.7773
 1648SOL     OW14802   3.622   2.990   0.290  0.1830 -0.0534 -0.0009
 1648SOL    HW114803   3.697   3.038   0.335  0.9418  1.3281 -2.6077
 1648SOL    HW214804   3.643   2.979   0.193 -1.5690 -2.5698 -0.1292
 1649SOL     OW14805   5.111   3.308   0.973  0.4951 -0.1130  0.0878
 1649SOL    HW114806   5.157   3.338   1.057  0.6802 -1.5573  0.5104
 1649SOL    HW214807   5.130   3.211   0.957 -1.0735 -0.3187 -0.6203
 1650SOL     OW14808   2.182   9.565   0.292  0.0531  1.0174  0.2611
 1650SOL    HW114809   2.097   9.533   0.333 -0.2658  0.9627 -0.4286
 1650SOL    HW214810   2.192   9.663   0.306  0.6488  0.7616  1.7020
 1651SOL     OW14811   3.427   0.076   1.850 -0.0656 -0.2488 -0.2004
 1651SOL    HW114812   3.365   0.155   1.847  0.3738  0.0520 -2.5159
 1651SOL    HW214813   3.521   0.107   1.837  0.1049 -1.1188 -1.1443
 1652SOL     OW14814   2.921   3.901   0.040  0.5175  0.0150  0.9889
 1652SOL    HW114815   2.855   3.912   0.114 -1.3464 -0.5686 -0.5729
 1652SOL    HW214816   2.904   3.969  -0.031  4.4775  2.8892  2.5880
 1653SOL     OW14817   3.116   2.899   0.303 -0.2892 -0.1408  0.3939
 1653SOL    HW114818   3.087   2.919   0.396 -0.6371  1.1200  0.0312
 1653SOL    HW214819   3.197   2.954   0.281 -0.3237 -0.2863 -0.1033
 1654SOL     OW14820   2.613   4.030   1.746  0.3892  0.0489  0.0979
 1654SOL    HW114821   2.596   4.059   1.841  3.4434 -0.3450  0.8165
 1654SOL    HW214822   2.630   3.932   1.744  1.3927  0.2383 -0.7116
 1655SOL     OW14823   1.665   6.601   1.088 -0.1903  0.0900  0.1015
 1655SOL    HW114824   1.736   6.622   1.155  0.1872  0.4665 -0.4085
 1655SOL    HW214825   1.596   6.543   1.130  0.3276 -0.1353  0.6562
 1656SOL     OW14826   3.370   0.963   1.930 -0.4993 -0.1920  1.0144
 1656SOL    HW114827   3.292   0.904   1.911 -0.4775  0.3780 -0.8858
 1656SOL    HW214828   3.396   0.952   2.026 -1.5199 -2.0229  1.1157
 1657SOL     OW14829   2.721   4.537   1.191  0.7526 -0.0308 -0.6267
 1657SOL    HW114830   2.700   4.439   1.198  1.7620 -0.1489  1.1510
 1657SOL    HW214831   2.802   4.558   1.247  0.4046  1.8675 -0.7964
 1658SOL     OW14832   1.852   0.423   0.596  0.3150 -0.0429  0.1253
 1658SOL    HW114833   1.918   0.448   0.667 -1.4525  0.1748  1.7226
 1658SOL    HW214834   1.843   0.499   0.532 -0.3630  1.0060  1.4272
 1659SOL     OW14835   4.363   2.896   2.049  0.4300 -0.2746 -0.1669
 1659SOL    HW114836   4.286   2.929   2.103  0.1960  0.4587 -0.9433
 1659SOL    HW214837   4.399   2.971   1.993  2.7240 -0.1694  1.3801
 1660SOL     OW14838   2.974   0.544   1.729 -0.4545 -0.8279 -0.1687
 1660SOL    HW114839   2.973   0.625   1.670  1.0096 -1.6675 -1.3812
 1660SOL    HW214840   2.956   0.571   1.823  0.1621  0.9311 -0.5374
 1661SOL     OW14841   2.791   4.541   1.566  0.1095  0.0205  0.2297
 1661SOL    HW114842   2.882   4.567   1.598  0.4413  0.5009 -1.0919
 1661SOL    HW214843   2.755   4.611   1.504 -1.1198 -0.2089  0.6620
 1662SOL     OW14844   3.136   0.948   2.477 -0.4563  0.1045  0.4988
 1662SOL    HW114845   3.104   0.987   2.563 -1.9945  0.3951 -0.1923
 1662SOL    HW214846   3.143   1.020   2.408 -3.2284 -0.7845 -0.7566
 1663SOL     OW14847   4.944   3.827   0.869 -0.1820 -0.7817 -0.1096
 1663SOL    HW114848   4.898   3.817   0.780 -0.0492 -1.0032 -0.1525
 1663SOL    HW214849   4.876   3.850   0.938  0.1089  2.2310 -0.7839
 1664SOL     OW14850   3.660   1.057   0.128  0.2526  0.2634  0.6088
 1664SOL    HW114851   3.636   1.041   0.224 -0.9547 -1.8479  0.0038
 1664SOL    HW214852   3.682   0.969   0.085  1.9278  1.3319 -0.7560
 1665SOL     OW14853   5.303   3.138   0.793  0.6601 -0.5936  0.1003
 1665SOL    HW114854   5.324   3.235   0.782 -0.7134  0.0974  3.0359
 1665SOL    HW214855   5.376   3.094   0.845 -0.8801 -0.0729  2.7988
 1666SOL     OW14856   2.146   2.977   2.424 -0.4788 -0.2958  0.3808
 1666SOL    HW114857   2.114   3.026   2.343  0.9460 -0.8663 -0.5294
 1666SOL    HW214858   2.067   2.953   2.481 -1.5519 -0.4255 -1.1309
 1667SOL     OW14859   3.307   9.233   0.865  0.0155 -0.2740 -0.7676
 1667SOL    HW114860   3.249   9.190   0.796  0.4924 -0.1283 -1.2690
 1667SOL    HW214861   3.270   9.321   0.891 -0.6544 -0.7283 -0.1669
 1668SOL     OW14862   3.034   9.689   0.579  0.3531  0.7655 -0.2712
 1668SOL    HW114863   2.967   9.623   0.613  1.5533 -0.5710 -0.4536
 1668SOL    HW214864   3.037   9.685   0.479  1.1785  0.3352 -0.2330
 1669SOL     OW14865   2.967   5.708   1.747 -0.9114 -0.5732 -0.1648
 1669SOL    HW114866   2.922   5.701   1.837 -0.2965 -1.3287  0.0952
 1669SOL    HW214867   3.065   5.692   1.758 -0.2488  3.0069 -0.4490
 1670SOL     OW14868   3.921   3.881   0.813 -0.6548 -0.1625  0.0849
 1670SOL    HW114869   3.857   3.805   0.823 -1.4125  0.2488 -1.4403
 1670SOL    HW214870   4.002   3.864   0.868 -2.5374 -0.1759  2.9509
 1671SOL     OW14871   1.499   8.065   2.625 -0.0392  0.0632  0.2932
 1671SOL    HW114872   1.560   8.024   2.558  0.8971 -0.5376  1.4917
 1671SOL    HW214873   1.407   8.072   2.587  0.9078  1.5534 -1.7457
 1672SOL     OW14874   3.017   1.768   1.199 -0.1585 -0.3261  0.0255
 1672SOL    HW114875   3.069   1.692   1.240  0.3660  1.0268  1.9609
 1672SOL    HW214876   2.930   1.779   1.247 -0.1885  0.3430 -0.1724
 1673SOL     OW14877   3.774   0.866   2.028 -0.1430 -0.1091  0.1397
 1673SOL    HW114878   3.739   0.781   1.988 -1.1378 -0.1191  1.0090
 1673SOL    HW214879   3.712   0.941   2.006  0.7459  0.4126 -0.6446
 1674SOL     OW14880   2.902   8.011   1.251  0.1399 -0.0067 -0.0257
 1674SOL    HW114881   2.883   8.108   1.268 -1.4082 -0.2809 -0.1025
 1674SOL    HW214882   2.816   7.961   1.242  0.8587 -1.7651  2.1449
 1675SOL     OW14883   1.941   4.064   1.989 -0.0783 -0.4744  0.6622
 1675SOL    HW114884   1.953   4.112   2.076  0.7324  0.5684 -0.0045
 1675SOL    HW214885   2.026   4.018   1.964 -0.3257 -0.8226  0.4602
 1676SOL     OW14886   4.527   4.047   0.501 -0.2617  0.7308 -0.0260
 1676SOL    HW114887   4.484   4.038   0.591 -0.9012 -0.2183 -0.4185
 1676SOL    HW214888   4.472   3.998   0.433  1.2606 -0.2448 -0.5812
 1677SOL     OW14889   4.259   4.203   1.998 -0.1292  0.1645  0.4525
 1677SOL    HW114890   4.198   4.209   1.918 -0.7657 -0.3413  0.8870
 1677SOL    HW214891   4.212   4.153   2.071  1.4855 -1.8749  0.1616
 1678SOL     OW14892   2.642   3.509   0.953 -0.3585  0.6195  0.3217
 1678SOL    HW114893   2.688   3.487   0.867  1.2243  3.5128  0.3853
 1678SOL    HW214894   2.666   3.602   0.981 -3.4074  0.8923  2.2503
 1679SOL     OW14895   3.159   1.141   2.308 -0.0644 -0.3993  0.1838
 1679SOL    HW114896   3.229   1.189   2.254  1.5174  0.1293  2.6394
 1679SOL    HW214897   3.104   1.208   2.358 -0.4494 -0.9589  0.5165
 1680SOL     OW14898   4.455   1.686   0.838  0.6525 -0.5300  0.1632
 1680SOL    HW114899   4.441   1.656   0.933 -0.2381  1.0328  0.5433
 1680SOL    HW214900   4.470   1.785   0.837 -0.1950 -0.4111 -1.4055
 1681SOL     OW14901   1.570   7.771   0.021 -0.6153 -0.5740  0.0018
 1681SOL    HW114902   1.520   7.857   0.005 -0.9662 -0.7445  0.1672
 1681SOL    HW214903   1.613   7.773   0.111  2.7218  1.0536 -1.5483
 1682SOL     OW14904   1.932   3.316   2.288 -0.0903  0.2806  0.0216
 1682SOL    HW114905   1.913   3.388   2.221 -0.4975  0.3512  0.2093
 1682SOL    HW214906   1.993   3.351   2.359  0.9983 -0.0350 -0.7490
 1683SOL     OW14907   4.741   3.962   0.021 -0.2066  0.5211  0.0043
 1683SOL    HW114908   4.831   3.933   0.053 -0.7599 -0.6664  0.5188
 1683SOL    HW214909   4.672   3.933   0.088 -1.1350  0.0626 -1.1505
 1684SOL     OW14910   4.553   2.689   0.566  0.1784  0.5382  0.0308
 1684SOL    HW114911   4.637   2.722   0.524 -0.6772  3.8431  0.8056
 1684SOL    HW214912   4.513   2.617   0.509  1.6266  1.4483 -2.1768
 1685SOL     OW14913   4.105   2.758   0.679  0.0314 -0.6004 -0.2163
 1685SOL    HW114914   4.072   2.710   0.760  1.0643 -1.1207 -0.0923
 1685SOL    HW214915   4.195   2.797   0.697  0.1563 -0.4943 -1.0286
 1686SOL     OW14916   3.680   5.098   0.081  0.4481 -0.6538 -0.0181
 1686SOL    HW114917   3.673   5.195   0.103 -1.2764 -0.2018 -2.3723
 1686SOL    HW214918   3.755   5.083   0.017  0.3308 -0.8177 -0.1175
 1687SOL     OW14919   3.111   3.019   1.254 -0.3327  0.0666  0.4471
 1687SOL    HW114920   3.160   3.098   1.291 -2.3122  2.1585 -1.2025
 1687SOL    HW214921   3.169   2.972   1.187  0.4186  0.8925  0.5103
 1688SOL     OW14922   2.869   5.082   2.332  0.0730  0.3063 -0.1865
 1688SOL    HW114923   2.877   5.104   2.235  1.1247 -0.0959 -0.2047
 1688SOL    HW214924   2.773   5.074   2.357 -0.2260  1.2788 -0.9969
 1689SOL     OW14925   3.002   2.572   1.633 -0.4308  0.4260 -0.1663
 1689SOL    HW114926   3.085   2.623   1.612 -1.5452  2.5519  0.4599
 1689SOL    HW214927   2.950   2.558   1.549 -0.1608  0.3795 -0.3280
 1690SOL     OW14928   3.217   7.888   0.517  0.8232 -0.1332 -0.1414
 1690SOL    HW114929   3.128   7.912   0.479  0.6829  0.4886  0.5713
 1690SOL    HW214930   3.260   7.817   0.460  0.0794 -0.1040 -0.7418
 1691SOL     OW14931   3.392   2.066   0.326 -0.0392  0.1079  0.4802
 1691SOL    HW114932   3.307   2.068   0.380 -0.1719  0.9777  0.2543
 1691SOL    HW214933   3.423   2.160   0.312 -0.3109 -0.0867 -1.4574
 1692SOL     OW14934   1.607   2.883   0.449 -0.3527  0.1071 -0.0695
 1692SOL    HW114935   1.530   2.942   0.424 -1.4251 -0.8384  0.9244
 1692SOL    HW214936   1.637   2.832   0.368  0.9207  2.3350 -1.0636
 1693SOL     OW14937   2.337   1.653   0.710  0.4130  0.0716  0.3721
 1693SOL    HW114938   2.268   1.717   0.742 -0.2729 -1.0196  1.1167
 1693SOL    HW214939   2.293   1.566   0.686  1.1970  0.1606 -1.4823
 1694SOL     OW14940   1.570   3.544   0.445  0.2286  0.0077 -0.3730
 1694SOL    HW114941   1.515   3.465   0.419  0.5737 -0.0698 -0.8678
 1694SOL    HW214942   1.584   3.603   0.366  0.3325  0.3478 -0.1036
 1695SOL     OW14943   3.403   8.816   0.986  0.2025 -0.5269 -0.5873
 1695SOL    HW114944   3.305   8.832   0.996 -0.1161 -1.4989 -2.0913
 1695SOL    HW214945   3.441   8.883   0.922  0.6634  0.2896  0.5230
 1696SOL     OW14946   3.459   1.664   1.117  0.1108 -0.1971  0.1326
 1696SOL    HW114947   3.478   1.729   1.190 -2.1791 -0.1062  0.6601
 1696SOL    HW214948   3.490   1.703   1.030 -2.9412  2.4862  0.1558
 1697SOL     OW14949   2.330   4.425   1.009  0.0732  0.5754 -1.0473
 1697SOL    HW114950   2.245   4.433   0.956 -0.6974 -1.5320 -0.1911
 1697SOL    HW214951   2.316   4.466   1.099  1.0817  3.2886 -2.0577
 1698SOL     OW14952   2.298   7.147   0.483  1.0066 -0.1386  0.2049
 1698SOL    HW114953   2.282   7.058   0.526 -0.2037 -0.5194 -1.0071
 1698SOL    HW214954   2.317   7.216   0.554  2.2777 -1.4106  1.1313
 1699SOL     OW14955   2.038   2.339   1.324 -0.5002 -0.7509  0.4919
 1699SOL    HW114956   1.965   2.323   1.257 -0.5672 -0.2323  0.4372
 1699SOL    HW214957   2.010   2.412   1.387  0.5786  0.5055 -0.4562
 1700SOL     OW14958   4.929   2.689   1.153 -0.3601 -0.4813 -0.3844
 1700SOL    HW114959   4.923   2.721   1.059  0.6485  1.0504  0.0526
 1700SOL    HW214960   4.874   2.747   1.213  2.3356  1.1880  0.5694
 1701SOL     OW14961   4.106   4.831   1.536  0.2207 -0.3516 -0.3336
 1701SOL    HW114962   4.106   4.773   1.617  0.3546  0.0122 -0.0695
 1701SOL    HW214963   4.136   4.923   1.561  1.6912 -0.6110 -1.0586
 1702SOL     OW14964   3.483   9.039   1.522  0.4781  0.4139 -0.6027
 1702SOL    HW114965   3.559   9.074   1.467 -0.5983 -0.0835 -2.4466
 1702SOL    HW214966   3.398   9.083   1.493 -0.3599 -1.1406 -0.5420
 1703SOL     OW14967   3.886   8.116   0.701  0.5658  0.0394 -0.3920
 1703SOL    HW114968   3.830   8.192   0.668  0.5774  0.1204 -0.2287
 1703SOL    HW214969   3.925   8.067   0.624  1.6948  1.0426 -0.4681
 1704SOL     OW14970   2.621   4.410   0.140  0.2384  0.0902 -0.2593
 1704SOL    HW114971   2.577   4.497   0.115 -2.3667 -0.1929  2.9944
 1704SOL    HW214972   2.644   4.412   0.238  0.9290 -2.5685 -0.3477
 1705SOL     OW14973   2.981   6.269   1.439 -0.1979  0.1057  0.0770
 1705SOL    HW114974   2.926   6.192   1.407 -2.3727  1.6897 -0.0885
 1705SOL    HW214975   3.020   6.317   1.361 -0.6308  0.4539  0.0729
 1706SOL     OW14976   3.792   9.042   0.251 -0.3310 -0.3149  0.4289
 1706SOL    HW114977   3.804   9.118   0.187  0.3540  0.1397  1.0852
 1706SOL    HW214978   3.846   8.964   0.220  0.1648 -0.0261  0.5651
 1707SOL     OW14979   4.534   2.135   2.287  0.3338  0.2176 -0.2203
 1707SOL    HW114980   4.523   2.233   2.301  0.0377  0.1940 -0.2800
 1707SOL    HW214981   4.615   2.103   2.336  1.7449  0.8959 -2.0374
 1708SOL     OW14982   2.508   0.068   2.460 -0.1105 -0.0369 -0.6984
 1708SOL    HW114983   2.559   0.082   2.544  1.0906  0.1263 -1.4442
 1708SOL    HW214984   2.571   0.052   2.384 -1.1766 -0.3603 -1.5433
 1709SOL     OW14985   2.342   9.106   0.349  0.1856 -0.0996 -0.3318
 1709SOL    HW114986   2.339   9.181   0.415 -1.8104  0.3006 -0.8343
 1709SOL    HW214987   2.398   9.132   0.270  2.1114 -0.3665  0.9197
 1710SOL     OW14988   2.484   6.460   1.530 -0.5923  0.2336 -0.3752
 1710SOL    HW114989   2.556   6.392   1.543 -1.3323 -0.0417  2.5454
 1710SOL    HW214990   2.420   6.427   1.461  0.8390 -0.5283 -1.3655
 1711SOL     OW14991   3.828   8.888   2.458 -0.6282  0.2989  0.7285
 1711SOL    HW114992   3.903   8.845   2.408  0.4974  2.1520  0.7740
 1711SOL    HW214993   3.743   8.837   2.440  0.3069 -0.8279 -0.6745
 1712SOL     OW14994   4.432   3.792   1.145 -0.0920  0.2723 -0.3132
 1712SOL    HW114995   4.394   3.861   1.206  0.9262 -0.6107  1.3622
 1712SOL    HW214996   4.382   3.792   1.058 -0.9518  2.1797  0.1692
 1713SOL     OW14997   3.901   3.389   2.223 -0.2743 -0.4396 -0.2873
 1713SOL    HW114998   3.864   3.341   2.303 -1.0567 -2.4504 -1.8210
 1713SOL    HW214999   3.888   3.333   2.142 -0.4596  2.0427 -2.0201
 1714SOL     OW15000   3.970   1.282   1.876  0.1340 -0.4131 -0.0720
 1714SOL    HW115001   4.064   1.261   1.847 -0.4440 -1.5300 -1.2039
 1714SOL    HW215002   3.970   1.310   1.972  1.6534 -0.2194 -0.1187
 1715SOL     OW15003   3.627   0.319   2.383  0.2589  0.3558  0.3734
 1715SOL    HW115004   3.719   0.306   2.345 -0.6585  0.2939 -1.9428
 1715SOL    HW215005   3.570   0.239   2.360 -0.6493  0.8397  0.9032
 1716SOL     OW15006   2.265   4.939   1.404  0.0691  0.0644 -0.2169
 1716SOL    HW115007   2.250   4.951   1.306 -0.1110  0.6308 -0.1270
 1716SOL    HW215008   2.238   4.847   1.431  1.2603 -0.4990 -0.9065
 1717SOL     OW15009   2.647   3.764   1.657 -0.0399  0.3935 -0.1140
 1717SOL    HW115010   2.590   3.683   1.672  2.0264 -0.9794  0.5549
 1717SOL    HW215011   2.663   3.776   1.559 -0.1660 -0.1541 -0.2056
 1718SOL     OW15012   2.789   7.340   2.663  0.0541  0.1027 -0.0254
 1718SOL    HW115013   2.830   7.263   2.713 -1.3211 -0.1399  0.7412
 1718SOL    HW215014   2.690   7.332   2.665 -0.1963  2.8946  1.6533
 1719SOL     OW15015   3.662   9.568   2.304 -0.7192 -0.2349  0.3925
 1719SOL    HW115016   3.723   9.497   2.338  1.6570  1.8134  0.5401
 1719SOL    HW215017   3.568   9.547   2.331 -0.2509 -3.9707 -0.7190
 1720SOL     OW15018   2.023   3.079   1.577  0.3409  0.4407  0.3821
 1720SOL    HW115019   2.072   3.125   1.651  0.1515  0.2985  0.5979
 1720SOL    HW215020   2.087   3.056   1.504  0.4183  1.1244  0.2316
 1721SOL     OW15021   4.421   4.336   1.666  0.3267 -0.4401  0.0211
 1721SOL    HW115022   4.466   4.349   1.754  1.5903  2.1885 -0.9827
 1721SOL    HW215023   4.330   4.378   1.668 -0.1103 -1.3670  0.3936
 1722SOL     OW15024   2.517   2.444   0.853  0.1606  0.0383  0.4347
 1722SOL    HW115025   2.584   2.516   0.834  1.2685 -0.6768  1.5187
 1722SOL    HW215026   2.505   2.387   0.772  2.8757 -1.4263  1.0125
 1723SOL     OW15027   2.501   6.293   0.646  0.0960  0.3038  0.6566
 1723SOL    HW115028   2.461   6.264   0.559 -0.3000  0.8771  0.6474
 1723SOL    HW215029   2.600   6.300   0.636  0.2644 -1.6149  0.8233
 1724SOL     OW15030   5.474   3.274   0.477 -0.4071  0.3056  0.0607
 1724SOL    HW115031   5.565   3.306   0.451 -0.1667 -1.0613 -0.8120
 1724SOL    HW215032   5.455   3.186   0.434 -2.9215  1.4756 -1.3758
 1725SOL     OW15033   2.133   6.616   2.659  0.1051 -0.3098 -0.3691
 1725SOL    HW115034   2.194   6.569   2.595  0.3558 -1.1652  0.4908
 1725SOL    HW215035   2.098   6.551   2.726  1.0434  0.8677  1.3008
 1726SOL     OW15036   3.401   3.414   0.552 -0.3146 -0.4509 -0.2589
 1726SOL    HW115037   3.454   3.418   0.468 -0.5873  1.6941 -0.3635
 1726SOL    HW215038   3.343   3.495   0.559 -1.5226 -1.4047  1.1995
 1727SOL     OW15039   2.307   6.924   2.348  0.2655 -0.0239 -0.2803
 1727SOL    HW115040   2.216   6.926   2.307  0.2786 -0.3672 -0.3330
 1727SOL    HW215041   2.323   7.008   2.400 -0.8638 -0.8302  1.4004
 1728SOL     OW15042   4.656   2.351   2.086  0.2615  0.0561 -0.3829
 1728SOL    HW115043   4.592   2.355   2.163  0.6873 -1.9276  0.0967
 1728SOL    HW215044   4.660   2.258   2.051  0.5744  0.8044 -2.4092
 1729SOL     OW15045   1.780   3.399   0.582 -0.4363  0.2667  0.4768
 1729SOL    HW115046   1.697   3.445   0.552 -1.1134 -2.6365 -2.4113
 1729SOL    HW215047   1.769   3.369   0.677 -2.6251  0.0331  0.1729
 1730SOL     OW15048   1.967   7.452   0.315 -0.0407  0.0765  0.0832
 1730SOL    HW115049   2.020   7.369   0.328  1.4950  1.1955  1.2417
 1730SOL    HW215050   1.880   7.430   0.272  0.8035 -1.9734 -0.6481
 1731SOL     OW15051   3.141   9.550   1.266 -0.0518 -0.3921  0.4179
 1731SOL    HW115052   3.069   9.504   1.319 -0.7579  0.1678 -0.0476
 1731SOL    HW215053   3.187   9.617   1.323 -0.7031  0.0926  0.3859
 1732SOL     OW15054   4.001   1.347   2.568 -0.1907 -0.0178 -0.4067
 1732SOL    HW115055   3.923   1.335   2.507 -1.2702 -0.9356  1.1372
 1732SOL    HW215056   3.971   1.341   2.663  1.7055 -0.0800  0.2111
 1733SOL     OW15057   2.986   7.946   0.371 -0.3569  0.1623  0.0562
 1733SOL    HW115058   2.916   7.963   0.441 -0.0348  1.0577  0.1711
 1733SOL    HW215059   3.003   8.030   0.320 -0.8697 -0.5944 -1.3717
 1734SOL     OW15060   3.548   9.821   2.328 -0.0758  0.4697  0.1973
 1734SOL    HW115061   3.524   9.822   2.425 -1.6298 -0.0316 -0.1663
 1734SOL    HW215062   3.570   9.728   2.299 -1.0400  0.3806 -0.2644
 1735SOL     OW15063   2.090   5.162   2.029 -0.3990  0.0151  0.7409
 1735SOL    HW115064   2.176   5.168   1.979 -0.1720 -2.0376  0.8134
 1735SOL    HW215065   2.102   5.103   2.109 -1.5692  0.6801  1.4290
 1736SOL     OW15066   3.456   4.028   0.567  0.6535 -0.0184 -0.1336
 1736SOL    HW115067   3.500   4.117   0.570  2.2207 -0.7360 -1.1114
 1736SOL    HW215068   3.408   4.018   0.479 -1.5230  0.7601  0.9215
 1737SOL     OW15069   1.723   7.433   0.209  0.0566 -0.1595  0.1622
 1737SOL    HW115070   1.710   7.382   0.124 -0.6282  0.0564  0.1377
 1737SOL    HW215071   1.693   7.527   0.196  0.0658 -0.0926  0.6137
 1738SOL     OW15072   4.231   1.189   0.608  0.2622  0.1907  0.3062
 1738SOL    HW115073   4.164   1.245   0.560 -0.1286 -0.6230 -0.0924
 1738SOL    HW215074   4.317   1.188   0.556  0.4189  0.7761  0.5405
 1739SOL     OW15075   2.976   9.959   2.466  1.0217 -0.7622  0.1379
 1739SOL    HW115076   2.956   9.924   2.375  1.2580 -0.1067 -0.1758
 1739SOL    HW215077   2.896   9.949   2.525  0.8896 -1.2420 -0.1261
 1740SOL     OW15078   2.082   9.572   0.032 -0.1440 -0.2333 -0.4008
 1740SOL    HW115079   2.111   9.581   0.127  1.2414  0.3554 -0.8746
 1740SOL    HW215080   2.019   9.495   0.024  2.9295 -2.9016  0.2729
 1741SOL     OW15081   3.473   2.813   1.251 -0.2254 -0.0439 -0.2772
 1741SOL    HW115082   3.569   2.837   1.237 -0.4134 -0.1566 -1.8550
 1741SOL    HW215083   3.464   2.764   1.337  0.9607  0.9364  0.4195
 1742SOL     OW15084   2.678   4.044   2.026 -0.1281 -0.1745  0.7110
 1742SOL    HW115085   2.714   3.973   2.086  2.3975 -1.7247 -2.4866
 1742SOL    HW215086   2.724   4.130   2.044  1.5746 -0.9459  0.1311
 1743SOL     OW15087   3.103   9.910   0.069  0.8311  0.1617 -0.3563
 1743SOL    HW115088   3.084   9.938  -0.026  2.2905  0.4445 -0.5747
 1743SOL    HW215089   3.108   9.810   0.073  1.3714  0.1728 -0.6972
 1744SOL     OW15090   3.234   8.017   2.662 -0.3519 -0.2620  0.1809
 1744SOL    HW115091   3.223   8.105   2.707 -0.6200 -0.0233 -0.3441
 1744SOL    HW215092   3.177   7.949   2.707 -0.1271 -0.1704  0.6022
 1745SOL     OW15093   2.740   4.480   0.431 -0.3118 -0.1148  0.4907
 1745SOL    HW115094   2.735   4.579   0.434  0.7915 -0.0631  0.7568
 1745SOL    HW215095   2.656   4.441   0.470 -0.6663  0.7068  0.5412
 1746SOL     OW15096   2.678   3.567   0.399 -0.3780  0.1607 -0.0202
 1746SOL    HW115097   2.778   3.566   0.394 -0.4768 -1.8873 -2.9259
 1746SOL    HW215098   2.646   3.483   0.442 -0.8875 -0.2686 -1.2118
 1747SOL     OW15099   4.462   1.967   1.594 -0.0923  0.1615 -0.2320
 1747SOL    HW115100   4.469   1.883   1.648  0.4665 -0.0131 -0.5813
 1747SOL    HW215101   4.479   2.046   1.653 -1.3748  0.0820  0.2711
 1748SOL     OW15102   2.596   6.146   1.942  0.5059 -0.0111 -0.1493
 1748SOL    HW115103   2.581   6.230   1.993  0.3947  0.5646 -1.1082
 1748SOL    HW215104   2.517   6.127   1.884  1.0771 -0.0498 -0.9351
 1749SOL     OW15105   4.190   2.579   1.217 -0.5355  0.1669  0.5800
 1749SOL    HW115106   4.094   2.551   1.218 -0.1020 -1.7293 -2.7189
 1749SOL    HW215107   4.198   2.672   1.181 -1.2112  0.7105  1.8352
 1750SOL     OW15108   2.421   5.619   1.628 -0.0433 -0.1125 -0.4689
 1750SOL    HW115109   2.455   5.660   1.544 -0.1126 -1.7698 -1.3316
 1750SOL    HW215110   2.495   5.568   1.672 -0.3302 -0.2846 -0.1828
 1751SOL     OW15111   2.228   8.649   0.360  0.2541 -0.4323 -0.0926
 1751SOL    HW115112   2.134   8.653   0.324  0.5729 -1.0791 -0.9860
 1751SOL    HW215113   2.264   8.556   0.352  1.0000 -0.1743  0.1927
 1752SOL     OW15114   3.602   2.841   1.764  0.2188 -0.3261 -0.4277
 1752SOL    HW115115   3.631   2.748   1.739 -2.7841 -1.3161 -0.4812
 1752SOL    HW215116   3.571   2.890   1.682 -2.0954 -0.7831  0.1181
 1753SOL     OW15117   2.559   2.108   2.679 -0.1859 -0.0480  0.1719
 1753SOL    HW115118   2.643   2.161   2.667  0.3051 -0.4534  1.6682
 1753SOL    HW215119   2.537   2.061   2.594  0.0619  1.5571 -0.8000
 1754SOL     OW15120   2.099   0.275   1.257 -0.1829 -0.1665  0.5441
 1754SOL    HW115121   2.146   0.360   1.235 -1.9867  1.1281  1.6065
 1754SOL    HW215122   2.057   0.238   1.175  2.4921 -1.2510 -0.3845
 1755SOL     OW15123   2.898   4.942   1.578 -0.4087  0.3865  0.1911
 1755SOL    HW115124   2.825   4.962   1.644 -0.2310  0.1578  0.4578
 1755SOL    HW215125   2.858   4.929   1.487 -1.2222 -3.8328  1.0163
 1756SOL     OW15126   1.826   7.147   0.465  0.8266 -0.1299 -0.4701
 1756SOL    HW115127   1.916   7.143   0.422  0.1651 -0.3297 -1.8932
 1756SOL    HW215128   1.786   7.237   0.449  0.7305 -0.0767  0.0659
 1757SOL     OW15129   3.678   0.110   2.592 -0.1710  0.0736  0.0116
 1757SOL    HW115130   3.693   0.151   2.502  3.3482 -2.8131 -0.8211
 1757SOL    HW215131   3.738   0.155   2.659 -0.3547 -0.0009  0.2244
 1758SOL     OW15132   3.008   4.902   0.201  0.1722  0.1698  0.6307
 1758SOL    HW115133   3.001   4.893   0.102 -2.3677  1.0509  0.6763
 1758SOL    HW215134   2.916   4.908   0.240  1.1592  1.8453  2.8276
 1759SOL     OW15135   2.908   0.781   1.999  0.0189 -0.9841 -0.6243
 1759SOL    HW115136   2.834   0.791   1.933  1.8293 -1.6888 -2.8357
 1759SOL    HW215137   2.879   0.721   2.073 -2.3768  0.5783 -0.2355
 1760SOL     OW15138   2.714   7.124   2.179 -0.1612 -0.0945  0.3080
 1760SOL    HW115139   2.782   7.065   2.135  0.5730 -0.5811  2.0593
 1760SOL    HW215140   2.749   7.218   2.182 -0.7708  0.1928 -1.3023
 1761SOL     OW15141   1.879   9.057   0.477 -0.6048  0.5266 -0.0859
 1761SOL    HW115142   1.970   9.016   0.482 -1.4912 -1.4406  0.9774
 1761SOL    HW215143   1.885   9.156   0.486  1.4951  0.4888 -0.9894
 1762SOL     OW15144   2.167   2.434   0.865 -0.7046 -0.0159  0.2674
 1762SOL    HW115145   2.188   2.363   0.933 -0.5514  1.0545  1.3596
 1762SOL    HW215146   2.073   2.464   0.877 -0.1256  1.4526  1.2024
 1763SOL     OW15147   2.955   2.448   2.618  0.2837 -0.6251  0.1111
 1763SOL    HW115148   2.995   2.478   2.705  0.0892 -1.1257  0.3750
 1763SOL    HW215149   3.012   2.481   2.543 -1.0419  2.1912  0.2718
 1764SOL     OW15150   3.575   4.516   0.639  0.1666  0.3447 -0.0558
 1764SOL    HW115151   3.518   4.485   0.564 -0.9119 -0.7447  1.1996
 1764SOL    HW215152   3.534   4.597   0.682  0.0176  0.0832  0.2958
 1765SOL     OW15153   4.325   3.613   1.325  0.3648  0.6807  0.4410
 1765SOL    HW115154   4.317   3.522   1.282  1.9514  0.0419  1.4568
 1765SOL    HW215155   4.376   3.674   1.264  1.6453  0.0972  0.9082
 1766SOL     OW15156   3.173   5.952   1.743  0.6137  0.0608 -0.2038
 1766SOL    HW115157   3.184   6.038   1.692  2.0259  0.3744  0.6070
 1766SOL    HW215158   3.076   5.928   1.747  0.3386  0.8359 -1.7146
 1767SOL     OW15159   3.228   3.885   1.243 -0.3878  0.5838 -0.2641
 1767SOL    HW115160   3.164   3.810   1.225 -1.2660  1.3029 -0.1310
 1767SOL    HW215161   3.322   3.849   1.243 -0.8551 -0.6620  0.5949
 1768SOL     OW15162   2.419   0.212   1.706 -0.4744 -0.4334 -0.3633
 1768SOL    HW115163   2.430   0.260   1.794  0.8706 -2.5142  0.6368
 1768SOL    HW215164   2.324   0.184   1.695 -0.6853 -0.0171  0.3504
 1769SOL     OW15165   4.002   1.311   2.138 -0.9392 -0.5597 -0.6831
 1769SOL    HW115166   4.020   1.215   2.155  0.6235 -0.1121  0.3320
 1769SOL    HW215167   3.983   1.357   2.225 -0.4875  0.2789 -1.0183
 1770SOL     OW15168   2.801   3.477   0.015  0.4236  0.0278 -0.2342
 1770SOL    HW115169   2.768   3.400   0.068 -0.5222  1.2989  1.0488
 1770SOL    HW215170   2.826   3.446  -0.077  0.3531 -1.8431  0.3622
 1771SOL     OW15171   3.139   8.890   1.586 -0.2000 -0.2783 -0.0799
 1771SOL    HW115172   3.125   8.870   1.683  0.7636 -1.9513 -0.2669
 1771SOL    HW215173   3.169   8.985   1.576 -3.7744  1.0086  0.9261
 1772SOL     OW15174   2.435   3.714   0.979 -0.0019 -0.3317 -0.1522
 1772SOL    HW115175   2.395   3.711   0.888  1.5587  0.1378 -0.8729
 1772SOL    HW215176   2.456   3.621   1.010  1.3015 -0.3869 -1.1291
 1773SOL     OW15177   2.648   4.851   1.377 -0.1791  0.9560  0.1368
 1773SOL    HW115178   2.603   4.763   1.391  1.1558 -0.0298 -1.6476
 1773SOL    HW215179   2.595   4.923   1.424 -1.6941 -0.6554  0.9619
 1774SOL     OW15180   3.859   1.243   0.115 -0.7755 -0.8613 -0.4581
 1774SOL    HW115181   3.879   1.228   0.212 -0.5238 -2.3232 -0.7263
 1774SOL    HW215182   3.783   1.183   0.088 -0.2423 -1.1071 -1.3892
 1775SOL     OW15183   3.718   4.481   0.195  0.2967  0.1504 -0.0135
 1775SOL    HW115184   3.699   4.565   0.144  2.3148  1.4628  1.3264
 1775SOL    HW215185   3.655   4.473   0.271  0.6334  0.8891  0.3432
 1776SOL     OW15186   4.443   3.346   0.405  0.0506  0.0721  0.2848
 1776SOL    HW115187   4.501   3.289   0.346  0.3996  0.7876 -0.0699
 1776SOL    HW215188   4.494   3.370   0.487  0.7229  1.7553 -0.6062
 1777SOL     OW15189   4.170   4.995   1.838 -0.2918  0.2806 -0.1513
 1777SOL    HW115190   4.199   5.037   1.752 -0.9938 -0.8499 -0.9579
 1777SOL    HW215191   4.227   4.916   1.857 -0.2232  0.4534  0.3653
 1778SOL     OW15192   3.090   1.800   2.169  0.3152 -0.0682 -0.4956
 1778SOL    HW115193   3.024   1.861   2.126  0.2697 -1.0394 -1.8368
 1778SOL    HW215194   3.126   1.842   2.252 -1.4766  0.7592 -0.1319
 1779SOL     OW15195   2.391   0.300   2.341 -0.7809 -0.2071 -0.2840
 1779SOL    HW115196   2.406   0.213   2.388  0.8874  0.8763  1.2327
 1779SOL    HW215197   2.450   0.305   2.260  0.0721  0.0291  0.3421
 1780SOL     OW15198   1.944   7.147   2.180  0.1064  0.3810  0.0712
 1780SOL    HW115199   1.987   7.223   2.228  0.0693 -0.7587  1.9660
 1780SOL    HW215200   1.847   7.165   2.168  0.2738  1.0380 -0.3304
 1781SOL     OW15201   3.472   1.538   1.443  0.2548 -0.3627 -0.1274
 1781SOL    HW115202   3.496   1.618   1.388 -0.2989 -0.0395  0.0924
 1781SOL    HW215203   3.524   1.459   1.411  0.4854 -0.0133 -0.6324
 1782SOL     OW15204   2.832   5.801   1.485  0.4167  0.0480 -0.3254
 1782SOL    HW115205   2.829   5.727   1.419  1.3843 -0.4274  0.1635
 1782SOL    HW215206   2.874   5.770   1.570 -1.7441  0.3500  0.9164
 1783SOL     OW15207   2.883   2.238   1.981  0.2489 -0.1453  0.3180
 1783SOL    HW115208   2.962   2.281   1.937 -0.1799  1.0887  0.7244
 1783SOL    HW215209   2.896   2.239   2.080  0.1413 -0.7894  0.3426
 1784SOL     OW15210   3.274   2.336   1.211 -0.0598  0.6018 -0.2831
 1784SOL    HW115211   3.352   2.274   1.202 -1.7219 -1.1859 -2.9535
 1784SOL    HW215212   3.294   2.422   1.164  0.9436  0.8438  0.5523
 1785SOL     OW15213   1.676   1.704   1.813  0.3077  0.2397  0.3564
 1785SOL    HW115214   1.598   1.643   1.793  1.5950 -1.1303 -0.6038
 1785SOL    HW215215   1.668   1.737   1.907 -1.4060  0.0687  0.2979
 1786SOL     OW15216   3.836   1.129   0.495 -0.1204 -0.0496 -0.1619
 1786SOL    HW115217   3.829   1.091   0.587 -0.7355  1.1874  0.3048
 1786SOL    HW215218   3.848   1.228   0.500  2.5946 -0.2595 -1.3334
 1787SOL     OW15219   2.178   2.243   2.458 -0.1839  0.1431 -0.0586
 1787SOL    HW115220   2.227   2.299   2.526 -0.0206 -0.7202  0.5459
 1787SOL    HW215221   2.080   2.249   2.474 -0.1420 -0.1090  0.2921
 1788SOL     OW15222   2.039   2.661   2.163 -0.8763 -0.4935 -0.1121
 1788SOL    HW115223   2.093   2.743   2.143 -0.0321 -1.3290 -1.3377
 1788SOL    HW215224   2.017   2.659   2.261 -0.3433  0.8495  0.0566
 1789SOL     OW15225   2.440   0.166   0.197 -1.0399  0.5733 -0.3497
 1789SOL    HW115226   2.480   0.193   0.285 -1.9393  1.0951 -0.1001
 1789SOL    HW215227   2.508   0.180   0.125  0.3908 -1.7375  0.5049
 1790SOL     OW15228   1.891   9.920   0.895 -0.6275  0.3627 -0.4476
 1790SOL    HW115229   1.951   9.991   0.932 -0.7719 -0.2457  0.9713
 1790SOL    HW215230   1.848   9.953   0.811  0.5043  1.3732 -0.6351
 1791SOL     OW15231   3.373   4.235   0.227 -0.1885  0.2579  0.6767
 1791SOL    HW115232   3.433   4.235   0.147 -0.5505 -0.2542  0.4091
 1791SOL    HW215233   3.346   4.141   0.249 -2.1954  0.6132 -0.1726
 1792SOL     OW15234   3.048   9.842   1.622 -0.2200  0.3594 -0.4326
 1792SOL    HW115235   2.973   9.792   1.666 -1.2800  0.4571 -2.0859
 1792SOL    HW215236   3.120   9.778   1.597  1.3613  0.5717  3.2851
 1793SOL     OW15237   3.209   9.370   0.570  0.2422 -0.5509 -0.5923
 1793SOL    HW115238   3.141   9.324   0.626 -0.5319  0.9762 -0.2481
 1793SOL    HW215239   3.280   9.410   0.629  1.0723 -1.5450 -0.9037
 1794SOL     OW15240   1.863   7.180   1.000 -0.2142  0.3470 -0.1349
 1794SOL    HW115241   1.963   7.174   1.008 -0.1256 -0.8641 -1.9032
 1794SOL    HW215242   1.836   7.276   0.994  0.8471  0.6877  0.3320
 1795SOL     OW15243   4.181   3.423   2.052  0.3998 -0.0032  0.1810
 1795SOL    HW115244   4.112   3.465   1.993 -0.4976  0.0282  1.2123
 1795SOL    HW215245   4.236   3.494   2.095 -0.9029  0.1430  1.6701
 1796SOL     OW15246   2.506   9.788   0.471  0.1858 -0.3017 -0.6913
 1796SOL    HW115247   2.476   9.828   0.384 -1.2030 -2.2151 -1.1194
 1796SOL    HW215248   2.565   9.853   0.519 -1.5816  2.0115 -1.5949
 1797SOL     OW15249   4.409   3.012   0.858  0.2958  0.0422 -0.5279
 1797SOL    HW115250   4.506   3.020   0.833  0.8179 -0.0604  1.3764
 1797SOL    HW215251   4.400   3.019   0.958 -1.8866  2.4351 -0.8309
 1798SOL     OW15252   2.234   8.535   0.823 -0.2720  0.0774  0.3321
 1798SOL    HW115253   2.181   8.451   0.815  1.1743 -0.7060 -1.4720
 1798SOL    HW215254   2.190   8.608   0.770 -1.0021  0.1933  1.0942
 1799SOL     OW15255   3.835   8.402   1.043 -0.2316  0.3346 -0.1188
 1799SOL    HW115256   3.863   8.311   1.015 -0.3512  0.4813 -0.7215
 1799SOL    HW215257   3.793   8.450   0.966 -0.9367  0.5960  0.4134
 1800SOL     OW15258   2.587   9.591   1.014  0.1638  0.2538  0.1615
 1800SOL    HW115259   2.572   9.653   0.938  0.0674 -0.5581 -0.4848
 1800SOL    HW215260   2.589   9.497   0.981 -0.1222 -0.1216  1.1925
 1801SOL     OW15261   1.838   0.622   0.402  0.0929 -0.3385 -0.1825
 1801SOL    HW115262   1.777   0.698   0.427 -0.7235 -0.6076 -1.3226
 1801SOL    HW215263   1.932   0.655   0.399 -0.1859  0.4904 -0.0692
 1802SOL     OW15264   2.282   9.424   0.945 -0.1786  0.1391  0.0454
 1802SOL    HW115265   2.373   9.432   0.904 -1.1422  1.3590 -2.0066
 1802SOL    HW215266   2.238   9.340   0.913  0.7902 -1.2292  2.2610
 1803SOL     OW15267   5.003   2.181   1.065 -0.2624 -0.0003 -0.1607
 1803SOL    HW115268   4.920   2.176   1.121  0.0383  1.3447  0.4079
 1803SOL    HW215269   4.984   2.235   0.982 -0.1043 -0.1683 -0.3074
 1804SOL     OW15270   2.826   5.564   1.355 -0.1022 -0.1301 -0.5804
 1804SOL    HW115271   2.909   5.527   1.397 -0.1077  0.7170  0.1889
 1804SOL    HW215272   2.758   5.491   1.344  0.4967 -0.6857 -0.6167
 1805SOL     OW15273   3.948   4.607   0.954  0.0240  0.2529 -0.0921
 1805SOL    HW115274   3.871   4.665   0.929 -1.2798 -1.8085 -0.9608
 1805SOL    HW215275   4.029   4.636   0.902 -0.7191  0.9835 -0.8636
 1806SOL     OW15276   4.052   1.626   1.107  0.7671  0.8252  0.5156
 1806SOL    HW115277   4.026   1.644   1.202  0.6133  0.4883  0.5368
 1806SOL    HW215278   4.151   1.611   1.102  0.3845 -2.0858  1.0760
 1807SOL     OW15279   2.686   8.654   1.305  0.3545  0.5194  0.1800
 1807SOL    HW115280   2.704   8.743   1.264  1.2688 -0.0383 -0.6676
 1807SOL    HW215281   2.772   8.610   1.330  0.0012 -0.6181 -0.5142
 1808SOL     OW15282   2.573   8.007   1.263  0.1329 -0.0093  0.2736
 1808SOL    HW115283   2.479   8.024   1.292 -0.3677 -0.5058 -1.0633
 1808SOL    HW215284   2.582   8.025   1.165  0.8711 -2.2141 -0.0864
 1809SOL     OW15285   2.144   5.687   1.048  0.0751  0.2985  0.0092
 1809SOL    HW115286   2.236   5.699   1.010 -0.1494  0.1993 -0.5789
 1809SOL    HW215287   2.090   5.631   0.985 -0.3431  0.2434  0.4204
 1810SOL     OW15288   3.832   9.644   0.802 -0.4754  0.0651 -0.0298
 1810SOL    HW115289   3.892   9.631   0.722 -0.8620  1.9101 -0.6511
 1810SOL    HW215290   3.839   9.739   0.832 -1.9968 -0.0813  0.7933
 1811SOL     OW15291   3.192   4.274   0.469 -0.1889  0.3409 -0.2040
 1811SOL    HW115292   3.238   4.306   0.386  0.6076 -0.4234 -0.0618
 1811SOL    HW215293   3.147   4.187   0.452 -0.9282  0.7033 -0.1246
 1812SOL     OW15294   3.280   9.521   0.945 -0.3143  0.0856  0.4418
 1812SOL    HW115295   3.299   9.600   0.887 -0.4473  0.2457  0.6182
 1812SOL    HW215296   3.350   9.515   1.016 -0.3395  0.0820  0.4662
 1813SOL     OW15297   1.690   7.185   2.226 -0.1556 -0.2844 -0.0607
 1813SOL    HW115298   1.601   7.220   2.258 -0.3571 -0.3269 -0.5713
 1813SOL    HW215299   1.713   7.102   2.278 -0.9084 -0.8603 -0.6399
 1814SOL     OW15300   2.384   2.851   1.572  0.1342 -0.7513  0.3120
 1814SOL    HW115301   2.478   2.854   1.538 -0.1340  0.6167 -0.3064
 1814SOL    HW215302   2.363   2.934   1.623 -0.8619 -0.8662  0.1141
 1815SOL     OW15303   3.420   7.561   0.657 -0.7924 -0.4203 -0.0289
 1815SOL    HW115304   3.455   7.484   0.604  0.7857 -0.6765  1.3445
 1815SOL    HW215305   3.328   7.539   0.691 -0.7010 -1.3439 -0.3726
 1816SOL     OW15306   2.119   2.038   0.141 -0.4315 -0.2757  0.0262
 1816SOL    HW115307   2.205   1.991   0.122 -0.2589 -0.1053  0.3968
 1816SOL    HW215308   2.126   2.088   0.227 -0.4522  0.8517 -0.6223
 1817SOL     OW15309   3.892   4.471   2.167 -0.0360  0.1924 -0.2952
 1817SOL    HW115310   3.991   4.462   2.177  0.1209  1.4567 -0.5763
 1817SOL    HW215311   3.846   4.405   2.225  0.9991 -1.7145 -1.5825
 1818SOL     OW15312   1.733   2.178   1.697  0.0582  0.0603  0.3437
 1818SOL    HW115313   1.766   2.178   1.791 -1.7088  0.3111  0.9931
 1818SOL    HW215314   1.752   2.267   1.655  2.1786 -0.5602 -0.0394
 1819SOL     OW15315   2.209   0.850   1.019 -0.1011  0.3559 -0.1937
 1819SOL    HW115316   2.268   0.771   1.006  0.6880  0.5859  1.7407
 1819SOL    HW215317   2.265   0.931   1.037 -0.9708  0.7220  0.9286
 1820SOL     OW15318   5.141   3.020   0.940 -1.1112 -0.1813  0.8252
 1820SOL    HW115319   5.181   2.976   1.020 -1.7775  0.7753  1.6959
 1820SOL    HW215320   5.214   3.063   0.886 -0.7356 -0.2309  1.2891
 1821SOL     OW15321   2.224   3.377   0.211  0.0981 -0.5751  0.5371
 1821SOL    HW115322   2.134   3.420   0.220 -0.0200 -1.1183  2.1198
 1821SOL    HW215323   2.293   3.433   0.257  0.4071 -0.6454  0.1599
 1822SOL     OW15324   1.838   6.261   0.125 -0.4881  0.4872 -0.2934
 1822SOL    HW115325   1.899   6.331   0.162  0.1825 -0.3262  0.1896
 1822SOL    HW215326   1.829   6.187   0.192 -2.2814  0.7425 -0.2242
 1823SOL     OW15327   3.186   8.288   0.073 -0.6923 -0.3731 -0.3461
 1823SOL    HW115328   3.264   8.342   0.107 -0.7174  0.0509 -0.9536
 1823SOL    HW215329   3.151   8.330  -0.010 -0.1346 -1.8346 -1.3393
 1824SOL     OW15330   2.067   1.027   2.544 -0.1231 -0.6866 -0.3988
 1824SOL    HW115331   1.976   1.063   2.524 -0.6904 -2.1029 -0.4232
 1824SOL    HW215332   2.136   1.091   2.508 -1.0984 -0.1360 -1.3573
 1825SOL     OW15333   3.442   8.583   2.367  0.0102 -0.2103  0.1484
 1825SOL    HW115334   3.483   8.672   2.347  1.6667 -0.2645  2.9555
 1825SOL    HW215335   3.497   8.511   2.325  2.1191 -0.1905  2.6944
 1826SOL     OW15336   3.182   9.174   1.170 -0.6089  0.4052 -0.1981
 1826SOL    HW115337   3.251   9.189   1.240 -0.2925 -0.1943 -0.3832
 1826SOL    HW215338   3.220   9.117   1.097 -1.3048  0.0638 -0.2961
 1827SOL     OW15339   1.857   9.769   1.744 -0.4178 -0.2602 -0.3694
 1827SOL    HW115340   1.943   9.786   1.791 -1.4182 -0.5655  1.6497
 1827SOL    HW215341   1.856   9.819   1.657  1.4759  0.3370 -0.0724
 1828SOL     OW15342   4.002   4.067   0.626 -0.2297  0.5734 -0.2241
 1828SOL    HW115343   4.040   4.008   0.555  0.0461  0.3917  0.0729
 1828SOL    HW215344   3.984   4.012   0.708 -0.0842  0.8785  0.0133
 1829SOL     OW15345   3.178   4.337   0.961 -0.3217 -0.3341 -0.7718
 1829SOL    HW115346   3.242   4.393   1.015 -2.9124  1.7629  0.2586
 1829SOL    HW215347   3.212   4.328   0.868  1.1604  1.2926 -0.4132
 1830SOL     OW15348   2.355   9.945   1.047 -0.8091 -0.0518  0.0488
 1830SOL    HW115349   2.341   9.846   1.047  0.9978 -0.3143 -1.1017
 1830SOL    HW215350   2.376   9.977   0.955  1.0592  1.0460  0.8276
 1831SOL     OW15351   4.547   3.432   0.668 -0.4187  0.0067 -0.1281
 1831SOL    HW115352   4.579   3.512   0.718  0.7022 -1.3655  1.4301
 1831SOL    HW215353   4.626   3.379   0.636 -1.1388 -0.5276 -1.0320
 1832SOL     OW15354   2.961   5.728   0.722 -0.6554 -0.0211  0.3815
 1832SOL    HW115355   3.002   5.661   0.659  0.0565 -0.6198  1.4726
 1832SOL    HW215356   2.909   5.795   0.669  0.5210 -0.0958 -0.9265
 1833SOL     OW15357   3.189   4.628   0.731 -0.8984  0.0364 -0.3821
 1833SOL    HW115358   3.258   4.676   0.677 -0.5360 -2.4857 -2.2281
 1833SOL    HW215359   3.214   4.532   0.740 -2.5340 -0.2307  1.6911
 1834SOL     OW15360   3.344   1.242   1.221  0.1648 -0.3081 -0.0904
 1834SOL    HW115361   3.256   1.276   1.253 -0.0983 -0.9257 -0.1470
 1834SOL    HW215362   3.342   1.233   1.121  0.3887 -0.0541 -0.1193
 1835SOL     OW15363   4.197   2.535   0.084 -0.0622  0.0595 -0.3103
 1835SOL    HW115364   4.264   2.583   0.140 -0.2579 -0.3048  0.2361
 1835SOL    HW215365   4.160   2.457   0.135 -1.1217  0.4355 -0.5028
 1836SOL     OW15366   3.442   0.317   1.685  0.6044  0.0070  0.4079
 1836SOL    HW115367   3.399   0.271   1.608  1.5490 -1.2763  0.6351
 1836SOL    HW215368   3.530   0.274   1.705  1.1265  1.3836  1.1559
 1837SOL     OW15369   2.809   4.019   0.582 -0.0599 -0.4268 -0.4234
 1837SOL    HW115370   2.831   4.116   0.569  0.5388 -0.6710 -1.2951
 1837SOL    HW215371   2.727   4.011   0.638 -0.1664  0.5912 -0.4151
 1838SOL     OW15372   2.443   8.674   1.697  0.1028  0.1010 -0.5324
 1838SOL    HW115373   2.417   8.648   1.604  1.3186  0.6626 -1.0330
 1838SOL    HW215374   2.540   8.697   1.700 -0.3858  2.1873  0.4296
 1839SOL     OW15375   2.706   1.553   2.029  0.0070  0.4920  0.0076
 1839SOL    HW115376   2.702   1.653   2.024  0.8004  0.5457  0.3343
 1839SOL    HW215377   2.737   1.526   2.121 -0.9924 -0.0768  0.1814
 1840SOL     OW15378   2.135   3.367   1.467 -0.3775 -0.1935 -0.2705
 1840SOL    HW115379   2.156   3.338   1.374  0.4960 -0.0116 -0.1332
 1840SOL    HW215380   2.166   3.461   1.480  0.3372 -0.5320  0.4904
 1841SOL     OW15381   3.679   8.785   0.050  0.0034 -0.6601 -0.1096
 1841SOL    HW115382   3.696   8.883   0.040  0.2506 -0.6496  0.4335
 1841SOL    HW215383   3.764   8.735   0.034  0.4715 -0.6348  2.1112
 1842SOL     OW15384   4.470   4.080   0.991  0.2719 -0.1335  0.1851
 1842SOL    HW115385   4.534   4.032   1.052  0.3809  1.4370  1.3161
 1842SOL    HW215386   4.393   4.115   1.044  0.9337  2.2223 -0.3877
 1843SOL     OW15387   2.371   7.211   0.901 -0.0031 -0.3869  0.3599
 1843SOL    HW115388   2.421   7.139   0.852  0.3045 -0.0663  0.1989
 1843SOL    HW215389   2.421   7.297   0.892  0.3050 -0.4238  1.6479
 1844SOL     OW15390   5.370   4.015   2.477  0.3127 -0.8451  0.1528
 1844SOL    HW115391   5.335   3.942   2.534  0.6169 -0.8051  0.3925
 1844SOL    HW215392   5.464   3.993   2.448  0.4873 -0.4436  0.4145
 1845SOL     OW15393   2.040   6.965   0.210 -0.2847  0.4617 -0.3287
 1845SOL    HW115394   2.105   6.893   0.231  0.9173  1.7599  0.4902
 1845SOL    HW215395   2.068   7.012   0.125 -1.4534 -0.4740 -1.2535
 1846SOL     OW15396   2.646   6.850   2.305  0.4404  0.2389  0.5688
 1846SOL    HW115397   2.592   6.840   2.388  0.2644  1.8191  0.6618
 1846SOL    HW215398   2.652   6.947   2.280  2.2828 -0.0013 -0.0612
 1847SOL     OW15399   2.674   2.177   1.811 -0.0651  0.6279  0.3569
 1847SOL    HW115400   2.731   2.188   1.893  0.4178 -0.7927  0.2320
 1847SOL    HW215401   2.711   2.232   1.737  0.3242  0.8152  0.6905
 1848SOL     OW15402   3.830   8.986   1.133  0.2066 -0.0021  0.3905
 1848SOL    HW115403   3.832   8.886   1.140 -2.6793 -0.3302 -1.9490
 1848SOL    HW215404   3.893   9.015   1.061  0.2306 -0.2804  0.2959
 1849SOL     OW15405   3.771   2.746   1.317  0.2389 -0.1845 -0.1621
 1849SOL    HW115406   3.835   2.738   1.393 -0.2287 -1.2294  0.1296
 1849SOL    HW215407   3.796   2.825   1.260  0.8298  0.3606  0.8415
 1850SOL     OW15408   4.697   3.443   2.434 -0.2888  0.1550  0.1616
 1850SOL    HW115409   4.673   3.529   2.391  1.7546  0.0472 -1.2508
 1850SOL    HW215410   4.624   3.376   2.419 -0.6669  0.8317 -1.0217
 1851SOL     OW15411   4.434   4.078   1.589 -0.1970 -0.1731  0.4668
 1851SOL    HW115412   4.411   4.175   1.594 -1.1458 -0.1369 -3.2335
 1851SOL    HW215413   4.370   4.025   1.645 -1.2980  1.1015  0.4202
 1852SOL     OW15414   4.489   4.372   0.670  0.4791 -0.2411 -0.0696
 1852SOL    HW115415   4.485   4.272   0.662  1.7340 -0.1594 -2.1267
 1852SOL    HW215416   4.411   4.412   0.622  1.0558 -0.1747 -0.9592
 1853SOL     OW15417   3.930   4.336   0.965 -0.6949 -0.1710 -0.1699
 1853SOL    HW115418   3.849   4.280   0.984 -0.4483 -0.3470  0.3732
 1853SOL    HW215419   3.910   4.431   0.989 -0.4643 -0.3525  0.7711
 1854SOL     OW15420   2.655   0.752   1.851  0.1463  0.1690  0.3410
 1854SOL    HW115421   2.627   0.809   1.774  0.9760  0.2977  0.1360
 1854SOL    HW215422   2.624   0.658   1.837 -0.3431  0.3463  0.2059
 1855SOL     OW15423   4.534   2.565   1.467 -0.0015 -0.6908  0.1688
 1855SOL    HW115424   4.515   2.655   1.429 -0.0525 -0.9955 -0.5253
 1855SOL    HW215425   4.448   2.513   1.476 -0.0315 -0.5154  0.9759
 1856SOL     OW15426   5.002   1.690   0.197 -0.1046  0.3073 -0.0678
 1856SOL    HW115427   4.996   1.671   0.295  0.5569  0.3500 -0.0175
 1856SOL    HW215428   4.941   1.628   0.148  0.7291 -0.7728  0.2458
 1857SOL     OW15429   4.266   3.368   1.236 -0.2283  1.1041 -0.7554
 1857SOL    HW115430   4.206   3.310   1.181  1.9852 -1.1256 -0.9251
 1857SOL    HW215431   4.245   3.355   1.333  0.1812  0.0557 -0.8008
 1858SOL     OW15432   5.158   2.822   0.146  0.5117 -0.0354 -0.0387
 1858SOL    HW115433   5.059   2.808   0.141  0.6487 -0.5034 -2.2975
 1858SOL    HW215434   5.178   2.920   0.151 -0.0461  0.1197 -0.7366
 1859SOL     OW15435   2.544   3.895   0.265 -0.2290  0.3593 -0.3000
 1859SOL    HW115436   2.572   3.824   0.200  0.3086  0.2071  0.0930
 1859SOL    HW215437   2.559   3.863   0.358 -2.1585  0.0895 -0.0472
 1860SOL     OW15438   3.661   3.651   2.121 -0.0028  0.3758 -0.0479
 1860SOL    HW115439   3.585   3.672   2.182  0.8015  0.7310  0.8491
 1860SOL    HW215440   3.708   3.736   2.097  0.6840  0.0522  0.1556
 1861SOL     OW15441   2.469   8.792   2.528 -0.2119 -0.6097 -0.5981
 1861SOL    HW115442   2.396   8.758   2.588 -0.7302  0.7926 -0.4010
 1861SOL    HW215443   2.543   8.829   2.583 -0.0642 -0.5826 -0.8148
 1862SOL     OW15444   1.972   0.939   0.683  0.7318  0.4721 -0.0985
 1862SOL    HW115445   1.911   0.896   0.617  0.3265 -0.1661  0.6780
 1862SOL    HW215446   2.054   0.883   0.694  1.5467  1.4077 -1.2556
 1863SOL     OW15447   2.151   2.193   2.173 -0.1693  0.4467 -0.3003
 1863SOL    HW115448   2.089   2.271   2.160  1.5781  1.9450  0.1291
 1863SOL    HW215449   2.188   2.195   2.266  1.2432  0.1310 -0.8425
 1864SOL     OW15450   2.760   1.904   2.543  0.4408 -0.1702 -0.1545
 1864SOL    HW115451   2.661   1.896   2.526  0.3073 -0.9166  0.9100
 1864SOL    HW215452   2.791   1.825   2.596  1.4764  0.4352  0.1527
 1865SOL     OW15453   2.413   7.392   1.501  0.1459  0.0855  0.1774
 1865SOL    HW115454   2.466   7.410   1.584 -2.1926  1.0241  1.5119
 1865SOL    HW215455   2.343   7.324   1.520  0.0351 -0.2138 -1.2288
 1866SOL     OW15456   2.624   8.316   1.062  0.2795  0.1799  0.0566
 1866SOL    HW115457   2.538   8.268   1.048  0.2030  0.3121  0.0649
 1866SOL    HW215458   2.697   8.273   1.008  0.1154  0.3311 -0.2888
 1867SOL     OW15459   2.071   6.901   1.802  0.6683  0.0778  0.0724
 1867SOL    HW115460   2.166   6.907   1.770  0.3063 -1.9121 -1.5149
 1867SOL    HW215461   2.045   6.804   1.808 -1.8550  0.6365 -1.3592
 1868SOL     OW15462   1.983   8.278   2.453 -0.1327  0.1717 -0.4035
 1868SOL    HW115463   1.970   8.185   2.421 -0.7553 -0.1167  0.6557
 1868SOL    HW215464   1.997   8.339   2.375  2.1461 -1.0892 -1.0285
 1869SOL     OW15465   2.125   5.944   1.136  0.0095  0.5058 -0.5675
 1869SOL    HW115466   2.167   5.949   1.227 -2.1195  0.1815  0.4636
 1869SOL    HW215467   2.124   5.849   1.104 -1.9726  0.1566  0.4333
 1870SOL     OW15468   1.939   1.785   0.810  0.4120 -0.8418 -0.0021
 1870SOL    HW115469   1.897   1.724   0.877  0.5238 -0.5385  0.3470
 1870SOL    HW215470   1.962   1.872   0.854 -1.8834  0.3426 -1.0310
 1871SOL     OW15471   3.843   1.413   0.494 -0.1132 -0.0262 -0.0069
 1871SOL    HW115472   3.758   1.466   0.490 -2.1783 -3.2520 -0.3723
 1871SOL    HW215473   3.865   1.392   0.590 -0.0681  0.2537  0.0451
 1872SOL     OW15474   3.808   0.911   1.504 -0.1038 -0.4302  0.3884
 1872SOL    HW115475   3.734   0.948   1.448 -0.1415 -1.3186 -0.1598
 1872SOL    HW215476   3.769   0.865   1.584 -0.1557 -1.0302  0.0207
 1873SOL     OW15477   2.425   5.185   2.138  0.3576 -0.3442 -0.5259
 1873SOL    HW115478   2.394   5.228   2.053  0.3204 -1.0296 -0.8627
 1873SOL    HW215479   2.350   5.185   2.204  0.8811  1.6845  0.1014
 1874SOL     OW15480   2.886   5.095   2.056  0.0690  0.0410 -0.1353
 1874SOL    HW115481   2.818   5.122   1.988  0.7773  4.0492  0.6089
 1874SOL    HW215482   2.939   5.018   2.021 -1.1415  0.4763 -3.1153
 1875SOL     OW15483   3.317   3.088   0.303 -0.4973 -0.1373 -0.2481
 1875SOL    HW115484   3.414   3.064   0.308 -0.4950  0.0338  0.6196
 1875SOL    HW215485   3.307   3.187   0.318 -0.9257 -0.3782  1.1684
 1876SOL     OW15486   2.499   4.605   1.342  0.8831 -0.2708 -0.1645
 1876SOL    HW115487   2.451   4.524   1.376  1.2976 -0.9411 -1.1241
 1876SOL    HW215488   2.577   4.576   1.286  2.6347  0.8047  1.6785
 1877SOL     OW15489   2.688   5.982   2.350 -0.0281 -0.1611 -0.1023
 1877SOL    HW115490   2.788   5.979   2.343  0.0042 -0.1375  0.3552
 1877SOL    HW215491   2.651   6.031   2.271  0.2057 -1.7186 -1.2101
 1878SOL     OW15492   3.703   1.049   2.277 -0.5190 -0.1324 -0.4571
 1878SOL    HW115493   3.616   1.098   2.267 -0.7669 -0.5870 -0.5305
 1878SOL    HW215494   3.701   0.967   2.219 -0.7943 -1.1883  1.0320
 1879SOL     OW15495   3.751   3.199   0.494  0.2054  0.6947 -0.4997
 1879SOL    HW115496   3.657   3.172   0.516  0.6664  0.2852  1.0112
 1879SOL    HW215497   3.783   3.265   0.562  0.7159  1.5203 -1.5233
 1880SOL     OW15498   4.168   3.970   1.670 -0.2230 -0.8625  0.0143
 1880SOL    HW115499   4.134   3.905   1.737 -1.1516  0.7231  1.1182
 1880SOL    HW215500   4.108   3.971   1.590 -0.0319 -1.5750 -0.1369
 1881SOL     OW15501   4.070   1.627   2.522 -0.0092  0.1134  0.2439
 1881SOL    HW115502   4.052   1.535   2.556  1.4743 -0.3136 -0.0984
 1881SOL    HW215503   3.998   1.654   2.458 -0.4357 -0.8070  0.3345
 1882SOL     OW15504   2.019   7.624   1.961  0.0720 -0.3101 -0.0269
 1882SOL    HW115505   2.116   7.616   1.939 -0.4323 -0.1514 -2.4821
 1882SOL    HW215506   2.005   7.701   2.023  1.6100 -0.9102  1.0904
 1883SOL     OW15507   2.728   7.835   1.845 -0.0875 -0.1142  0.4813
 1883SOL    HW115508   2.799   7.863   1.780 -2.3028  0.5018 -1.7541
 1883SOL    HW215509   2.732   7.894   1.925  0.0093  1.8647 -0.9483
 1884SOL     OW15510   4.335   1.097   1.376 -0.6759  0.9855 -0.1404
 1884SOL    HW115511   4.306   1.152   1.298 -0.1921  2.2416  0.5475
 1884SOL    HW215512   4.391   1.153   1.437 -1.7347  0.2776  1.5301
 1885SOL     OW15513   4.041   3.654   1.283 -0.1166 -0.1188  0.5386
 1885SOL    HW115514   4.140   3.643   1.287 -0.1404 -0.1327  1.1947
 1885SOL    HW215515   4.010   3.650   1.188  0.1112 -3.6554  0.5528
 1886SOL     OW15516   3.328   5.820   1.932  0.1489 -0.9011  0.3794
 1886SOL    HW115517   3.286   5.899   1.888  1.3088 -0.4124  0.1240
 1886SOL    HW215518   3.287   5.805   2.022 -1.6899 -1.4255 -0.5364
 1887SOL     OW15519   2.524   2.280   1.056  0.2247 -0.5730  0.5050
 1887SOL    HW115520   2.525   2.335   0.972  0.2551 -3.0272 -1.1734
 1887SOL    HW215521   2.452   2.311   1.116  0.4936  1.5376 -0.2338
 1888SOL     OW15522   3.962   3.259   2.497  0.5129 -0.6503 -0.0098
 1888SOL    HW115523   3.875   3.231   2.458 -0.1502  0.0823  0.9205
 1888SOL    HW215524   3.972   3.221   2.589  1.2771 -0.9156 -0.1954
 1889SOL     OW15525   2.779   4.692   0.970  0.1217 -0.2950  0.2923
 1889SOL    HW115526   2.809   4.641   1.051  0.4036  2.6133  2.1407
 1889SOL    HW215527   2.758   4.786   0.997 -1.1452  0.3684 -2.8146
 1890SOL     OW15528   3.927   2.034   1.792  0.6551  0.3844  0.7041
 1890SOL    HW115529   4.027   2.026   1.801  0.9150 -0.0158 -2.1175
 1890SOL    HW215530   3.884   2.001   1.876  2.8471 -0.9653  1.3683
 1891SOL     OW15531   2.423   0.551   0.268  0.4047 -0.3601 -0.5491
 1891SOL    HW115532   2.454   0.620   0.202 -3.1647  3.0189  1.1301
 1891SOL    HW215533   2.450   0.578   0.360 -1.0384 -1.2486  0.1513
 1892SOL     OW15534   2.635   4.486   1.943  0.1936  0.4677  0.1742
 1892SOL    HW115535   2.682   4.574   1.946  0.4027  0.4183 -1.3693
 1892SOL    HW215536   2.682   4.421   2.003  1.2138  0.8417 -0.2104
 1893SOL     OW15537   3.898   8.638   1.832 -0.1677 -0.4200 -0.0066
 1893SOL    HW115538   3.900   8.736   1.853 -1.1682 -0.7066  1.4564
 1893SOL    HW215539   3.804   8.607   1.826  0.1474 -1.1146 -1.3590
 1894SOL     OW15540   2.578   2.657   1.720 -0.6577  0.0651 -0.0492
 1894SOL    HW115541   2.508   2.602   1.675  0.0475 -1.3548  0.5332
 1894SOL    HW215542   2.553   2.671   1.816  0.7975 -2.1982  0.7087
 1895SOL     OW15543   2.279   3.719   2.145  0.0243  0.1422 -0.4620
 1895SOL    HW115544   2.377   3.707   2.156 -0.4772 -1.6105  2.6634
 1895SOL    HW215545   2.238   3.633   2.114 -0.7499  0.2673  0.1913
 1896SOL     OW15546   3.196   1.615   1.324  0.1070 -0.3895  0.7960
 1896SOL    HW115547   3.295   1.606   1.315  0.0736 -0.1247  0.1454
 1896SOL    HW215548   3.156   1.526   1.343  0.4038 -0.6038  0.4159
 1897SOL     OW15549   2.580   6.164   1.338 -1.3393  0.5212 -0.1112
 1897SOL    HW115550   2.672   6.125   1.327 -0.9442  1.4657 -0.1505
 1897SOL    HW215551   2.566   6.237   1.272 -1.8487  0.8941  0.4017
 1898SOL     OW15552   1.611   9.786   2.095 -0.2576  0.1418 -0.4387
 1898SOL    HW115553   1.557   9.796   2.179 -0.3057 -0.9761 -0.3276
 1898SOL    HW215554   1.704   9.816   2.112 -1.0493  2.9796 -0.8909
 1899SOL     OW15555   4.014   4.641   0.282  0.3910  0.2030  0.6354
 1899SOL    HW115556   3.931   4.690   0.308  0.3259  1.4651 -1.7335
 1899SOL    HW215557   4.092   4.704   0.285  0.8306 -0.3395  0.5295
 1900SOL     OW15558   4.368   3.720   0.862 -0.3346  0.1225  0.4523
 1900SOL    HW115559   4.465   3.737   0.842 -0.2186 -0.4761  0.4964
 1900SOL    HW215560   4.348   3.622   0.852 -0.3881 -0.1291  2.6682
 1901SOL     OW15561   2.545   2.738   1.231 -0.3454 -0.3990 -0.5038
 1901SOL    HW115562   2.528   2.740   1.133 -1.4060  0.4919 -0.3016
 1901SOL    HW215563   2.482   2.674   1.274 -0.9164  0.3538 -0.2082
 1902SOL     OW15564   4.261   4.073   2.668  0.3565 -0.0783 -0.0874
 1902SOL    HW115565   4.296   4.128   2.744 -0.0377  0.9017 -0.6141
 1902SOL    HW215566   4.162   4.082   2.662  0.3163 -0.6507 -0.3369
 1903SOL     OW15567   4.970   3.491   0.491 -0.4557 -0.5368 -0.1217
 1903SOL    HW115568   4.890   3.547   0.508 -1.6901 -2.4609  0.6117
 1903SOL    HW215569   5.015   3.470   0.578 -0.5357 -1.4355 -0.2944
 1904SOL     OW15570   2.294   0.813   1.668  0.6116 -0.2299 -0.1802
 1904SOL    HW115571   2.321   0.717   1.673 -0.1463 -0.4916 -0.8215
 1904SOL    HW215572   2.257   0.842   1.756  0.7301 -0.5695 -0.0187
 1905SOL     OW15573   2.684   1.456   2.321 -0.2484  0.2322 -0.3240
 1905SOL    HW115574   2.738   1.390   2.269 -1.0704  0.4670 -1.4939
 1905SOL    HW215575   2.624   1.407   2.384 -0.0817 -0.0933 -0.4163
 1906SOL     OW15576   3.894   2.028   0.610  0.6108 -0.0130  0.7759
 1906SOL    HW115577   3.971   2.046   0.549  0.4580  0.0506  0.6012
 1906SOL    HW215578   3.923   2.038   0.705  0.3487  1.9029  0.6760
 1907SOL     OW15579   2.275   1.914   1.388  0.5382 -0.3147 -0.4035
 1907SOL    HW115580   2.326   1.991   1.349  0.7807 -0.4095 -0.2716
 1907SOL    HW215581   2.332   1.866   1.454 -0.8555  1.6941  2.3945
 1908SOL     OW15582   2.226   0.367   0.221 -0.1780  0.1031  0.1339
 1908SOL    HW115583   2.291   0.441   0.236  0.0905 -0.2253  0.5838
 1908SOL    HW215584   2.272   0.279   0.228 -0.2580 -0.0868 -1.5985
 1909SOL     OW15585   2.234   1.953   2.519 -0.0389 -0.5657  0.1870
 1909SOL    HW115586   2.237   2.051   2.538  1.4338 -0.4651 -0.5612
 1909SOL    HW215587   2.142   1.929   2.487 -0.0674  0.7905 -0.8037
 1910SOL     OW15588   1.970   9.874   2.512 -0.3034  0.0780 -0.0760
 1910SOL    HW115589   1.970   9.777   2.537 -2.3446 -0.5471 -2.3449
 1910SOL    HW215590   2.006   9.885   2.419  0.2762  1.5463  0.3089
 1911SOL     OW15591   4.123   2.327   0.864  0.5435 -0.2831  0.2778
 1911SOL    HW115592   4.151   2.297   0.772  0.4011 -0.6686  0.3590
 1911SOL    HW215593   4.091   2.248   0.916  0.2863 -0.0057  0.5406
 1912SOL     OW15594   2.398   4.083   2.016  0.1046  0.3920 -0.4989
 1912SOL    HW115595   2.491   4.055   2.040  0.4164  2.1611  0.4091
 1912SOL    HW215596   2.360   4.139   2.090 -0.7518  1.7864 -1.9770
 1913SOL     OW15597   4.705   2.485   1.653 -0.4808 -0.5811  0.6360
 1913SOL    HW115598   4.768   2.423   1.607 -0.1494 -0.5374  1.0368
 1913SOL    HW215599   4.644   2.527   1.585 -1.2091 -1.9140  0.4549
 1914SOL     OW15600   3.222   5.745   2.176  0.2533  0.3720  0.1071
 1914SOL    HW115601   3.250   5.787   2.262  2.6757  0.5421 -0.7243
 1914SOL    HW215602   3.243   5.647   2.178  1.9925  0.7078 -0.9488
 1915SOL     OW15603   3.559   1.829   1.323 -0.3033  0.3767  0.1031
 1915SOL    HW115604   3.609   1.791   1.401  2.3301 -0.9425 -2.1742
 1915SOL    HW215605   3.572   1.929   1.321 -2.2718  0.7356  2.6088
 1916SOL     OW15606   1.966   6.628   0.427  0.5185  0.0154  0.6531
 1916SOL    HW115607   1.903   6.704   0.412  0.6246 -0.3143 -1.5712
 1916SOL    HW215608   2.035   6.656   0.494  1.2720  2.3530 -1.0241
 1917SOL     OW15609   4.744   3.976   2.281  0.7288  0.3445 -0.1401
 1917SOL    HW115610   4.696   3.976   2.193 -0.1886  0.2641  0.3535
 1917SOL    HW215611   4.842   3.967   2.265  0.9018  3.7064 -1.3245
 1918SOL     OW15612   2.413   8.333   1.382  0.6191  0.1551  0.5031
 1918SOL    HW115613   2.510   8.308   1.386  0.5481 -0.1643  0.1649
 1918SOL    HW215614   2.365   8.295   1.461  0.8012  0.4663  0.7688
 1919SOL     OW15615   3.696   8.517   0.851  0.0912  0.4562 -0.5747
 1919SOL    HW115616   3.620   8.508   0.916  0.1427  1.0334 -0.4305
 1919SOL    HW215617   3.668   8.481   0.762 -0.6474  1.4148 -0.7491
 1920SOL     OW15618   2.774   4.930   1.108 -1.0591  0.2976  0.0370
 1920SOL    HW115619   2.858   4.982   1.123 -0.3109 -0.8344 -0.1278
 1920SOL    HW215620   2.729   4.914   1.196 -0.9463  0.6474  0.1606
 1921SOL     OW15621   3.653   4.991   1.305 -0.1918  0.7587  0.0295
 1921SOL    HW115622   3.566   5.038   1.316  0.4732  1.7725  1.0308
 1921SOL    HW215623   3.643   4.895   1.332 -1.4237  0.4220 -1.5444
 1922SOL     OW15624   3.416   7.408   0.408  0.0232 -0.3595  0.2830
 1922SOL    HW115625   3.359   7.490   0.398  1.0574  0.2363 -0.9224
 1922SOL    HW215626   3.369   7.330   0.366 -0.3087 -0.0648  0.1035
 1923SOL     OW15627   4.493   2.202   1.751 -0.6200  0.0241  0.4167
 1923SOL    HW115628   4.559   2.201   1.826  0.8177  1.4688 -0.7982
 1923SOL    HW215629   4.465   2.296   1.733  1.0720  0.0114 -2.5574
 1924SOL     OW15630   1.952   2.638   2.421  0.1256  0.4675 -0.5143
 1924SOL    HW115631   1.855   2.661   2.427  0.0285 -0.1989  0.9089
 1924SOL    HW215632   1.990   2.631   2.514  1.4004  0.1757 -1.0440
 1925SOL     OW15633   2.960   4.646   1.352 -0.1086 -0.7561  0.0489
 1925SOL    HW115634   3.009   4.722   1.310  1.2161 -1.4352  0.3595
 1925SOL    HW215635   2.974   4.648   1.451 -0.9268 -0.8033  0.1699
 1926SOL     OW15636   2.285   9.296   1.801  0.5167 -0.3139 -0.3638
 1926SOL    HW115637   2.210   9.239   1.835  1.8367 -1.4875  0.6412
 1926SOL    HW215638   2.306   9.271   1.707  0.6616 -1.0357 -0.1405
 1927SOL     OW15639   3.115   3.702   1.477  0.7090  0.4095 -0.0715
 1927SOL    HW115640   3.113   3.635   1.552  1.2971  0.7775  0.2760
 1927SOL    HW215641   3.210   3.721   1.452  0.5340  0.9236 -0.3431
  10.00000  10.00000   2.68028
