chitosan Film  in water:acetic acid 2%
78843
    1CHTO  H203    1   6.316   6.639   6.308
    1CHTO   O82    2   6.256   6.574   6.275
    1CHTO  C123    3   6.282   6.548   6.137
    1CHTO  H227    4   6.385   6.512   6.126
    1CHTO   O77    5   6.188   6.441   6.106
    1CHTO  C118    6   6.207   6.385   5.975
    1CHTO  H222    7   6.311   6.353   5.962
    1CHTO  C125    8   6.113   6.260   5.962
    1CHTO   O84    9   6.151   6.159   6.056
    1CHTO  H205   10   6.091   6.087   6.049
    1CHTO  C114   11   6.174   6.493   5.870
    1CHTO  H218   12   6.069   6.520   5.880
    1CHTO  C116   13   6.259   6.622   5.891
    1CHTO  H220   14   6.365   6.601   5.862
    1CHTO   O79   15   6.212   6.723   5.800
    1CHTO  H201   16   6.267   6.799   5.805
    1CHTO  C120   17   6.254   6.671   6.042
    1CHTO  H224   18   6.151   6.709   6.059
    1CHTO   N21   19   6.346   6.785   6.068
    1CHTO  H211   20   6.445   6.749   6.095
    1CHTO  H212   21   6.353   6.849   5.981
    1CHTO   O75   22   6.199   6.430   5.743
    1CHTO  C112   23   6.082   6.454   5.632
    1CHTO  H216   24   6.031   6.549   5.654
    1CHTO   O73   25   5.992   6.342   5.642
    1CHTO  C113   26   5.887   6.339   5.544
    1CHTO  H217   27   5.829   6.433   5.551
    1CHTO  C124   28   5.791   6.224   5.578
    1CHTO   O83   29   5.853   6.095   5.582
    1CHTO  H204   30   5.911   6.090   5.656
    1CHTO  C109   31   5.949   6.328   5.402
    1CHTO  H213   32   6.011   6.236   5.401
    1CHTO  C110   33   6.040   6.452   5.378
    1CHTO  H214   34   5.978   6.542   5.378
    1CHTO   O78   35   6.099   6.441   5.246
    1CHTO  H200   36   6.154   6.366   5.241
    1CHTO  C111   37   6.149   6.461   5.489
    1CHTO  H215   38   6.216   6.374   5.479
    1CHTO   N19   39   6.234   6.582   5.478
    1CHTO  H207   40   6.308   6.583   5.556
    1CHTO  H208   41   6.284   6.583   5.382
    1CHTO   O74   42   5.846   6.318   5.299
    1CHTO  C115   43   5.837   6.169   5.234
    1CHTO  H219   44   5.891   6.096   5.295
    1CHTO   O76   45   5.689   6.117   5.231
    1CHTO  C122   46   5.611   6.166   5.122
    1CHTO  H226   47   5.601   6.274   5.135
    1CHTO  C126   48   5.466   6.108   5.136
    1CHTO   O85   49   5.462   5.965   5.133
    1CHTO  H206   50   5.507   5.930   5.207
    1CHTO  C121   51   5.675   6.134   4.980
    1CHTO  H225   52   5.614   6.055   4.930
    1CHTO   O81   53   5.669   6.251   4.898
    1CHTO  H202   54   5.694   6.231   4.810
    1CHTO  C119   55   5.821   6.082   4.993
    1CHTO  H223   56   5.813   5.985   5.042
    1CHTO  C117   57   5.903   6.175   5.090
    1CHTO  H221   58   5.905   6.281   5.063
    1CHTO   N20   59   6.048   6.135   5.098
    1CHTO  H209   60   6.093   6.142   5.000
    1CHTO  H210   61   6.056   6.034   5.135
    1CHTO   O80   62   5.886   6.041   4.853
    1CHTO  C103   63   5.934   5.893   4.831
    1CHTO  H190   64   5.982   5.855   4.922
    1CHTO  C101   65   5.822   5.792   4.786
    1CHTO  H188   66   5.768   5.835   4.702
    1CHTO   O68   67   5.722   5.772   4.904
    1CHTO  H168   68   5.651   5.718   4.877
    1CHTO   C99   69   5.887   5.653   4.739
    1CHTO  H186   70   5.935   5.604   4.827
    1CHTO   N17   71   5.787   5.556   4.684
    1CHTO  H174   72   5.741   5.596   4.595
    1CHTO  H175   73   5.713   5.533   4.760
    1CHTO   C97   74   6.002   5.679   4.638
    1CHTO  H184   75   5.959   5.720   4.546
    1CHTO   O64   76   6.098   5.770   4.696
    1CHTO  C104   77   6.044   5.901   4.720
    1CHTO  H191   78   6.001   5.944   4.630
    1CHTO  C108   79   6.159   5.994   4.761
    1CHTO   O71   80   6.255   6.006   4.655
    1CHTO  H171   81   6.218   6.055   4.584
    1CHTO   O62   82   6.079   5.560   4.608
    1CHTO   C91   83   6.167   5.568   4.494
    1CHTO  H178   84   6.204   5.671   4.487
    1CHTO   C92   85   6.087   5.541   4.361
    1CHTO  H179   86   5.989   5.590   4.365
    1CHTO   O66   87   6.158   5.604   4.253
    1CHTO  H166   88   6.107   5.601   4.174
    1CHTO   C93   89   6.074   5.387   4.327
    1CHTO  H180   90   6.038   5.382   4.223
    1CHTO   N16   91   5.969   5.317   4.405
    1CHTO  H172   92   5.873   5.361   4.386
    1CHTO  H173   93   5.993   5.322   4.511
    1CHTO   C94   94   6.214   5.314   4.336
    1CHTO  H181   95   6.212   5.231   4.407
    1CHTO   O61   96   6.320   5.402   4.380
    1CHTO   C95   97   6.292   5.470   4.504
    1CHTO  H182   98   6.273   5.396   4.581
    1CHTO  C106   99   6.421   5.548   4.548
    1CHTO   O69  100   6.527   5.457   4.580
    1CHTO  H169  101   6.603   5.505   4.606
    1CHTO   O63  102   6.248   5.263   4.196
    1CHTO   C96  103   6.352   5.150   4.195
    1CHTO  H183  104   6.337   5.090   4.285
    1CHTO   C98  105   6.500   5.200   4.194
    1CHTO  H185  106   6.514   5.278   4.270
    1CHTO   O67  107   6.587   5.093   4.235
    1CHTO  H167  108   6.580   5.021   4.175
    1CHTO  C102  109   6.547   5.254   4.051
    1CHTO  H189  110   6.656   5.265   4.058
    1CHTO   N18  111   6.496   5.388   4.013
    1CHTO  H176  112   6.388   5.386   4.008
    1CHTO  H177  113   6.536   5.417   3.916
    1CHTO  C105  114   6.517   5.146   3.942
    1CHTO  H192  115   6.531   5.189   3.843
    1CHTO   O65  116   6.383   5.091   3.946
    1CHTO  C100  117   6.316   5.059   4.069
    1CHTO  H187  118   6.210   5.075   4.048
    1CHTO  C107  119   6.328   4.906   4.099
    1CHTO   O70  120   6.462   4.859   4.115
    1CHTO  H170  121   6.500   4.895   4.193
    1CHTO   O57  122   6.626   5.038   3.966
    1CHTO   C85  123   6.733   5.007   3.875
    1CHTO  H157  124   6.687   4.991   3.775
    1CHTO   C83  125   6.789   4.867   3.920
    1CHTO  H155  126   6.714   4.791   3.897
    1CHTO   O56  127   6.805   4.865   4.063
    1CHTO  H135  128   6.871   4.926   4.090
    1CHTO   C81  129   6.920   4.832   3.844
    1CHTO  H153  130   6.898   4.833   3.737
    1CHTO   N14  131   6.969   4.694   3.871
    1CHTO  H141  132   6.964   4.634   3.783
    1CHTO  H142  133   7.069   4.694   3.907
    1CHTO   C79  134   7.028   4.943   3.872
    1CHTO  H151  135   7.117   4.916   3.815
    1CHTO   O52  136   6.980   5.069   3.818
    1CHTO   C86  137   6.851   5.115   3.870
    1CHTO  H158  138   6.874   5.151   3.972
    1CHTO   C90  139   6.810   5.240   3.788
    1CHTO   O60  140   6.801   5.213   3.648
    1CHTO  H138  141   6.729   5.155   3.631
    1CHTO   O50  142   7.066   4.960   4.009
    1CHTO   C73  143   7.155   5.005   4.112
    1CHTO  H145  144   7.248   4.946   4.109
    1CHTO   C74  145   7.088   4.983   4.252
    1CHTO  H146  146   7.061   4.877   4.258
    1CHTO   O54  147   7.187   5.006   4.355
    1CHTO  H133  148   7.254   4.940   4.351
    1CHTO   C75  149   6.962   5.078   4.265
    1CHTO  H147  150   6.891   5.051   4.187
    1CHTO   N13  151   6.887   5.062   4.392
    1CHTO  H139  152   6.932   4.985   4.454
    1CHTO  H140  153   6.886   5.154   4.449
    1CHTO   C76  154   7.006   5.229   4.238
    1CHTO  H148  155   7.073   5.260   4.318
    1CHTO   O49  156   7.075   5.240   4.109
    1CHTO   C77  157   7.191   5.157   4.097
    1CHTO  H149  158   7.263   5.184   4.174
    1CHTO   C88  159   7.259   5.190   3.963
    1CHTO   O58  160   7.387   5.122   3.949
    1CHTO  H136  161   7.374   5.030   3.940
    1CHTO   O51  162   6.878   5.325   4.223
    1CHTO   C78  163   6.910   5.474   4.269
    1CHTO  H150  164   7.020   5.491   4.276
    1CHTO   C80  165   6.846   5.502   4.406
    1CHTO  H152  166   6.736   5.483   4.399
    1CHTO   O55  167   6.902   5.409   4.500
    1CHTO  H134  168   6.872   5.322   4.482
    1CHTO   C84  169   6.871   5.652   4.450
    1CHTO  H156  170   6.978   5.666   4.460
    1CHTO   N15  171   6.811   5.687   4.584
    1CHTO  H143  172   6.705   5.670   4.581
    1CHTO  H144  173   6.854   5.625   4.660
    1CHTO   C87  174   6.820   5.747   4.339
    1CHTO  H159  175   6.711   5.740   4.331
    1CHTO   O53  176   6.886   5.708   4.205
    1CHTO   C82  177   6.856   5.573   4.164
    1CHTO  H154  178   6.748   5.560   4.150
    1CHTO   C89  179   6.922   5.547   4.027
    1CHTO   O59  180   6.869   5.635   3.927
    1CHTO  H137  181   6.910   5.618   3.845
    1CHTO   O45  182   6.864   5.900   4.367
    1CHTO   C67  183   6.770   5.998   4.318
    1CHTO  H124  184   6.731   5.965   4.222
    1CHTO   C65  185   6.649   6.015   4.418
    1CHTO  H122  186   6.671   5.952   4.505
    1CHTO   O44  187   6.530   5.965   4.354
    1CHTO  H102  188   6.538   5.873   4.337
    1CHTO   C63  189   6.640   6.161   4.476
    1CHTO  H120  190   6.731   6.182   4.532
    1CHTO   N11  191   6.535   6.186   4.580
    1CHTO  H108  192   6.470   6.101   4.588
    1CHTO  H109  193   6.478   6.273   4.557
    1CHTO   C61  194   6.638   6.262   4.355
    1CHTO  H118  195   6.651   6.363   4.398
    1CHTO   O40  196   6.749   6.243   4.262
    1CHTO   C68  197   6.844   6.135   4.290
    1CHTO  H125  198   6.905   6.164   4.379
    1CHTO   C72  199   6.942   6.121   4.171
    1CHTO   O48  200   7.020   6.239   4.149
    1CHTO  H105  201   6.965   6.309   4.120
    1CHTO   O38  202   6.516   6.255   4.278
    1CHTO   C55  203   6.488   6.372   4.198
    1CHTO  H112  204   6.577   6.437   4.191
    1CHTO   C56  205   6.364   6.450   4.260
    1CHTO  H113  206   6.280   6.380   4.265
    1CHTO   O42  207   6.393   6.490   4.395
    1CHTO  H100  208   6.402   6.414   4.450
    1CHTO   C57  209   6.327   6.576   4.171
    1CHTO  H114  210   6.407   6.649   4.185
    1CHTO   N10  211   6.200   6.642   4.211
    1CHTO  H106  212   6.219   6.717   4.286
    1CHTO  H107  213   6.130   6.569   4.251
    1CHTO   C58  214   6.322   6.537   4.021
    1CHTO  H115  215   6.228   6.480   4.000
    1CHTO   O37  216   6.435   6.458   3.980
    1CHTO   C59  217   6.452   6.335   4.052
    1CHTO  H116  218   6.361   6.275   4.047
    1CHTO   C70  219   6.565   6.258   3.982
    1CHTO   O46  220   6.578   6.123   4.029
    1CHTO  H103  221   6.649   6.081   3.984
    1CHTO   O39  222   6.328   6.669   3.928
    1CHTO   C60  223   6.262   6.652   3.801
    1CHTO  H117  224   6.243   6.547   3.782
    1CHTO   C62  225   6.126   6.728   3.799
    1CHTO  H119  226   6.064   6.683   3.880
    1CHTO   O43  227   6.147   6.867   3.829
    1CHTO  H101  228   6.174   6.877   3.919
    1CHTO   C66  229   6.054   6.704   3.657
    1CHTO  H123  230   6.041   6.597   3.642
    1CHTO   N12  231   5.917   6.762   3.653
    1CHTO  H110  232   5.871   6.740   3.557
    1CHTO  H111  233   5.921   6.868   3.670
    1CHTO   C69  234   6.145   6.755   3.542
    1CHTO  H126  235   6.159   6.866   3.551
    1CHTO   O41  236   6.285   6.683   3.552
    1CHTO   C64  237   6.355   6.702   3.686
    1CHTO  H121  238   6.378   6.809   3.702
    1CHTO   C71  239   6.488   6.623   3.684
    1CHTO   O47  240   6.577   6.676   3.586
    1CHTO  H104  241   6.657   6.627   3.586
    1CHTO   O34  242   6.083   6.725   3.402
    1CHTO   C49  243   6.089   6.703   3.251
    1CHTO   H91  244   6.095   6.596   3.235
    1CHTO   C47  245   6.214   6.773   3.194
    1CHTO   H89  246   6.220   6.745   3.087
    1CHTO   O33  247   6.330   6.719   3.261
    1CHTO   H70  248   6.408   6.754   3.223
    1CHTO   C45  249   6.198   6.932   3.209
    1CHTO   H87  250   6.177   6.955   3.315
    1CHTO    N8  251   6.321   7.006   3.169
    1CHTO   H75  252   6.362   7.058   3.255
    1CHTO   H76  253   6.299   7.078   3.091
    1CHTO   C43  254   6.066   6.978   3.129
    1CHTO   H85  255   6.054   7.085   3.149
    1CHTO   O29  256   5.951   6.903   3.172
    1CHTO   C50  257   5.961   6.759   3.183
    1CHTO   H92  258   5.876   6.726   3.244
    1CHTO   C54  259   5.934   6.689   3.047
    1CHTO   O36  260   5.802   6.716   2.999
    1CHTO   H72  261   5.793   6.807   2.978
    1CHTO   O27  262   6.083   6.968   2.986
    1CHTO   C37  263   6.011   6.992   2.864
    1CHTO   H79  264   5.932   6.917   2.850
    1CHTO   C38  265   5.943   7.132   2.864
    1CHTO   H80  266   6.020   7.208   2.887
    1CHTO   O31  267   5.844   7.133   2.968
    1CHTO   H68  268   5.885   7.130   3.052
    1CHTO   C39  269   5.876   7.165   2.725
    1CHTO   H81  270   5.789   7.101   2.716
    1CHTO    N7  271   5.827   7.307   2.713
    1CHTO   H73  272   5.721   7.308   2.696
    1CHTO   H74  273   5.852   7.364   2.801
    1CHTO   C40  274   5.970   7.128   2.602
    1CHTO   H82  275   6.045   7.207   2.585
    1CHTO   O26  276   6.031   6.999   2.619
    1CHTO   C41  277   6.108   6.985   2.743
    1CHTO   H83  278   6.182   7.066   2.750
    1CHTO   C52  279   6.185   6.851   2.737
    1CHTO   O35  280   6.286   6.852   2.631
    1CHTO   H71  281   6.357   6.909   2.655
    1CHTO   O28  282   5.889   7.114   2.483
    1CHTO   C42  283   5.937   7.102   2.345
    1CHTO   H84  284   5.844   7.093   2.289
    1CHTO   C44  285   6.023   6.977   2.309
    1CHTO   H86  286   6.119   6.985   2.359
    1CHTO   O32  287   5.953   6.861   2.360
    1CHTO   H69  288   5.872   6.849   2.316
    1CHTO   C48  289   6.047   6.969   2.152
    1CHTO   H90  290   5.950   6.953   2.105
    1CHTO    N9  291   6.130   6.850   2.113
    1CHTO   H77  292   6.228   6.856   2.159
    1CHTO   H78  293   6.139   6.844   2.006
    1CHTO   C51  294   6.107   7.105   2.097
    1CHTO   H93  295   6.210   7.114   2.133
    1CHTO   O30  296   6.026   7.216   2.138
    1CHTO   C46  297   6.010   7.229   2.291
    1CHTO   H88  298   6.109   7.236   2.337
    1CHTO   C53  299   5.931   7.360   2.320
    1CHTO   O72  300   5.801   7.359   2.259
    1CHTO  H199  301   5.809   7.364   2.166
    1CHTO   O22  302   6.104   7.106   1.953
    1CHTO   C31  303   6.171   7.203   1.864
    1CHTO   H59  304   6.156   7.165   1.761
    1CHTO   C29  305   6.112   7.346   1.868
    1CHTO   H57  306   6.124   7.385   1.971
    1CHTO   O21  307   5.971   7.336   1.842
    1CHTO   H37  308   5.930   7.419   1.857
    1CHTO   C27  309   6.186   7.444   1.768
    1CHTO   H55  310   6.162   7.413   1.665
    1CHTO    N5  311   6.141   7.585   1.784
    1CHTO   H43  312   6.170   7.623   1.882
    1CHTO   H44  313   6.184   7.647   1.707
    1CHTO   C25  314   6.342   7.431   1.782
    1CHTO   H53  315   6.374   7.477   1.877
    1CHTO   O17  316   6.384   7.292   1.781
    1CHTO   C32  317   6.326   7.210   1.884
    1CHTO   H60  318   6.347   7.253   1.982
    1CHTO   C36  319   6.391   7.070   1.875
    1CHTO   O25  320   6.531   7.077   1.906
    1CHTO   H40  321   6.569   6.992   1.899
    1CHTO   O15  322   6.416   7.504   1.662
    1CHTO   C19  323   6.410   7.539   1.521
    1CHTO   H47  324   6.303   7.547   1.500
    1CHTO   C20  325   6.477   7.677   1.491
    1CHTO   H48  326   6.582   7.680   1.525
    1CHTO   O19  327   6.405   7.776   1.565
    1CHTO   H35  328   6.420   7.766   1.657
    1CHTO   C21  329   6.474   7.715   1.337
    1CHTO   H49  330   6.372   7.743   1.311
    1CHTO    N4  331   6.559   7.833   1.305
    1CHTO   H41  332   6.661   7.815   1.333
    1CHTO   H42  333   6.522   7.920   1.358
    1CHTO   C22  334   6.510   7.592   1.249
    1CHTO   H50  335   6.618   7.574   1.252
    1CHTO   O14  336   6.439   7.474   1.289
    1CHTO   C23  337   6.467   7.433   1.423
    1CHTO   H51  338   6.576   7.423   1.432
    1CHTO   C34  339   6.408   7.293   1.445
    1CHTO   O23  340   6.470   7.197   1.360
    1CHTO   H38  341   6.433   7.113   1.375
    1CHTO   O16  342   6.467   7.616   1.113
    1CHTO   C24  343   6.523   7.517   1.005
    1CHTO   H52  344   6.561   7.425   1.050
    1CHTO   C26  345   6.636   7.589   0.929
    1CHTO   H54  346   6.603   7.693   0.905
    1CHTO   O20  347   6.750   7.600   1.017
    1CHTO   H36  348   6.732   7.659   1.087
    1CHTO   C30  349   6.672   7.518   0.795
    1CHTO   H58  350   6.720   7.421   0.815
    1CHTO    N6  351   6.770   7.597   0.716
    1CHTO   H45  352   6.859   7.539   0.697
    1CHTO   H46  353   6.729   7.629   0.621
    1CHTO   C33  354   6.541   7.487   0.716
    1CHTO   H61  355   6.489   7.583   0.696
    1CHTO   O18  356   6.456   7.407   0.800
    1CHTO   C28  357   6.405   7.478   0.913
    1CHTO   H56  358   6.352   7.568   0.881
    1CHTO   C35  359   6.305   7.386   0.987
    1CHTO   O24  360   6.191   7.351   0.907
    1CHTO   H39  361   6.137   7.427   0.894
    1CHTO    O9  362   6.562   7.425   0.588
    1CHTO   C13  363   6.505   7.513   0.461
    1CHTO   H26  364   6.556   7.612   0.464
    1CHTO   C11  365   6.347   7.528   0.471
    1CHTO   H24  366   6.323   7.591   0.558
    1CHTO    O8  367   6.285   7.399   0.492
    1CHTO    H3  368   6.302   7.342   0.420
    1CHTO    C9  369   6.299   7.600   0.342
    1CHTO   H22  370   6.358   7.693   0.337
    1CHTO    N2  371   6.159   7.649   0.350
    1CHTO   H10  372   6.091   7.564   0.354
    1CHTO   H11  373   6.146   7.711   0.437
    1CHTO    C7  374   6.334   7.512   0.214
    1CHTO   H20  375   6.378   7.586   0.143
    1CHTO    O4  376   6.432   7.409   0.243
    1CHTO   C14  377   6.546   7.448   0.321
    1CHTO   H27  378   6.601   7.525   0.263
    1CHTO   C18  379   6.640   7.325   0.333
    1CHTO   O13  380   6.575   7.212   0.392
    1CHTO    H7  381   6.636   7.142   0.400
    1CHTO    O2  382   6.203   7.441   0.141
    1CHTO    C1  383   6.238   7.369   0.022
    1CHTO   H14  384   6.345   7.341   0.025
    1CHTO    C2  385   6.211   7.448   9.970
    1CHTO   H15  386   6.104   7.473   9.969
    1CHTO    O6  387   6.288   7.570   9.972
    1CHTO    H1  388   6.380   7.551   9.975
    1CHTO    C3  389   6.249   7.356   9.844
    1CHTO   H16  390   6.358   7.342   9.843
    1CHTO    N1  391   6.212   7.422   9.714
    1CHTO    H8  392   6.242   7.359   9.631
    1CHTO    H9  393   6.106   7.439   9.710
    1CHTO    C4  394   6.186   7.212   9.858
    1CHTO   H17  395   6.079   7.217   9.835
    1CHTO    O1  396   6.206   7.156   9.989
    1CHTO    C5  397   6.159   7.235   0.017
    1CHTO   H18  398   6.053   7.258   0.000
    1CHTO   C16  399   6.171   7.152   0.147
    1CHTO   O11  400   6.306   7.115   0.176
    1CHTO    H5  401   6.309   7.064   0.256
    1CHTO    O3  402   6.253   7.119   9.771
    1CHTO    C6  403   6.171   7.009   9.719
    1CHTO   H19  404   6.070   7.007   9.761
    1CHTO    C8  405   6.159   7.022   9.564
    1CHTO   H21  406   6.259   7.028   9.522
    1CHTO    O7  407   6.089   7.145   9.537
    1CHTO    H2  408   6.087   7.161   9.445
    1CHTO   C12  409   6.086   6.896   9.502
    1CHTO   H25  410   5.980   6.900   9.538
    1CHTO    N3  411   6.081   6.903   9.352
    1CHTO   H12  412   6.181   6.907   9.312
    1CHTO   H13  413   6.025   6.990   9.321
    1CHTO   C15  414   6.152   6.764   9.555
    1CHTO   H28  415   6.251   6.749   9.513
    1CHTO   O10  416   6.064   6.638   9.527
    1CHTO    H4  417   5.977   6.650   9.560
    1CHTO    O5  418   6.159   6.764   9.699
    1CHTO   C10  419   6.237   6.872   9.753
    1CHTO   H23  420   6.337   6.867   9.710
    1CHTO   C17  421   6.254   6.847   9.904
    1CHTO   O12  422   6.128   6.846   9.973
    1CHTO    H6  423   6.142   6.829  10.064
    2CHTO  H203  424   6.104   5.117   7.175
    2CHTO   O82  425   6.017   5.144   7.194
    2CHTO  C123  426   5.933   5.126   7.079
    2CHTO  H227  427   5.935   5.019   7.051
    2CHTO   O77  428   5.801   5.163   7.129
    2CHTO  C118  429   5.695   5.150   7.033
    2CHTO  H222  430   5.692   5.046   6.996
    2CHTO  C125  431   5.559   5.181   7.106
    2CHTO   O84  432   5.556   5.313   7.161
    2CHTO  H205  433   5.473   5.328   7.203
    2CHTO  C114  434   5.720   5.246   6.915
    2CHTO  H218  435   5.724   5.348   6.953
    2CHTO  C116  436   5.858   5.217   6.848
    2CHTO  H220  437   5.855   5.117   6.799
    2CHTO   O79  438   5.880   5.314   6.744
    2CHTO  H201  439   5.820   5.300   6.674
    2CHTO  C120  440   5.973   5.219   6.957
    2CHTO  H224  441   5.982   5.324   6.992
    2CHTO   N21  442   6.105   5.181   6.898
    2CHTO  H211  443   6.119   5.074   6.903
    2CHTO  H212  444   6.184   5.232   6.951
    2CHTO   O75  445   5.609   5.228   6.826
    2CHTO  C112  446   5.545   5.369   6.773
    2CHTO  H216  447   5.627   5.434   6.738
    2CHTO   O73  448   5.473   5.427   6.883
    2CHTO  C113  449   5.413   5.554   6.854
    2CHTO  H217  450   5.491   5.625   6.819
    2CHTO  C124  451   5.352   5.611   6.983
    2CHTO   O83  452   5.450   5.633   7.085
    2CHTO  H204  453   5.480   5.551   7.119
    2CHTO  C109  454   5.305   5.536   6.744
    2CHTO  H213  455   5.229   5.467   6.785
    2CHTO  C110  456   5.370   5.473   6.616
    2CHTO  H214  457   5.440   5.546   6.574
    2CHTO   O78  458   5.269   5.450   6.516
    2CHTO  H200  459   5.205   5.388   6.547
    2CHTO  C111  460   5.446   5.342   6.653
    2CHTO  H215  461   5.372   5.267   6.686
    2CHTO   N19  462   5.519   5.282   6.538
    2CHTO  H207  463   5.567   5.190   6.569
    2CHTO  H208  464   5.450   5.261   6.458
    2CHTO   O74  465   5.242   5.664   6.713
    2CHTO  C115  466   5.086   5.655   6.651
    2CHTO  H219  467   5.085   5.666   6.542
    2CHTO   O76  468   5.019   5.514   6.680
    2CHTO  C122  469   4.885   5.498   6.631
    2CHTO  H226  470   4.847   5.406   6.674
    2CHTO  C126  471   4.885   5.476   6.476
    2CHTO   O85  472   4.951   5.355   6.438
    2CHTO  H206  473   4.947   5.344   6.345
    2CHTO  C121  474   4.789   5.616   6.675
    2CHTO  H225  475   4.696   5.608   6.615
    2CHTO   O81  476   4.756   5.599   6.813
    2CHTO  H202  477   4.706   5.520   6.825
    2CHTO  C119  478   4.851   5.758   6.652
    2CHTO  H223  479   4.858   5.771   6.544
    2CHTO  C117  480   4.997   5.769   6.712
    2CHTO  H221  481   5.005   5.756   6.819
    2CHTO   N20  482   5.058   5.902   6.683
    2CHTO  H209  483   4.998   5.980   6.728
    2CHTO  H210  484   5.064   5.918   6.576
    2CHTO   O80  485   4.749   5.880   6.693
    2CHTO  C103  486   4.607   5.891   6.624
    2CHTO  H190  487   4.603   5.832   6.533
    2CHTO  C101  488   4.485   5.851   6.718
    2CHTO  H188  489   4.499   5.899   6.815
    2CHTO   O68  490   4.486   5.698   6.739
    2CHTO  H168  491   4.471   5.654   6.658
    2CHTO   C99  492   4.345   5.901   6.657
    2CHTO  H186  493   4.326   5.847   6.562
    2CHTO   N17  494   4.227   5.875   6.746
    2CHTO  H174  495   4.223   5.770   6.771
    2CHTO  H175  496   4.136   5.907   6.697
    2CHTO   C97  497   4.356   6.051   6.619
    2CHTO  H184  498   4.371   6.109   6.712
    2CHTO   O64  499   4.464   6.069   6.527
    2CHTO  C104  500   4.594   6.044   6.582
    2CHTO  H191  501   4.614   6.107   6.669
    2CHTO  C108  502   4.695   6.086   6.474
    2CHTO   O71  503   4.830   6.090   6.521
    2CHTO  H171  504   4.860   6.004   6.541
    2CHTO   O62  505   4.242   6.099   6.545
    2CHTO   C91  506   4.179   6.217   6.598
    2CHTO  H178  507   4.164   6.199   6.705
    2CHTO   C92  508   4.035   6.230   6.537
    2CHTO  H179  509   3.983   6.133   6.544
    2CHTO   O66  510   3.960   6.320   6.619
    2CHTO  H166  511   3.944   6.282   6.704
    2CHTO   C93  512   4.034   6.287   6.390
    2CHTO  H180  513   3.940   6.345   6.378
    2CHTO   N16  514   4.028   6.183   6.285
    2CHTO  H172  515   3.939   6.195   6.224
    2CHTO  H173  516   4.030   6.084   6.328
    2CHTO   C94  517   4.156   6.384   6.365
    2CHTO  H181  518   4.243   6.332   6.325
    2CHTO   O61  519   4.197   6.445   6.488
    2CHTO   C95  520   4.262   6.352   6.577
    2CHTO  H182  521   4.359   6.327   6.535
    2CHTO  C106  522   4.292   6.425   6.713
    2CHTO   O69  523   4.173   6.469   6.778
    2CHTO  H169  524   4.194   6.508   6.861
    2CHTO   O63  525   4.113   6.497   6.264
    2CHTO   C96  526   4.235   6.578   6.207
    2CHTO  H183  527   4.327   6.530   6.239
    2CHTO   C98  528   4.239   6.726   6.255
    2CHTO  H185  529   4.140   6.772   6.241
    2CHTO   O67  530   4.261   6.724   6.397
    2CHTO  H167  531   4.260   6.811   6.431
    2CHTO  C102  532   4.353   6.811   6.179
    2CHTO  H189  533   4.449   6.771   6.215
    2CHTO   N18  534   4.353   6.955   6.214
    2CHTO  H176  535   4.260   7.001   6.186
    2CHTO  H177  536   4.435   7.005   6.164
    2CHTO  C105  537   4.343   6.787   6.026
    2CHTO  H192  538   4.251   6.833   5.989
    2CHTO   O65  539   4.339   6.647   5.993
    2CHTO  C100  540   4.230   6.574   6.050
    2CHTO  H187  541   4.136   6.620   6.017
    2CHTO  C107  542   4.232   6.429   5.995
    2CHTO   O70  543   4.352   6.359   6.030
    2CHTO  H170  544   4.354   6.343   6.122
    2CHTO   O57  545   4.476   6.862   5.954
    2CHTO   C85  546   4.590   6.787   5.909
    2CHTO  H157  547   4.549   6.697   5.858
    2CHTO   C83  548   4.673   6.733   6.031
    2CHTO  H155  549   4.609   6.667   6.089
    2CHTO   O56  550   4.708   6.844   6.117
    2CHTO  H135  551   4.630   6.882   6.155
    2CHTO   C81  552   4.795   6.652   5.979
    2CHTO  H153  553   4.757   6.571   5.917
    2CHTO   N14  554   4.870   6.583   6.087
    2CHTO  H141  555   4.914   6.655   6.153
    2CHTO  H142  556   4.804   6.520   6.143
    2CHTO   C79  557   4.886   6.744   5.888
    2CHTO  H151  558   4.963   6.679   5.845
    2CHTO   O52  559   4.808   6.796   5.777
    2CHTO   C86  560   4.687   6.868   5.816
    2CHTO  H158  561   4.723   6.960   5.866
    2CHTO   C90  562   4.613   6.917   5.689
    2CHTO   O60  563   4.698   7.003   5.612
    2CHTO  H138  564   4.652   7.032   5.536
    2CHTO   O50  565   4.951   6.851   5.958
    2CHTO   C73  566   5.001   6.985   5.938
    2CHTO  H145  567   4.917   7.056   5.937
    2CHTO   C74  568   5.077   6.999   5.802
    2CHTO  H146  569   5.006   6.972   5.722
    2CHTO   O54  570   5.110   7.138   5.783
    2CHTO  H133  571   5.032   7.188   5.769
    2CHTO   C75  572   5.203   6.904   5.803
    2CHTO  H147  573   5.167   6.800   5.810
    2CHTO   N13  574   5.286   6.909   5.680
    2CHTO  H139  575   5.292   6.811   5.634
    2CHTO  H140  576   5.245   6.978   5.608
    2CHTO   C76  577   5.291   6.929   5.935
    2CHTO  H148  578   5.345   7.023   5.923
    2CHTO   O49  579   5.210   6.933   6.057
    2CHTO   C77  580   5.097   7.022   6.054
    2CHTO  H149  581   5.131   7.125   6.040
    2CHTO   C88  582   5.026   7.018   6.190
    2CHTO   O58  583   5.116   7.063   6.299
    2CHTO  H136  584   5.184   7.000   6.311
    2CHTO   O51  585   5.388   6.804   5.958
    2CHTO   C78  586   5.494   6.825   6.071
    2CHTO  H150  587   5.476   6.920   6.126
    2CHTO   C80  588   5.634   6.831   6.006
    2CHTO  H152  589   5.646   6.743   5.939
    2CHTO   O55  590   5.639   6.950   5.924
    2CHTO  H134  591   5.583   6.940   5.849
    2CHTO   C84  592   5.751   6.831   6.113
    2CHTO  H156  593   5.745   6.925   6.168
    2CHTO   N15  594   5.888   6.825   6.051
    2CHTO  H143  595   5.882   6.821   5.944
    2CHTO  H144  596   5.946   6.910   6.081
    2CHTO   C87  597   5.729   6.715   6.213
    2CHTO  H159  598   5.741   6.618   6.163
    2CHTO   O53  599   5.587   6.728   6.271
    2CHTO   C82  600   5.485   6.709   6.172
    2CHTO  H154  601   5.497   6.613   6.123
    2CHTO   C89  602   5.350   6.705   6.248
    2CHTO   O59  603   5.244   6.659   6.164
    2CHTO  H137  604   5.164   6.659   6.212
    2CHTO   O45  605   5.834   6.723   6.337
    2CHTO   C67  606   5.816   6.619   6.435
    2CHTO  H124  607   5.715   6.578   6.428
    2CHTO   C65  608   5.918   6.502   6.414
    2CHTO  H122  609   6.004   6.546   6.362
    2CHTO   O44  610   5.854   6.409   6.326
    2CHTO  H102  611   5.915   6.343   6.299
    2CHTO   C63  612   5.978   6.447   6.549
    2CHTO  H120  613   6.053   6.518   6.585
    2CHTO   N11  614   6.060   6.322   6.538
    2CHTO  H108  615   6.109   6.301   6.630
    2CHTO  H109  616   5.997   6.240   6.512
    2CHTO   C61  617   5.867   6.444   6.661
    2CHTO  H118  618   5.918   6.417   6.755
    2CHTO   O40  619   5.805   6.574   6.682
    2CHTO   C68  620   5.825   6.678   6.581
    2CHTO  H125  621   5.926   6.722   6.597
    2CHTO   C72  622   5.723   6.793   6.602
    2CHTO   O48  623   5.586   6.751   6.591
    2CHTO  H105  624   5.564   6.693   6.661
    2CHTO   O38  625   5.761   6.348   6.633
    2CHTO   C55  626   5.700   6.287   6.749
    2CHTO  H112  627   5.731   6.339   6.841
    2CHTO   C56  628   5.734   6.132   6.753
    2CHTO  H113  629   5.706   6.091   6.655
    2CHTO   O42  630   5.876   6.114   6.766
    2CHTO  H100  631   5.907   6.151   6.846
    2CHTO   C57  632   5.656   6.058   6.869
    2CHTO  H114  633   5.703   6.089   6.963
    2CHTO   N10  634   5.667   5.910   6.863
    2CHTO  H106  635   5.659   5.867   6.962
    2CHTO  H107  636   5.590   5.868   6.800
    2CHTO   C58  637   5.506   6.100   6.874
    2CHTO  H115  638   5.451   6.051   6.790
    2CHTO   O37  639   5.491   6.243   6.863
    2CHTO   C59  640   5.545   6.303   6.745
    2CHTO  H116  641   5.504   6.255   6.656
    2CHTO   C70  642   5.504   6.451   6.742
    2CHTO   O46  643   5.362   6.470   6.734
    2CHTO  H103  644   5.331   6.441   6.650
    2CHTO   O39  645   5.439   6.055   7.023
    2CHTO   C60  646   5.300   6.089   7.040
    2CHTO  H117  647   5.263   6.138   6.950
    2CHTO   C62  648   5.214   5.962   7.066
    2CHTO  H119  649   5.231   5.894   6.980
    2CHTO   O43  650   5.258   5.897   7.186
    2CHTO  H101  651   5.210   5.818   7.200
    2CHTO   C66  652   5.058   6.004   7.069
    2CHTO  H123  653   5.033   6.046   6.971
    2CHTO   N12  654   4.966   5.889   7.084
    2CHTO  H110  655   5.020   5.796   7.090
    2CHTO  H111  656   4.901   5.901   7.170
    2CHTO   C69  657   5.030   6.116   7.173
    2CHTO  H126  658   5.026   6.073   7.276
    2CHTO   O41  659   5.138   6.230   7.171
    2CHTO   C64  660   5.281   6.188   7.157
    2CHTO  H121  661   5.313   6.139   7.251
    2CHTO   C71  662   5.367   6.315   7.142
    2CHTO   O47  663   5.320   6.401   7.038
    2CHTO  H104  664   5.374   6.477   7.033
    2CHTO   O34  665   4.890   6.183   7.143
    2CHTO   C49  666   4.816   6.295   7.058
    2CHTO   H91  667   4.709   6.281   7.076
    2CHTO   C47  668   4.844   6.276   6.907
    2CHTO   H89  669   4.774   6.344   6.854
    2CHTO   O33  670   4.812   6.141   6.871
    2CHTO   H70  671   4.873   6.081   6.911
    2CHTO   C45  672   4.996   6.320   6.873
    2CHTO   H87  673   5.064   6.261   6.936
    2CHTO    N8  674   5.033   6.296   6.731
    2CHTO   H75  675   4.974   6.358   6.666
    2CHTO   H76  676   5.138   6.316   6.716
    2CHTO   C43  677   5.018   6.472   6.918
    2CHTO   H85  678   5.123   6.496   6.899
    2CHTO   O29  679   4.985   6.487   7.058
    2CHTO   C50  680   4.856   6.439   7.103
    2CHTO   H92  681   4.859   6.438   7.212
    2CHTO   C54  682   4.742   6.541   7.072
    2CHTO   O36  683   4.769   6.669   7.130
    2CHTO   H72  684   4.841   6.710   7.086
    2CHTO   O27  685   4.942   6.565   6.838
    2CHTO   C37  686   4.942   6.654   6.725
    2CHTO   H79  687   5.019   6.624   6.653
    2CHTO   C38  688   4.804   6.647   6.652
    2CHTO   H80  689   4.725   6.661   6.727
    2CHTO   O31  690   4.793   6.516   6.595
    2CHTO   H68  691   4.708   6.505   6.555
    2CHTO   C39  692   4.791   6.760   6.541
    2CHTO   H81  693   4.863   6.736   6.463
    2CHTO    N7  694   4.655   6.763   6.477
    2CHTO   H73  695   4.636   6.670   6.426
    2CHTO   H74  696   4.579   6.781   6.552
    2CHTO   C40  697   4.831   6.900   6.601
    2CHTO   H82  698   4.756   6.933   6.673
    2CHTO   O26  699   4.962   6.892   6.660
    2CHTO   C41  700   4.971   6.799   6.772
    2CHTO   H83  701   4.898   6.826   6.849
    2CHTO   C52  702   5.112   6.811   6.833
    2CHTO   O35  703   5.137   6.946   6.888
    2CHTO   H71  704   5.223   6.949   6.926
    2CHTO   O28  705   4.844   7.001   6.498
    2CHTO   C42  706   4.837   7.145   6.527
    2CHTO   H84  707   4.862   7.191   6.431
    2CHTO   C44  708   4.939   7.201   6.630
    2CHTO   H86  709   4.924   7.151   6.726
    2CHTO   O32  710   5.070   7.166   6.582
    2CHTO   H69  711   5.136   7.192   6.644
    2CHTO   C48  712   4.924   7.357   6.653
    2CHTO   H90  713   4.953   7.407   6.560
    2CHTO    N9  714   5.018   7.409   6.759
    2CHTO   H77  715   4.964   7.451   6.842
    2CHTO   H78  716   5.085   7.482   6.717
    2CHTO   C51  717   4.774   7.395   6.682
    2CHTO   H93  718   4.745   7.352   6.778
    2CHTO   O30  719   4.691   7.345   6.575
    2CHTO   C46  720   4.693   7.193   6.563
    2CHTO   H88  721   4.663   7.150   6.659
    2CHTO   C53  722   4.592   7.154   6.453
    2CHTO   O72  723   4.458   7.190   6.489
    2CHTO  H199  724   4.429   7.136   6.560
    2CHTO   O22  725   4.754   7.538   6.681
    2CHTO   C31  726   4.638   7.606   6.742
    2CHTO   H59  727   4.652   7.714   6.719
    2CHTO   C29  728   4.501   7.566   6.682
    2CHTO   H57  729   4.489   7.457   6.696
    2CHTO   O21  730   4.505   7.588   6.540
    2CHTO   H37  731   4.510   7.680   6.521
    2CHTO   C27  732   4.381   7.640   6.752
    2CHTO   H55  733   4.389   7.748   6.730
    2CHTO    N5  734   4.249   7.593   6.702
    2CHTO   H43  735   4.196   7.673   6.653
    2CHTO   H44  736   4.188   7.553   6.782
    2CHTO   C25  737   4.393   7.626   6.908
    2CHTO   H53  738   4.379   7.520   6.936
    2CHTO   O17  739   4.525   7.668   6.953
    2CHTO   C32  740   4.635   7.594   6.897
    2CHTO   H60  741   4.625   7.489   6.925
    2CHTO   C36  742   4.766   7.648   6.961
    2CHTO   O25  743   4.788   7.787   6.935
    2CHTO   H40  744   4.723   7.838   6.980
    2CHTO   O15  745   4.285   7.715   6.984
    2CHTO   C19  746   4.197   7.690   7.097
    2CHTO   H47  747   4.133   7.780   7.100
    2CHTO   C20  748   4.106   7.565   7.079
    2CHTO   H48  749   4.166   7.473   7.064
    2CHTO   O19  750   4.028   7.585   6.960
    2CHTO   H35  751   3.970   7.658   6.971
    2CHTO   C21  752   4.012   7.540   7.204
    2CHTO   H49  753   3.939   7.621   7.209
    2CHTO    N4  754   3.934   7.414   7.194
    2CHTO   H41  755   3.871   7.402   7.282
    2CHTO   H42  756   3.872   7.415   7.106
    2CHTO   C22  757   4.096   7.548   7.334
    2CHTO   H50  758   4.161   7.460   7.341
    2CHTO   O14  759   4.174   7.668   7.339
    2CHTO   C23  760   4.271   7.684   7.234
    2CHTO   H51  761   4.341   7.600   7.239
    2CHTO   C34  762   4.347   7.814   7.268
    2CHTO   O23  763   4.458   7.836   7.181
    2CHTO   H38  764   4.499   7.917   7.204
    2CHTO   O16  765   4.010   7.557   7.449
    2CHTO   C24  766   4.069   7.502   7.584
    2CHTO   H52  767   4.176   7.484   7.578
    2CHTO   C26  768   3.996   7.371   7.619
    2CHTO   H54  769   3.886   7.386   7.601
    2CHTO   O20  770   4.041   7.269   7.527
    2CHTO   H36  771   4.010   7.288   7.440
    2CHTO   C30  772   4.015   7.328   7.768
    2CHTO   H58  773   4.119   7.295   7.784
    2CHTO    N6  774   3.929   7.211   7.802
    2CHTO   H45  775   3.825   7.238   7.791
    2CHTO   H46  776   3.946   7.181   7.904
    2CHTO   C33  777   3.992   7.450   7.862
    2CHTO   H61  778   3.887   7.484   7.851
    2CHTO   O18  779   4.080   7.557   7.821
    2CHTO   C28  780   4.047   7.611   7.693
    2CHTO   H56  781   3.944   7.644   7.690
    2CHTO   C35  782   4.139   7.732   7.665
    2CHTO   O24  783   4.117   7.840   7.755
    2CHTO   H39  784   4.145   7.816   7.841
    2CHTO    O9  785   4.008   7.419   8.002
    2CHTO   C13  786   3.922   7.518   8.099
    2CHTO   H26  787   3.821   7.531   8.055
    2CHTO   C11  788   3.998   7.657   8.114
    2CHTO   H24  789   3.986   7.712   8.019
    2CHTO    O8  790   4.139   7.636   8.135
    2CHTO    H3  791   4.154   7.589   8.215
    2CHTO    C9  792   3.930   7.737   8.229
    2CHTO   H22  793   3.823   7.740   8.203
    2CHTO    N2  794   3.969   7.880   8.232
    2CHTO   H10  795   3.908   7.933   8.303
    2CHTO   H11  796   4.073   7.889   8.259
    2CHTO    C7  797   3.946   7.657   8.365
    2CHTO   H20  798   3.846   7.669   8.413
    2CHTO    O4  799   3.973   7.517   8.346
    2CHTO   C14  800   3.896   7.453   8.243
    2CHTO   H27  801   3.788   7.465   8.268
    2CHTO   C18  802   3.925   7.301   8.249
    2CHTO   O13  803   3.840   7.228   8.161
    2CHTO    H7  804   3.858   7.136   8.168
    2CHTO    O2  805   4.061   7.718   8.465
    2CHTO    C1  806   4.021   7.732   8.602
    2CHTO   H14  807   3.950   7.650   8.628
    2CHTO    C2  808   3.952   7.871   8.635
    2CHTO   H15  809   4.019   7.949   8.595
    2CHTO    O6  810   3.826   7.876   8.565
    2CHTO    H1  811   3.786   7.960   8.578
    2CHTO    C3  812   3.932   7.890   8.793
    2CHTO   H16  813   3.858   7.816   8.828
    2CHTO    N1  814   3.878   8.026   8.827
    2CHTO    H8  815   3.947   8.081   8.890
    2CHTO    H9  816   3.783   8.018   8.877
    2CHTO    C4  817   4.066   7.855   8.869
    2CHTO   H17  818   4.140   7.932   8.847
    2CHTO    O1  819   4.114   7.726   8.831
    2CHTO    C5  820   4.146   7.712   8.692
    2CHTO   H18  821   4.221   7.785   8.663
    2CHTO   C16  822   4.205   7.570   8.673
    2CHTO   O11  823   4.332   7.557   8.738
    2CHTO    H5  824   4.366   7.471   8.724
    2CHTO    O3  825   4.044   7.845   9.011
    2CHTO    C6  826   4.163   7.868   9.094
    2CHTO   H19  827   4.256   7.865   9.036
    2CHTO    C8  828   4.153   8.008   9.162
    2CHTO   H21  829   4.055   8.016   9.210
    2CHTO    O7  830   4.163   8.106   9.057
    2CHTO    H2  831   4.148   8.192   9.092
    2CHTO   C12  832   4.266   8.026   9.272
    2CHTO   H25  833   4.363   8.030   9.217
    2CHTO    N3  834   4.251   8.157   9.344
    2CHTO   H12  835   4.330   8.169   9.416
    2CHTO   H13  836   4.155   8.162   9.393
    2CHTO   C15  837   4.267   7.902   9.367
    2CHTO   H28  838   4.176   7.895   9.426
    2CHTO   O10  839   4.389   7.898   9.461
    2CHTO    H4  840   4.379   7.829   9.523
    2CHTO    O5  841   4.284   7.782   9.290
    2CHTO   C10  842   4.174   7.755   9.202
    2CHTO   H23  843   4.082   7.750   9.260
    2CHTO   C17  844   4.200   7.616   9.142
    2CHTO   O12  845   4.085   7.563   9.074
    2CHTO    H6  846   4.069   7.613   8.996
    3CHTO  H203  847   5.927   3.522   4.850
    3CHTO   O82  848   5.851   3.504   4.902
    3CHTO  C123  849   5.764   3.411   4.836
    3CHTO  H227  850   5.679   3.389   4.902
    3CHTO   O77  851   5.718   3.484   4.718
    3CHTO  C118  852   5.619   3.415   4.641
    3CHTO  H222  853   5.533   3.389   4.706
    3CHTO  C125  854   5.568   3.509   4.526
    3CHTO   O84  855   5.489   3.617   4.576
    3CHTO  H205  856   5.544   3.677   4.625
    3CHTO  C114  857   5.679   3.286   4.583
    3CHTO  H218  858   5.761   3.313   4.516
    3CHTO  C116  859   5.741   3.195   4.694
    3CHTO  H220  860   5.659   3.150   4.754
    3CHTO   O79  861   5.810   3.085   4.632
    3CHTO  H201  862   5.882   3.116   4.580
    3CHTO  C120  863   5.837   3.278   4.789
    3CHTO  H224  864   5.926   3.304   4.729
    3CHTO   N21  865   5.883   3.198   4.905
    3CHTO  H211  866   5.891   3.093   4.879
    3CHTO  H212  867   5.978   3.235   4.941
    3CHTO   O75  868   5.571   3.225   4.510
    3CHTO  C112  869   5.613   3.127   4.383
    3CHTO  H216  870   5.637   3.027   4.422
    3CHTO   O73  871   5.726   3.187   4.316
    3CHTO  C113  872   5.773   3.113   4.203
    3CHTO  H217  873   5.794   3.008   4.234
    3CHTO  C124  874   5.906   3.173   4.156
    3CHTO   O83  875   6.008   3.164   4.256
    3CHTO  H204  876   6.033   3.075   4.269
    3CHTO  C109  877   5.664   3.115   4.093
    3CHTO  H213  878   5.643   3.221   4.070
    3CHTO  C110  879   5.536   3.047   4.150
    3CHTO  H214  880   5.557   2.941   4.169
    3CHTO   O78  881   5.433   3.053   4.050
    3CHTO  H200  882   5.357   3.006   4.078
    3CHTO  C111  883   5.492   3.116   4.283
    3CHTO  H215  884   5.461   3.219   4.259
    3CHTO   N19  885   5.376   3.052   4.350
    3CHTO  H207  886   5.294   3.122   4.360
    3CHTO  H208  887   5.342   2.965   4.296
    3CHTO   O74  888   5.709   3.047   3.971
    3CHTO  C115  889   5.726   3.147   3.844
    3CHTO  H219  890   5.713   3.251   3.872
    3CHTO   O76  891   5.870   3.139   3.782
    3CHTO  C122  892   5.908   3.007   3.741
    3CHTO  H226  893   5.941   2.953   3.831
    3CHTO  C126  894   6.035   3.018   3.650
    3CHTO   O85  895   6.011   3.095   3.531
    3CHTO  H206  896   6.090   3.099   3.480
    3CHTO  C121  897   5.791   2.926   3.669
    3CHTO  H225  898   5.834   2.873   3.581
    3CHTO   O81  899   5.742   2.824   3.757
    3CHTO  H202  900   5.681   2.769   3.712
    3CHTO  C119  901   5.679   3.023   3.619
    3CHTO  H223  902   5.733   3.093   3.555
    3CHTO  C117  903   5.615   3.106   3.737
    3CHTO  H221  904   5.541   3.052   3.796
    3CHTO   N20  905   5.543   3.226   3.683
    3CHTO  H209  906   5.612   3.293   3.636
    3CHTO  H210  907   5.490   3.277   3.763
    3CHTO   O80  908   5.577   2.958   3.516
    3CHTO  C103  909   5.482   2.840   3.560
    3CHTO  H190  910   5.521   2.789   3.648
    3CHTO  C101  911   5.330   2.878   3.585
    3CHTO  H188  912   5.295   2.940   3.503
    3CHTO   O68  913   5.320   2.959   3.716
    3CHTO  H168  914   5.368   3.039   3.708
    3CHTO   C99  915   5.238   2.746   3.592
    3CHTO  H186  916   5.265   2.688   3.681
    3CHTO   N17  917   5.091   2.775   3.604
    3CHTO  H174  918   5.072   2.836   3.691
    3CHTO  H175  919   5.056   2.825   3.514
    3CHTO   C97  920   5.268   2.654   3.470
    3CHTO  H184  921   5.234   2.706   3.379
    3CHTO   O64  922   5.408   2.624   3.466
    3CHTO  C104  923   5.491   2.738   3.439
    3CHTO  H191  924   5.460   2.789   3.348
    3CHTO  C108  925   5.635   2.691   3.416
    3CHTO   O71  926   5.644   2.606   3.302
    3CHTO  H171  927   5.733   2.578   3.290
    3CHTO   O62  928   5.204   2.525   3.482
    3CHTO   C91  929   5.183   2.453   3.359
    3CHTO  H178  930   5.154   2.527   3.283
    3CHTO   C92  931   5.058   2.362   3.379
    3CHTO  H179  932   5.065   2.311   3.476
    3CHTO   O66  933   4.943   2.449   3.389
    3CHTO  H166  934   4.928   2.494   3.308
    3CHTO   C93  935   5.045   2.256   3.263
    3CHTO  H180  936   5.042   2.312   3.168
    3CHTO   N16  937   4.921   2.174   3.266
    3CHTO  H172  938   4.919   2.106   3.182
    3CHTO  H173  939   4.916   2.119   3.359
    3CHTO   C94  940   5.173   2.164   3.263
    3CHTO  H181  941   5.161   2.079   3.331
    3CHTO   O61  942   5.293   2.228   3.310
    3CHTO   C95  943   5.308   2.371   3.305
    3CHTO  H182  944   5.394   2.399   3.366
    3CHTO  C106  945   5.345   2.416   3.159
    3CHTO   O69  946   5.475   2.370   3.121
    3CHTO  H169  947   5.495   2.398   3.034
    3CHTO   O63  948   5.197   2.109   3.112
    3CHTO   C96  949   5.291   1.975   3.098
    3CHTO  H183  950   5.253   1.918   3.013
    3CHTO   C98  951   5.293   1.878   3.220
    3CHTO  H185  952   5.327   1.933   3.309
    3CHTO   O67  953   5.159   1.836   3.250
    3CHTO  H167  954   5.122   1.788   3.177
    3CHTO  C102  955   5.386   1.749   3.196
    3CHTO  H189  956   5.321   1.675   3.147
    3CHTO   N18  957   5.433   1.683   3.320
    3CHTO  H176  958   5.492   1.596   3.296
    3CHTO  H177  959   5.493   1.752   3.378
    3CHTO  C105  960   5.502   1.781   3.096
    3CHTO  H192  961   5.590   1.723   3.122
    3CHTO   O65  962   5.540   1.920   3.099
    3CHTO  C100  963   5.440   2.019   3.065
    3CHTO  H187  964   5.463   2.108   3.126
    3CHTO  C107  965   5.459   2.059   2.916
    3CHTO   O70  966   5.372   2.167   2.878
    3CHTO  H170  967   5.399   2.246   2.921
    3CHTO   O57  968   5.449   1.736   2.951
    3CHTO   C85  969   5.444   1.606   2.889
    3CHTO  H157  970   5.523   1.610   2.813
    3CHTO   C83  971   5.309   1.600   2.810
    3CHTO  H155  972   5.314   1.675   2.731
    3CHTO   O56  973   5.200   1.642   2.896
    3CHTO  H135  974   5.188   1.579   2.965
    3CHTO   C81  975   5.289   1.461   2.745
    3CHTO  H153  976   5.374   1.440   2.682
    3CHTO   N14  977   5.172   1.454   2.654
    3CHTO  H141  978   5.182   1.529   2.577
    3CHTO  H142  979   5.082   1.472   2.708
    3CHTO   C79  980   5.284   1.352   2.858
    3CHTO  H151  981   5.271   1.255   2.809
    3CHTO   O52  982   5.413   1.348   2.926
    3CHTO   C86  983   5.458   1.476   2.983
    3CHTO  H158  984   5.397   1.486   3.074
    3CHTO   C90  985   5.604   1.456   3.031
    3CHTO   O60  986   5.691   1.416   2.925
    3CHTO  H138  987   5.702   1.488   2.865
    3CHTO   O50  988   5.179   1.370   2.954
    3CHTO   C73  989   5.083   1.292   3.026
    3CHTO  H145  990   5.122   1.191   3.045
    3CHTO   C74  991   4.951   1.281   2.943
    3CHTO  H146  992   4.977   1.237   2.846
    3CHTO   O54  993   4.864   1.186   3.008
    3CHTO  H133  994   4.900   1.099   3.003
    3CHTO   C75  995   4.887   1.425   2.929
    3CHTO  H147  996   4.958   1.490   2.876
    3CHTO   N13  997   4.763   1.427   2.847
    3CHTO  H139  998   4.689   1.362   2.890
    3CHTO  H140  999   4.785   1.393   2.746
    3CHTO   C76 1000   4.865   1.486   3.075
    3CHTO  H148 1001   4.795   1.421   3.129
    3CHTO   O49 1002   4.992   1.490   3.146
    3CHTO   C77 1003   5.054   1.361   3.163
    3CHTO  H149 1004   4.989   1.296   3.222
    3CHTO   C88 1005   5.183   1.379   3.245
    3CHTO   O58 1006   5.156   1.448   3.373
    3CHTO  H136 1007   5.236   1.459   3.420
    3CHTO   O51 1008   4.818   1.639   3.072
    3CHTO   C78 1009   4.696   1.669   3.175
    3CHTO  H150 1010   4.660   1.576   3.224
    3CHTO   C80 1011   4.579   1.733   3.096
    3CHTO  H152 1012   4.619   1.820   3.039
    3CHTO   O55 1013   4.533   1.634   3.003
    3CHTO  H134 1014   4.596   1.622   2.934
    3CHTO   C84 1015   4.462   1.781   3.191
    3CHTO  H156 1016   4.419   1.693   3.238
    3CHTO   N15 1017   4.352   1.851   3.117
    3CHTO  H143 1018   4.275   1.880   3.185
    3CHTO  H144 1019   4.310   1.785   3.043
    3CHTO   C87 1020   4.521   1.871   3.302
    3CHTO  H159 1021   4.559   1.964   3.259
    3CHTO   O53 1022   4.635   1.795   3.374
    3CHTO   C82 1023   4.745   1.764   3.286
    3CHTO  H154 1024   4.787   1.855   3.244
    3CHTO   C89 1025   4.856   1.697   3.370
    3CHTO   O59 1026   4.908   1.786   3.470
    3CHTO  H137 1027   4.974   1.742   3.519
    3CHTO   O45 1028   4.408   1.907   3.416
    3CHTO   C67 1029   4.451   2.013   3.504
    3CHTO  H124 1030   4.559   2.019   3.501
    3CHTO   C65 1031   4.391   2.151   3.459
    3CHTO  H122 1032   4.297   2.129   3.409
    3CHTO   O44 1033   4.483   2.205   3.362
    3CHTO  H102 1034   4.561   2.236   3.405
    3CHTO   C63 1035   4.350   2.243   3.581
    3CHTO  H120 1036   4.256   2.207   3.621
    3CHTO   N11 1037   4.315   2.386   3.548
    3CHTO  H108 1038   4.242   2.388   3.470
    3CHTO  H109 1039   4.275   2.434   3.635
    3CHTO   C61 1040   4.456   2.227   3.697
    3CHTO  H118 1041   4.417   2.284   3.783
    3CHTO   O40 1042   4.470   2.088   3.741
    3CHTO   C68 1043   4.415   1.983   3.655
    3CHTO  H125 1044   4.305   1.981   3.667
    3CHTO   C72 1045   4.468   1.846   3.703
    3CHTO   O48 1046   4.610   1.833   3.697
    3CHTO  H105 1047   4.650   1.891   3.759
    3CHTO   O38 1048   4.586   2.278   3.659
    3CHTO   C55 1049   4.677   2.303   3.768
    3CHTO  H112 1050   4.651   2.240   3.854
    3CHTO   C56 1051   4.679   2.458   3.805
    3CHTO  H113 1052   4.703   2.514   3.713
    3CHTO   O42 1053   4.546   2.499   3.844
    3CHTO  H100 1054   4.543   2.592   3.856
    3CHTO   C57 1055   4.785   2.487   3.919
    3CHTO  H114 1056   4.751   2.436   4.009
    3CHTO   N10 1057   4.800   2.631   3.952
    3CHTO  H106 1058   4.729   2.658   4.029
    3CHTO  H107 1059   4.899   2.653   3.987
    3CHTO   C58 1060   4.921   2.426   3.876
    3CHTO  H115 1061   4.961   2.483   3.788
    3CHTO   O37 1062   4.907   2.288   3.841
    3CHTO   C59 1063   4.822   2.262   3.728
    3CHTO  H116 1064   4.857   2.318   3.641
    3CHTO   C70 1065   4.835   2.112   3.699
    3CHTO   O46 1066   4.784   2.075   3.571
    3CHTO  H103 1067   4.840   2.110   3.503
    3CHTO   O39 1068   5.031   2.428   3.999
    3CHTO   C60 1069   5.166   2.419   3.950
    3CHTO  H117 1070   5.166   2.404   3.842
    3CHTO   C62 1071   5.245   2.549   3.980
    3CHTO  H119 1072   5.185   2.632   3.935
    3CHTO   O43 1073   5.251   2.571   4.123
    3CHTO  H101 1074   5.299   2.503   4.164
    3CHTO   C66 1075   5.388   2.543   3.908
    3CHTO  H123 1076   5.372   2.536   3.801
    3CHTO   N12 1077   5.467   2.667   3.926
    3CHTO  H110 1078   5.561   2.658   3.874
    3CHTO  H111 1079   5.484   2.685   4.032
    3CHTO   C69 1080   5.467   2.415   3.951
    3CHTO  H126 1081   5.507   2.427   4.054
    3CHTO   O41 1082   5.375   2.285   3.945
    3CHTO   C64 1083   5.242   2.298   4.011
    3CHTO  H121 1084   5.256   2.315   4.120
    3CHTO   C71 1085   5.164   2.165   3.994
    3CHTO   O47 1086   5.229   2.059   4.064
    3CHTO  H104 1087   5.179   1.980   4.055
    3CHTO   O34 1088   5.587   2.392   3.854
    3CHTO   C49 1089   5.630   2.396   3.704
    3CHTO   H91 1090   5.627   2.501   3.674
    3CHTO   C47 1091   5.532   2.314   3.618
    3CHTO   H89 1092   5.561   2.332   3.511
    3CHTO   O33 1093   5.398   2.363   3.637
    3CHTO   H70 1094   5.390   2.450   3.604
    3CHTO   C45 1095   5.548   2.158   3.653
    3CHTO   H87 1096   5.534   2.145   3.761
    3CHTO    N8 1097   5.448   2.073   3.582
    3CHTO   H75 1098   5.497   1.995   3.525
    3CHTO   H76 1099   5.381   2.028   3.654
    3CHTO   C43 1100   5.700   2.114   3.623
    3CHTO   H85 1101   5.707   2.011   3.658
    3CHTO   O29 1102   5.792   2.200   3.694
    3CHTO   C50 1103   5.775   2.343   3.687
    3CHTO   H92 1104   5.834   2.384   3.771
    3CHTO   C54 1105   5.845   2.402   3.563
    3CHTO   O36 1106   5.986   2.376   3.563
    3CHTO   H72 1107   6.028   2.424   3.632
    3CHTO   O27 1108   5.730   2.112   3.482
    3CHTO   C37 1109   5.824   2.048   3.394
    3CHTO   H79 1110   5.927   2.077   3.421
    3CHTO   C38 1111   5.815   1.893   3.405
    3CHTO   H80 1112   5.710   1.864   3.391
    3CHTO   O31 1113   5.856   1.855   3.538
    3CHTO   H68 1114   5.840   1.764   3.552
    3CHTO   C39 1115   5.904   1.820   3.297
    3CHTO   H81 1116   6.008   1.837   3.324
    3CHTO    N7 1117   5.883   1.672   3.294
    3CHTO   H73 1118   5.949   1.626   3.221
    3CHTO   H74 1119   5.781   1.649   3.271
    3CHTO   C40 1120   5.884   1.883   3.153
    3CHTO   H82 1121   5.789   1.849   3.110
    3CHTO   O26 1122   5.892   2.027   3.158
    3CHTO   C41 1123   5.796   2.090   3.248
    3CHTO   H83 1124   5.694   2.060   3.221
    3CHTO   C52 1125   5.805   2.243   3.228
    3CHTO   O35 1126   5.769   2.285   3.090
    3CHTO   H71 1127   5.678   2.269   3.074
    3CHTO   O28 1128   5.993   1.849   3.065
    3CHTO   C42 1129   5.972   1.812   2.925
    3CHTO   H84 1130   6.070   1.828   2.880
    3CHTO   C44 1131   5.872   1.899   2.842
    3CHTO   H86 1132   5.773   1.893   2.889
    3CHTO   O32 1133   5.919   2.035   2.851
    3CHTO   H69 1134   5.858   2.093   2.808
    3CHTO   C48 1135   5.858   1.849   2.692
    3CHTO   H90 1136   5.955   1.863   2.643
    3CHTO    N9 1137   5.759   1.929   2.613
    3CHTO   H77 1138   5.717   2.009   2.673
    3CHTO   H78 1139   5.805   1.969   2.524
    3CHTO   C51 1140   5.825   1.695   2.691
    3CHTO   H93 1141   5.729   1.680   2.740
    3CHTO   O30 1142   5.931   1.628   2.760
    3CHTO   C46 1143   5.939   1.661   2.907
    3CHTO   H88 1144   5.842   1.640   2.953
    3CHTO   C53 1145   6.048   1.571   2.969
    3CHTO   O72 1146   6.011   1.432   2.960
    3CHTO  H199 1147   6.078   1.380   3.000
    3CHTO   O22 1148   5.823   1.637   2.558
    3CHTO   C31 1149   5.771   1.501   2.527
    3CHTO   H59 1150   5.795   1.484   2.419
    3CHTO   C29 1151   5.839   1.387   2.606
    3CHTO   H57 1152   5.825   1.410   2.713
    3CHTO   O21 1153   5.980   1.392   2.581
    3CHTO   H37 1154   6.026   1.334   2.638
    3CHTO   C27 1155   5.778   1.244   2.576
    3CHTO   H55 1156   5.809   1.214   2.475
    3CHTO    N5 1157   5.826   1.141   2.672
    3CHTO   H43 1158   5.934   1.137   2.671
    3CHTO   H44 1159   5.786   1.044   2.645
    3CHTO   C25 1160   5.621   1.250   2.576
    3CHTO   H53 1161   5.584   1.266   2.679
    3CHTO   O17 1162   5.575   1.359   2.493
    3CHTO   C32 1163   5.615   1.489   2.539
    3CHTO   H60 1164   5.587   1.501   2.643
    3CHTO   C36 1165   5.538   1.589   2.451
    3CHTO   O25 1166   5.531   1.718   2.512
    3CHTO   H40 1167   5.486   1.777   2.455
    3CHTO   O15 1168   5.560   1.117   2.519
    3CHTO   C19 1169   5.432   1.050   2.536
    3CHTO   H47 1170   5.440   0.961   2.473
    3CHTO   C20 1171   5.404   1.004   2.682
    3CHTO   H48 1172   5.407   1.088   2.753
    3CHTO   O19 1173   5.510   0.913   2.717
    3CHTO   H35 1174   5.503   0.887   2.807
    3CHTO   C21 1175   5.263   0.932   2.696
    3CHTO   H49 1176   5.269   0.835   2.646
    3CHTO    N4 1177   5.227   0.903   2.837
    3CHTO   H41 1178   5.300   0.838   2.882
    3CHTO   H42 1179   5.223   0.995   2.894
    3CHTO   C22 1180   5.152   1.012   2.623
    3CHTO   H50 1181   5.127   1.101   2.681
    3CHTO   O14 1182   5.193   1.051   2.490
    3CHTO   C23 1183   5.311   1.131   2.482
    3CHTO   H51 1184   5.293   1.223   2.541
    3CHTO   C34 1185   5.332   1.173   2.336
    3CHTO   O23 1186   5.226   1.259   2.291
    3CHTO   H38 1187   5.242   1.283   2.202
    3CHTO   O16 1188   5.036   0.930   2.599
    3CHTO   C24 1189   4.895   1.003   2.622
    3CHTO   H52 1190   4.906   1.106   2.655
    3CHTO   C26 1191   4.814   0.924   2.727
    3CHTO   H54 1192   4.807   0.817   2.693
    3CHTO   O20 1193   4.887   0.925   2.851
    3CHTO   H36 1194   4.893   1.012   2.885
    3CHTO   C30 1195   4.669   0.980   2.742
    3CHTO   H58 1196   4.674   1.080   2.787
    3CHTO    N6 1197   4.587   0.897   2.835
    3CHTO   H45 1198   4.579   0.796   2.798
    3CHTO   H46 1199   4.631   0.896   2.933
    3CHTO   C33 1200   4.601   0.997   2.602
    3CHTO   H61 1201   4.581   0.897   2.560
    3CHTO   O18 1202   4.688   1.067   2.512
    3CHTO   C28 1203   4.816   1.007   2.488
    3CHTO   H56 1204   4.804   0.905   2.451
    3CHTO   C35 1205   4.889   1.089   2.379
    3CHTO   O24 1206   4.911   1.226   2.415
    3CHTO   H39 1207   4.954   1.271   2.345
    3CHTO    O9 1208   4.472   1.060   2.612
    3CHTO   C13 1209   4.477   1.224   2.630
    3CHTO   H26 1210   4.578   1.252   2.667
    3CHTO   C11 1211   4.363   1.269   2.731
    3CHTO   H24 1212   4.381   1.219   2.827
    3CHTO    O8 1213   4.236   1.223   2.681
    3CHTO    H3 1214   4.232   1.129   2.682
    3CHTO    C9 1215   4.374   1.423   2.751
    3CHTO   H22 1216   4.469   1.438   2.804
    3CHTO    N2 1217   4.274   1.478   2.846
    3CHTO   H10 1218   4.321   1.506   2.939
    3CHTO   H11 1219   4.194   1.407   2.863
    3CHTO    C7 1220   4.387   1.498   2.611
    3CHTO   H20 1221   4.493   1.531   2.611
    3CHTO    O4 1222   4.365   1.410   2.499
    3CHTO   C14 1223   4.460   1.301   2.491
    3CHTO   H27 1224   4.558   1.345   2.463
    3CHTO   C18 1225   4.417   1.210   2.373
    3CHTO   O13 1226   4.289   1.150   2.394
    3CHTO    H7 1227   4.266   1.096   2.321
    3CHTO    O2 1228   4.291   1.631   2.591
    3CHTO    C1 1229   4.364   1.746   2.545
    3CHTO   H14 1230   4.463   1.715   2.504
    3CHTO    C2 1231   4.387   1.854   2.657
    3CHTO   H15 1232   4.288   1.878   2.699
    3CHTO    O6 1233   4.470   1.797   2.760
    3CHTO    H1 1234   4.422   1.730   2.806
    3CHTO    C3 1235   4.455   1.986   2.597
    3CHTO   H16 1236   4.558   1.962   2.568
    3CHTO    N1 1237   4.463   2.097   2.698
    3CHTO    H8 1238   4.521   2.065   2.783
    3CHTO    H9 1239   4.509   2.184   2.654
    3CHTO    C4 1240   4.383   2.032   2.464
    3CHTO   H17 1241   4.286   2.077   2.490
    3CHTO    O1 1242   4.364   1.921   2.374
    3CHTO    C5 1243   4.288   1.811   2.426
    3CHTO   H18 1244   4.191   1.846   2.462
    3CHTO   C16 1245   4.265   1.710   2.311
    3CHTO   O11 1246   4.186   1.766   2.206
    3CHTO    H5 1247   4.236   1.831   2.159
    3CHTO    O3 1248   4.465   2.124   2.389
    3CHTO    C6 1249   4.395   2.229   2.315
    3CHTO   H19 1250   4.286   2.220   2.320
    3CHTO    C8 1251   4.435   2.369   2.369
    3CHTO   H21 1252   4.544   2.379   2.365
    3CHTO    O7 1253   4.392   2.376   2.506
    3CHTO    H2 1254   4.422   2.456   2.546
    3CHTO   C12 1255   4.369   2.483   2.281
    3CHTO   H25 1256   4.260   2.475   2.296
    3CHTO    N3 1257   4.409   2.621   2.326
    3CHTO   H12 1258   4.322   2.677   2.356
    3CHTO   H13 1259   4.481   2.617   2.407
    3CHTO   C15 1260   4.401   2.458   2.129
    3CHTO   H28 1261   4.506   2.476   2.106
    3CHTO   O10 1262   4.312   2.545   2.033
    3CHTO    H4 1263   4.221   2.533   2.053
    3CHTO    O5 1264   4.365   2.324   2.090
    3CHTO   C10 1265   4.434   2.222   2.164
    3CHTO   H23 1266   4.541   2.238   2.153
    3CHTO   C17 1267   4.403   2.087   2.098
    3CHTO   O12 1268   4.264   2.054   2.102
    3CHTO    H6 1269   4.215   2.113   2.047
    4CHTO  H203 1270   5.487   8.256   1.386
    4CHTO   O82 1271   5.542   8.259   1.462
    4CHTO  C123 1272   5.675   8.217   1.428
    4CHTO  H227 1273   5.669   8.126   1.366
    4CHTO   O77 1274   5.727   8.328   1.348
    4CHTO  C118 1275   5.859   8.308   1.296
    4CHTO  H222 1276   5.860   8.215   1.236
    4CHTO  C125 1277   5.895   8.429   1.202
    4CHTO   O84 1278   5.894   8.554   1.272
    4CHTO  H205 1279   5.915   8.623   1.212
    4CHTO  C114 1280   5.959   8.293   1.413
    4CHTO  H218 1281   5.957   8.384   1.472
    4CHTO  C116 1282   5.917   8.175   1.506
    4CHTO  H220 1283   5.927   8.079   1.450
    4CHTO   O79 1284   6.011   8.168   1.615
    4CHTO  H201 1285   6.005   8.245   1.669
    4CHTO  C120 1286   5.767   8.194   1.554
    4CHTO  H224 1287   5.766   8.285   1.618
    4CHTO   N21 1288   5.721   8.081   1.638
    4CHTO  H211 1289   5.679   8.002   1.577
    4CHTO  H212 1290   5.648   8.115   1.710
    4CHTO   O75 1291   6.088   8.275   1.351
    4CHTO  C112 1292   6.208   8.363   1.422
    4CHTO  H216 1293   6.192   8.364   1.531
    4CHTO   O73 1294   6.202   8.495   1.366
    4CHTO  C113 1295   6.300   8.586   1.420
    4CHTO  H217 1296   6.288   8.592   1.530
    4CHTO  C124 1297   6.272   8.726   1.363
    4CHTO   O83 1298   6.143   8.776   1.399
    4CHTO  H204 1299   6.130   8.861   1.361
    4CHTO  C109 1300   6.443   8.537   1.384
    4CHTO  H213 1301   6.451   8.538   1.274
    4CHTO  C110 1302   6.463   8.392   1.438
    4CHTO  H214 1303   6.466   8.396   1.547
    4CHTO   O78 1304   6.592   8.345   1.392
    4CHTO  H200 1305   6.612   8.262   1.431
    4CHTO  C111 1306   6.348   8.298   1.391
    4CHTO  H215 1307   6.355   8.286   1.282
    4CHTO   N19 1308   6.356   8.161   1.449
    4CHTO  H207 1309   6.276   8.100   1.411
    4CHTO  H208 1310   6.351   8.166   1.557
    4CHTO   O74 1311   6.544   8.626   1.441
    4CHTO  C115 1312   6.634   8.706   1.333
    4CHTO  H219 1313   6.624   8.664   1.233
    4CHTO   O76 1314   6.585   8.858   1.318
    4CHTO  C122 1315   6.636   8.939   1.424
    4CHTO  H226 1316   6.606   8.894   1.518
    4CHTO  C126 1317   6.568   9.080   1.421
    4CHTO   O85 1318   6.430   9.073   1.456
    4CHTO  H206 1319   6.420   9.051   1.546
    4CHTO  C121 1320   6.794   8.951   1.418
    4CHTO  H225 1321   6.821   9.046   1.367
    4CHTO   O81 1322   6.843   8.955   1.553
    4CHTO  H202 1323   6.935   8.977   1.553
    4CHTO  C119 1324   6.858   8.832   1.340
    4CHTO  H223 1325   6.836   8.851   1.235
    4CHTO  C117 1326   6.786   8.697   1.378
    4CHTO  H221 1327   6.782   8.676   1.485
    4CHTO   N20 1328   6.853   8.577   1.318
    4CHTO  H209 1329   6.784   8.520   1.256
    4CHTO  H210 1330   6.940   8.605   1.260
    4CHTO   O80 1331   7.020   8.834   1.339
    4CHTO  C103 1332   7.097   8.965   1.297
    4CHTO  H190 1333   7.027   9.042   1.262
    4CHTO  C101 1334   7.189   9.026   1.410
    4CHTO  H188 1335   7.248   8.945   1.454
    4CHTO   O68 1336   7.099   9.087   1.521
    4CHTO  H168 1337   7.046   9.019   1.559
    4CHTO   C99 1338   7.290   9.135   1.352
    4CHTO  H186 1339   7.232   9.222   1.314
    4CHTO   N17 1340   7.388   9.188   1.454
    4CHTO  H174 1341   7.451   9.108   1.489
    4CHTO  H175 1342   7.334   9.234   1.535
    4CHTO   C97 1343   7.364   9.077   1.228
    4CHTO  H184 1344   7.427   8.993   1.261
    4CHTO   O64 1345   7.267   9.035   1.130
    4CHTO  C104 1346   7.186   8.924   1.172
    4CHTO  H191 1347   7.247   8.837   1.198
    4CHTO  C108 1348   7.102   8.883   1.049
    4CHTO   O71 1349   7.038   8.756   1.065
    4CHTO  H171 1350   6.970   8.763   1.130
    4CHTO   O62 1351   7.443   9.177   1.160
    4CHTO   C91 1352   7.551   9.129   1.077
    4CHTO  H178 1353   7.580   9.030   1.111
    4CHTO   C92 1354   7.676   9.221   1.102
    4CHTO  H179 1355   7.696   9.227   1.210
    4CHTO   O66 1356   7.790   9.156   1.045
    4CHTO  H166 1357   7.869   9.202   1.067
    4CHTO   C93 1358   7.661   9.364   1.036
    4CHTO  H180 1359   7.763   9.403   1.022
    4CHTO   N16 1360   7.593   9.462   1.124
    4CHTO  H172 1361   7.493   9.428   1.146
    4CHTO  H173 1362   7.591   9.559   1.077
    4CHTO   C94 1363   7.591   9.354   0.895
    4CHTO  H181 1364   7.485   9.383   0.899
    4CHTO   O61 1365   7.593   9.219   0.844
    4CHTO   C95 1366   7.515   9.126   0.922
    4CHTO  H182 1367   7.410   9.149   0.910
    4CHTO  C106 1368   7.536   8.983   0.860
    4CHTO   O69 1369   7.450   8.886   0.920
    4CHTO  H169 1370   7.361   8.902   0.895
    4CHTO   O63 1371   7.668   9.447   0.794
    4CHTO   C96 1372   7.576   9.498   0.676
    4CHTO  H183 1373   7.472   9.482   0.704
    4CHTO   C98 1374   7.600   9.429   0.540
    4CHTO  H185 1375   7.704   9.444   0.507
    4CHTO   O67 1376   7.585   9.287   0.559
    4CHTO  H167 1377   7.607   9.242   0.480
    4CHTO  C102 1378   7.497   9.484   0.430
    4CHTO  H189 1379   7.398   9.447   0.461
    4CHTO   N18 1380   7.519   9.430   0.293
    4CHTO  H176 1381   7.543   9.509   0.223
    4CHTO  H177 1382   7.432   9.377   0.259
    4CHTO  C105 1383   7.490   9.640   0.432
    4CHTO  H192 1384   7.568   9.680   0.367
    4CHTO   O65 1385   7.504   9.705   0.560
    4CHTO  C100 1386   7.597   9.652   0.655
    4CHTO  H187 1387   7.699   9.670   0.617
    4CHTO  C107 1388   7.582   9.732   0.787
    4CHTO   O70 1389   7.450   9.721   0.842
    4CHTO  H170 1390   7.443   9.775   0.918
    4CHTO   O57 1391   7.338   9.671   0.368
    4CHTO   C85 1392   7.237   9.742   0.442
    4CHTO  H157 1393   7.285   9.836   0.477
    4CHTO   C83 1394   7.196   9.664   0.572
    4CHTO  H155 1395   7.283   9.656   0.637
    4CHTO   O56 1396   7.159   9.529   0.539
    4CHTO  H135 1397   7.140   9.480   0.617
    4CHTO   C81 1398   7.086   9.746   0.646
    4CHTO  H153 1399   7.124   9.847   0.662
    4CHTO   N14 1400   7.060   9.696   0.784
    4CHTO  H141 1401   6.992   9.762   0.834
    4CHTO  H142 1402   7.017   9.598   0.780
    4CHTO   C79 1403   6.958   9.754   0.556
    4CHTO  H151 1404   6.885   9.816   0.609
    4CHTO   O52 1405   6.990   9.824   0.431
    4CHTO   C86 1406   7.106   9.771   0.357
    4CHTO  H158 1407   7.067   9.678   0.312
    4CHTO   C90 1408   7.139   9.865   0.238
    4CHTO   O60 1409   7.169   9.998   0.282
    4CHTO  H138 1410   7.188   0.052   0.208
    4CHTO   O50 1411   6.897   9.627   0.527
    4CHTO   C73 1412   6.777   9.552   0.502
    4CHTO  H145 1413   6.709   9.611   0.439
    4CHTO   C74 1414   6.704   9.517   0.635
    4CHTO  H146 1415   6.684   9.612   0.687
    4CHTO   O54 1416   6.576   9.460   0.604
    4CHTO  H133 1417   6.586   9.378   0.560
    4CHTO   C75 1418   6.797   9.422   0.721
    4CHTO  H147 1419   6.889   9.476   0.745
    4CHTO   N13 1420   6.739   9.385   0.852
    4CHTO  H139 1421   6.721   9.473   0.911
    4CHTO  H140 1422   6.808   9.321   0.906
    4CHTO   C76 1423   6.839   9.295   0.634
    4CHTO  H148 1424   6.749   9.236   0.615
    4CHTO   O49 1425   6.899   9.336   0.506
    4CHTO   C77 1426   6.813   9.420   0.427
    4CHTO  H149 1427   6.721   9.367   0.403
    4CHTO   C88 1428   6.880   9.450   0.292
    4CHTO   O58 1429   6.898   9.328   0.211
    4CHTO  H136 1430   6.961   9.272   0.251
    4CHTO   O51 1431   6.953   9.210   0.713
    4CHTO   C78 1432   7.017   9.088   0.633
    4CHTO  H150 1433   7.027   9.112   0.525
    4CHTO   C80 1434   6.931   8.960   0.648
    4CHTO  H152 1435   6.914   8.942   0.757
    4CHTO   O55 1436   6.803   8.988   0.587
    4CHTO  H134 1437   6.744   8.916   0.601
    4CHTO   C84 1438   7.002   8.835   0.584
    4CHTO  H156 1439   7.013   8.854   0.477
    4CHTO   N15 1440   6.921   8.709   0.598
    4CHTO  H143 1441   6.972   8.635   0.656
    4CHTO  H144 1442   6.899   8.668   0.501
    4CHTO   C87 1443   7.144   8.821   0.645
    4CHTO  H159 1444   7.136   8.799   0.752
    4CHTO   O53 1445   7.222   8.955   0.622
    4CHTO   C82 1446   7.158   9.065   0.690
    4CHTO  H154 1447   7.152   9.042   0.796
    4CHTO   C89 1448   7.245   9.193   0.676
    4CHTO   O59 1449   7.271   9.230   0.540
    4CHTO  H137 1450   7.191   9.256   0.498
    4CHTO   O45 1451   7.227   8.702   0.574
    4CHTO   C67 1452   7.350   8.667   0.641
    4CHTO  H124 1453   7.397   8.756   0.683
    4CHTO   C65 1454   7.325   8.564   0.755
    4CHTO  H122 1455   7.244   8.605   0.815
    4CHTO   O44 1456   7.443   8.552   0.837
    4CHTO  H102 1457   7.424   8.498   0.912
    4CHTO   C63 1458   7.270   8.430   0.693
    4CHTO  H120 1459   7.179   8.453   0.638
    4CHTO   N11 1460   7.219   8.329   0.792
    4CHTO  H108 1461   7.248   8.356   0.892
    4CHTO  H109 1462   7.256   8.231   0.769
    4CHTO   C61 1463   7.371   8.373   0.587
    4CHTO  H118 1464   7.311   8.301   0.528
    4CHTO   O40 1465   7.420   8.473   0.492
    4CHTO   C68 1466   7.450   8.611   0.533
    4CHTO  H125 1467   7.437   8.673   0.443
    4CHTO   C72 1468   7.599   8.623   0.573
    4CHTO   O48 1469   7.641   8.758   0.596
    4CHTO  H105 1470   7.598   8.792   0.672
    4CHTO   O38 1471   7.486   8.304   0.643
    4CHTO   C55 1472   7.529   8.189   0.566
    4CHTO  H112 1473   7.508   8.207   0.459
    4CHTO   C56 1474   7.462   8.055   0.618
    4CHTO  H113 1475   7.485   8.046   0.726
    4CHTO   O42 1476   7.319   8.063   0.608
    4CHTO  H100 1477   7.286   8.130   0.665
    4CHTO   C57 1478   7.518   7.929   0.539
    4CHTO  H114 1479   7.483   7.939   0.436
    4CHTO   N10 1480   7.467   7.799   0.591
    4CHTO  H106 1481   7.464   7.726   0.512
    4CHTO  H107 1482   7.530   7.762   0.671
    4CHTO   C58 1483   7.673   7.933   0.540
    4CHTO  H115 1484   7.709   7.919   0.645
    4CHTO   O37 1485   7.722   8.060   0.493
    4CHTO   C59 1486   7.684   8.172   0.575
    4CHTO  H116 1487   7.715   8.156   0.678
    4CHTO   C70 1488   7.757   8.295   0.521
    4CHTO   O46 1489   7.899   8.284   0.534
    4CHTO  H103 1490   7.940   8.360   0.496
    4CHTO   O39 1491   7.741   7.814   0.444
    4CHTO   C60 1492   7.719   7.817   0.301
    4CHTO  H117 1493   7.615   7.843   0.281
    4CHTO   C62 1494   7.810   7.921   0.228
    4CHTO  H119 1495   7.777   8.022   0.262
    4CHTO   O43 1496   7.947   7.901   0.267
    4CHTO  H101 1497   7.977   7.817   0.239
    4CHTO   C66 1498   7.787   7.912   0.069
    4CHTO  H123 1499   7.681   7.929   0.048
    4CHTO   N12 1500   7.860   8.016  10.075
    4CHTO  H110 1501   7.967   8.008   0.012
    4CHTO  H111 1502   7.824   8.114   0.021
    4CHTO   C69 1503   7.822   7.768   0.022
    4CHTO  H126 1504   7.927   7.744   0.049
    4CHTO   O41 1505   7.726   7.671   0.094
    4CHTO   C64 1506   7.741   7.674   0.245
    4CHTO  H121 1507   7.842   7.639   0.273
    4CHTO   C71 1508   7.638   7.575   0.305
    4CHTO   O47 1509   7.660   7.442   0.257
    4CHTO  H104 1510   7.596   7.385   0.294
    4CHTO   O34 1511   7.805   7.746   9.950
    4CHTO   C49 1512   7.872   7.631   9.866
    4CHTO   H91 1513   7.970   7.667   9.836
    4CHTO   C47 1514   7.785   7.607   9.741
    4CHTO   H89 1515   7.839   7.534   9.677
    4CHTO   O33 1516   7.774   7.731   9.668
    4CHTO   H70 1517   7.857   7.755   9.632
    4CHTO   C45 1518   7.643   7.546   9.788
    4CHTO   H87 1519   7.600   7.614   9.863
    4CHTO    N8 1520   7.546   7.533   9.676
    4CHTO   H75 1521   7.584   7.463   9.603
    4CHTO   H76 1522   7.531   7.630   9.630
    4CHTO   C43 1523   7.668   7.407   9.867
    4CHTO   H85 1524   7.571   7.378   9.907
    4CHTO   O29 1525   7.766   7.425   9.972
    4CHTO   C50 1526   7.887   7.498   9.945
    4CHTO   H92 1527   7.930   7.525  10.043
    4CHTO   C54 1528   7.998   7.409   9.882
    4CHTO   O36 1529   8.051   7.315   9.977
    4CHTO   H72 1530   8.101   7.361  10.042
    4CHTO   O27 1531   7.709   7.299   9.780
    4CHTO   C37 1532   7.688   7.157   9.777
    4CHTO   H79 1533   7.762   7.111   9.709
    4CHTO   C38 1534   7.710   7.092   9.917
    4CHTO   H80 1535   7.648   7.146   9.990
    4CHTO   O31 1536   7.848   7.110   9.951
    4CHTO   H68 1537   7.864   7.081  10.039
    4CHTO   C39 1538   7.672   6.939   9.917
    4CHTO   H81 1539   7.742   6.888   9.851
    4CHTO    N7 1540   7.685   6.874  10.053
    4CHTO   H73 1541   7.621   6.925   0.042
    4CHTO   H74 1542   7.788   6.879   0.004
    4CHTO   C40 1543   7.527   6.918   9.857
    4CHTO   H82 1544   7.451   6.956   9.926
    4CHTO   O26 1545   7.519   6.980   9.728
    4CHTO   C41 1546   7.545   7.124   9.724
    4CHTO   H83 1547   7.470   7.177   9.784
    4CHTO   C52 1548   7.530   7.168   9.576
    4CHTO   O35 1549   7.395   7.143   9.524
    4CHTO   H71 1550   7.391   7.168   9.433
    4CHTO   O28 1551   7.502   6.779   9.829
    4CHTO   C42 1552   7.368   6.719   9.826
    4CHTO   H84 1553   7.388   6.617   9.792
    4CHTO   C44 1554   7.265   6.779   9.724
    4CHTO   H86 1555   7.247   6.883   9.750
    4CHTO   O32 1556   7.327   6.775   9.594
    4CHTO   H69 1557   7.341   6.686   9.566
    4CHTO   C48 1558   7.127   6.701   9.728
    4CHTO   H90 1559   7.145   6.599   9.695
    4CHTO    N9 1560   7.026   6.759   9.631
    4CHTO   H77 1561   6.996   6.684   9.560
    4CHTO   H78 1562   6.940   6.798   9.683
    4CHTO   C51 1563   7.074   6.697   9.876
    4CHTO   H93 1564   7.056   6.799   9.909
    4CHTO   O30 1565   7.173   6.632   9.957
    4CHTO   C46 1566   7.302   6.708   9.967
    4CHTO   H88 1567   7.281   6.809  10.004
    4CHTO   C53 1568   7.392   6.633  10.069
    4CHTO   O72 1569   7.419   6.498  10.028
    4CHTO  H199 1570   7.340   6.447  10.032
    4CHTO   O22 1571   6.955   6.616   9.890
    4CHTO   C31 1572   6.892   6.596  10.022
    4CHTO   H59 1573   6.973   6.602   0.016
    4CHTO   C29 1574   6.787   6.703  10.061
    4CHTO   H57 1575   6.707   6.701   9.985
    4CHTO   O21 1576   6.850   6.832  10.053
    4CHTO   H37 1577   6.785   6.900  10.062
    4CHTO   C27 1578   6.724   6.676   0.122
    4CHTO   H55 1579   6.802   6.693   0.198
    4CHTO    N5 1580   6.610   6.766   0.151
    4CHTO   H43 1581   6.576   6.751   0.253
    4CHTO   H44 1582   6.640   6.869   0.139
    4CHTO   C25 1583   6.682   6.525   0.137
    4CHTO   H53 1584   6.591   6.506   0.077
    4CHTO   O17 1585   6.786   6.434   0.091
    4CHTO   C32 1586   6.829   6.455  10.037
    4CHTO   H60 1587   6.743   6.447   9.970
    4CHTO   C36 1588   6.929   6.342  10.000
    4CHTO   O25 1589   7.044   6.340   0.003
    4CHTO   H40 1590   7.020   6.312   0.089
    4CHTO   O15 1591   6.652   6.490   0.291
    4CHTO   C19 1592   6.722   6.492   0.419
    4CHTO   H47 1593   6.688   6.399   0.468
    4CHTO   C20 1594   6.878   6.488   0.408
    4CHTO   H48 1595   6.917   6.571   0.348
    4CHTO   O19 1596   6.912   6.365   0.341
    4CHTO   H35 1597   7.004   6.362   0.323
    4CHTO   C21 1598   6.947   6.493   0.551
    4CHTO   H49 1599   6.927   6.400   0.603
    4CHTO    N4 1600   7.096   6.504   0.542
    4CHTO   H41 1601   7.123   6.594   0.488
    4CHTO   H42 1602   7.136   6.419   0.491
    4CHTO   C22 1603   6.885   6.607   0.637
    4CHTO   H50 1604   6.916   6.703   0.596
    4CHTO   O14 1605   6.742   6.598   0.640
    4CHTO   C23 1606   6.678   6.609   0.511
    4CHTO   H51 1607   6.707   6.707   0.469
    4CHTO   C34 1608   6.526   6.614   0.532
    4CHTO   O23 1609   6.476   6.497   0.598
    4CHTO   H38 1610   6.383   6.502   0.606
    4CHTO   O16 1611   6.925   6.594   0.775
    4CHTO   C24 1612   6.926   6.731   0.856
    4CHTO   H52 1613   6.864   6.807   0.809
    4CHTO   C26 1614   7.072   6.781   0.866
    4CHTO   H54 1615   7.135   6.697   0.905
    4CHTO   O20 1616   7.117   6.814   0.734
    4CHTO   H36 1617   7.125   6.737   0.681
    4CHTO   C30 1618   7.085   6.902   0.964
    4CHTO   H58 1619   7.034   6.989   0.921
    4CHTO    N6 1620   7.227   6.943   0.983
    4CHTO   H45 1621   7.284   6.860   1.023
    4CHTO   H46 1622   7.270   6.973   0.888
    4CHTO   C33 1623   7.014   6.872   1.099
    4CHTO   H61 1624   7.068   6.792   1.153
    4CHTO   O18 1625   6.879   6.827   1.075
    4CHTO   C28 1626   6.867   6.706   0.998
    4CHTO   H56 1627   6.921   6.625   1.046
    4CHTO   C35 1628   6.716   6.671   0.990
    4CHTO   O24 1629   6.691   6.541   0.936
    4CHTO   H39 1630   6.720   6.475   0.997
    4CHTO    O9 1631   7.016   6.987   1.187
    4CHTO   C13 1632   6.982   6.959   1.341
    4CHTO   H26 1633   7.011   6.854   1.365
    4CHTO   C11 1634   6.827   6.982   1.365
    4CHTO   H24 1635   6.773   6.904   1.310
    4CHTO    O8 1636   6.787   7.109   1.310
    4CHTO    H3 1637   6.694   7.119   1.316
    4CHTO    C9 1638   6.798   6.966   1.516
    4CHTO   H22 1639   6.838   6.868   1.544
    4CHTO    N2 1640   6.653   6.961   1.551
    4CHTO   H10 1641   6.627   6.863   1.588
    4CHTO   H11 1642   6.592   6.987   1.466
    4CHTO    C7 1643   6.876   7.077   1.595
    4CHTO   H20 1644   6.859   7.051   1.702
    4CHTO    O4 1645   7.018   7.070   1.570
    4CHTO   C14 1646   7.072   7.050   1.438
    4CHTO   H27 1647   7.169   6.997   1.452
    4CHTO   C18 1648   7.106   7.190   1.380
    4CHTO   O13 1649   7.200   7.182   1.272
    4CHTO    H7 1650   7.220   7.268   1.241
    4CHTO    O2 1651   6.821   7.232   1.562
    4CHTO    C1 1652   6.854   7.337   1.655
    4CHTO   H14 1653   6.964   7.338   1.671
    4CHTO    C2 1654   6.781   7.325   1.797
    4CHTO   H15 1655   6.676   7.301   1.774
    4CHTO    O6 1656   6.839   7.217   1.871
    4CHTO    H1 1657   6.790   7.202   1.950
    4CHTO    C3 1658   6.789   7.462   1.882
    4CHTO   H16 1659   6.892   7.475   1.918
    4CHTO    N1 1660   6.700   7.457   2.003
    4CHTO    H8 1661   6.758   7.472   2.093
    4CHTO    H9 1662   6.621   7.531   1.997
    4CHTO    C4 1663   6.760   7.586   1.790
    4CHTO   H17 1664   6.656   7.581   1.757
    4CHTO    O1 1665   6.848   7.582   1.676
    4CHTO    C5 1666   6.817   7.474   1.588
    4CHTO   H18 1667   6.710   7.474   1.570
    4CHTO   C16 1668   6.891   7.502   1.455
    4CHTO   O11 1669   6.841   7.420   1.348
    4CHTO    H5 1670   6.888   7.441   1.269
    4CHTO    O3 1671   6.784   7.712   1.856
    4CHTO    C6 1672   6.722   7.827   1.790
    4CHTO   H19 1673   6.701   7.809   1.685
    4CHTO    C8 1674   6.587   7.866   1.859
    4CHTO   H21 1675   6.607   7.885   1.965
    4CHTO    O7 1676   6.497   7.754   1.846
    4CHTO    H2 1677   6.417   7.771   1.891
    4CHTO   C12 1678   6.530   7.999   1.793
    4CHTO   H25 1679   6.509   7.974   1.687
    4CHTO    N3 1680   6.400   8.040   1.855
    4CHTO   H12 1681   6.413   8.061   1.960
    4CHTO   H13 1682   6.361   8.127   1.803
    4CHTO   C15 1683   6.641   8.110   1.798
    4CHTO   H28 1684   6.662   8.142   1.900
    4CHTO   O10 1685   6.606   8.233   1.713
    4CHTO    H4 1686   6.530   8.275   1.747
    4CHTO    O5 1687   6.761   8.065   1.735
    4CHTO   C10 1688   6.820   7.948   1.796
    4CHTO   H23 1689   6.842   7.972   1.900
    4CHTO   C17 1690   6.954   7.920   1.727
    4CHTO   O12 1691   6.940   7.889   1.588
    4CHTO    H6 1692   6.896   7.806   1.578
    5CHTO  H203 1693   6.936   3.812   4.066
    5CHTO   O82 1694   6.966   3.776   4.147
    5CHTO  C123 1695   7.033   3.876   4.226
    5CHTO  H227 1696   7.104   3.930   4.161
    5CHTO   O77 1697   6.925   3.966   4.266
    5CHTO  C118 1698   6.970   4.081   4.339
    5CHTO  H222 1699   7.047   4.134   4.282
    5CHTO  C125 1700   6.846   4.177   4.359
    5CHTO   O84 1701   6.801   4.229   4.234
    5CHTO  H205 1702   6.760   4.162   4.184
    5CHTO  C114 1703   7.028   4.034   4.473
    5CHTO  H218 1704   6.950   3.981   4.529
    5CHTO  C116 1705   7.146   3.933   4.451
    5CHTO  H220 1706   7.232   3.989   4.407
    5CHTO   O79 1707   7.190   3.884   4.579
    5CHTO  H201 1708   7.122   3.834   4.620
    5CHTO  C120 1709   7.103   3.816   4.353
    5CHTO  H224 1710   7.032   3.753   4.410
    5CHTO   N21 1711   7.219   3.728   4.318
    5CHTO  H211 1712   7.204   3.683   4.221
    5CHTO  H212 1713   7.311   3.785   4.318
    5CHTO   O75 1714   7.070   4.153   4.543
    5CHTO  C112 1715   7.015   4.161   4.696
    5CHTO  H216 1716   7.030   4.063   4.745
    5CHTO   O73 1717   6.875   4.194   4.688
    5CHTO  C113 1718   6.806   4.215   4.811
    5CHTO  H217 1719   6.803   4.120   4.868
    5CHTO  C124 1720   6.661   4.251   4.775
    5CHTO   O83 1721   6.654   4.361   4.684
    5CHTO  H204 1722   6.684   4.334   4.599
    5CHTO  C109 1723   6.873   4.326   4.897
    5CHTO  H213 1724   6.860   4.421   4.842
    5CHTO  C110 1725   7.024   4.295   4.915
    5CHTO  H214 1726   7.035   4.205   4.977
    5CHTO   O78 1727   7.083   4.405   4.987
    5CHTO  H200 1728   7.172   4.386   5.008
    5CHTO  C111 1729   7.092   4.273   4.777
    5CHTO  H215 1730   7.085   4.366   4.719
    5CHTO   N19 1731   7.236   4.239   4.786
    5CHTO  H207 1732   7.278   4.227   4.687
    5CHTO  H208 1733   7.250   4.148   4.841
    5CHTO   O74 1734   6.804   4.336   5.026
    5CHTO  C115 1735   6.757   4.490   5.065
    5CHTO  H219 1736   6.842   4.559   5.070
    5CHTO   O76 1737   6.658   4.552   4.952
    5CHTO  C122 1738   6.592   4.675   4.987
    5CHTO  H226 1739   6.513   4.691   4.914
    5CHTO  C126 1740   6.689   4.798   4.972
    5CHTO   O85 1741   6.728   4.821   4.836
    5CHTO  H206 1742   6.790   4.892   4.833
    5CHTO  C121 1743   6.524   4.669   5.128
    5CHTO  H225 1744   6.485   4.770   5.152
    5CHTO   O81 1745   6.411   4.582   5.120
    5CHTO  H202 1746   6.438   4.493   5.104
    5CHTO  C119 1747   6.625   4.628   5.239
    5CHTO  H223 1748   6.706   4.701   5.232
    5CHTO  C117 1749   6.688   4.487   5.208
    5CHTO  H221 1750   6.619   4.403   5.204
    5CHTO   N20 1751   6.789   4.451   5.312
    5CHTO  H209 1752   6.831   4.354   5.291
    5CHTO  H210 1753   6.742   4.449   5.410
    5CHTO   O80 1754   6.570   4.656   5.391
    5CHTO  C103 1755   6.421   4.626   5.428
    5CHTO  H190 1756   6.354   4.646   5.345
    5CHTO  C101 1757   6.393   4.480   5.480
    5CHTO  H188 1758   6.468   4.454   5.555
    5CHTO   O68 1759   6.409   4.380   5.360
    5CHTO  H168 1760   6.344   4.396   5.295
    5CHTO   C99 1761   6.248   4.471   5.547
    5CHTO  H186 1762   6.172   4.495   5.470
    5CHTO   N17 1763   6.217   4.334   5.600
    5CHTO  H174 1764   6.115   4.332   5.636
    5CHTO  H175 1765   6.286   4.308   5.678
    5CHTO   C97 1766   6.236   4.582   5.656
    5CHTO  H184 1767   6.316   4.561   5.729
    5CHTO   O64 1768   6.254   4.710   5.593
    5CHTO  C104 1769   6.386   4.731   5.541
    5CHTO  H191 1770   6.460   4.724   5.620
    5CHTO  C108 1771   6.398   4.874   5.485
    5CHTO   O71 1772   6.389   4.972   5.589
    5CHTO  H171 1773   6.301   4.974   5.622
    5CHTO   O62 1774   6.111   4.582   5.730
    5CHTO   C91 1775   5.991   4.644   5.680
    5CHTO  H178 1776   6.018   4.742   5.641
    5CHTO   C92 1777   5.896   4.672   5.803
    5CHTO  H179 1778   5.952   4.727   5.880
    5CHTO   O66 1779   5.793   4.762   5.761
    5CHTO  H166 1780   5.742   4.725   5.692
    5CHTO   C93 1781   5.828   4.541   5.860
    5CHTO  H180 1782   5.730   4.569   5.901
    5CHTO   N16 1783   5.902   4.481   5.973
    5CHTO  H172 1784   5.850   4.393   6.009
    5CHTO  H173 1785   5.912   4.553   6.053
    5CHTO   C94 1786   5.806   4.435   5.745
    5CHTO  H181 1787   5.893   4.369   5.732
    5CHTO   O61 1788   5.788   4.503   5.619
    5CHTO   C95 1789   5.911   4.560   5.569
    5CHTO  H182 1790   5.973   4.479   5.532
    5CHTO  C106 1791   5.876   4.648   5.445
    5CHTO   O69 1792   5.993   4.701   5.382
    5CHTO  H169 1793   6.042   4.631   5.343
    5CHTO   O63 1794   5.677   4.347   5.775
    5CHTO   C96 1795   5.672   4.220   5.683
    5CHTO  H183 1796   5.715   4.249   5.587
    5CHTO   C98 1797   5.528   4.167   5.655
    5CHTO  H185 1798   5.461   4.251   5.630
    5CHTO   O67 1799   5.531   4.085   5.538
    5CHTO  H167 1800   5.552   4.136   5.462
    5CHTO  C102 1801   5.467   4.081   5.775
    5CHTO  H189 1802   5.378   4.032   5.734
    5CHTO   N18 1803   5.419   4.159   5.892
    5CHTO  H176 1804   5.377   4.093   5.966
    5CHTO  H177 1805   5.500   4.216   5.935
    5CHTO  C105 1806   5.568   3.970   5.816
    5CHTO  H192 1807   5.535   3.924   5.909
    5CHTO   O65 1808   5.703   4.017   5.839
    5CHTO  C100 1809   5.767   4.109   5.748
    5CHTO  H187 1810   5.843   4.161   5.808
    5CHTO  C107 1811   5.845   4.028   5.641
    5CHTO   O70 1812   5.927   4.113   5.560
    5CHTO  H170 1813   5.973   4.061   5.497
    5CHTO   O57 1814   5.556   3.863   5.700
    5CHTO   C85 1815   5.573   3.723   5.729
    5CHTO  H157 1816   5.558   3.710   5.839
    5CHTO   C83 1817   5.720   3.680   5.702
    5CHTO  H155 1818   5.785   3.736   5.771
    5CHTO   O56 1819   5.759   3.720   5.569
    5CHTO  H135 1820   5.708   3.674   5.505
    5CHTO   C81 1821   5.736   3.528   5.730
    5CHTO  H153 1822   5.701   3.509   5.832
    5CHTO   N14 1823   5.878   3.484   5.730
    5CHTO  H141 1824   5.892   3.403   5.661
    5CHTO  H142 1825   5.908   3.453   5.828
    5CHTO   C79 1826   5.643   3.448   5.631
    5CHTO  H151 1827   5.651   3.342   5.658
    5CHTO   O52 1828   5.503   3.486   5.652
    5CHTO   C86 1829   5.476   3.630   5.645
    5CHTO  H158 1830   5.483   3.653   5.537
    5CHTO   C90 1831   5.328   3.657   5.685
    5CHTO   O60 1832   5.300   3.615   5.819
    5CHTO  H138 1833   5.345   3.669   5.880
    5CHTO   O50 1834   5.679   3.462   5.492
    5CHTO   C73 1835   5.654   3.401   5.365
    5CHTO  H145 1836   5.547   3.378   5.355
    5CHTO   C74 1837   5.733   3.268   5.349
    5CHTO  H146 1838   5.703   3.203   5.432
    5CHTO   O54 1839   5.689   3.202   5.228
    5CHTO  H133 1840   5.711   3.253   5.153
    5CHTO   C75 1841   5.888   3.299   5.352
    5CHTO  H147 1842   5.913   3.340   5.451
    5CHTO   N13 1843   5.974   3.178   5.337
    5CHTO  H139 1844   6.078   3.206   5.341
    5CHTO  H140 1845   5.954   3.109   5.417
    5CHTO   C76 1846   5.924   3.412   5.244
    5CHTO  H148 1847   5.912   3.370   5.144
    5CHTO   O49 1848   5.836   3.529   5.259
    5CHTO   C77 1849   5.696   3.498   5.251
    5CHTO  H149 1850   5.674   3.452   5.154
    5CHTO   C88 1851   5.617   3.630   5.253
    5CHTO   O58 1852   5.473   3.607   5.234
    5CHTO  H136 1853   5.428   3.689   5.233
    5CHTO   O51 1854   6.070   3.467   5.271
    5CHTO   C78 1855   6.121   3.577   5.172
    5CHTO  H150 1856   6.036   3.624   5.117
    5CHTO   C80 1857   6.218   3.514   5.070
    5CHTO  H152 1858   6.289   3.447   5.125
    5CHTO   O55 1859   6.140   3.430   4.983
    5CHTO  H134 1860   6.197   3.383   4.925
    5CHTO   C84 1861   6.301   3.622   4.990
    5CHTO  H156 1862   6.232   3.678   4.926
    5CHTO   N15 1863   6.405   3.562   4.899
    5CHTO  H143 1864   6.357   3.500   4.826
    5CHTO  H144 1865   6.473   3.503   4.956
    5CHTO   C87 1866   6.364   3.720   5.092
    5CHTO  H159 1867   6.430   3.664   5.158
    5CHTO   O53 1868   6.251   3.783   5.171
    5CHTO   C82 1869   6.188   3.688   5.257
    5CHTO  H154 1870   6.260   3.646   5.326
    5CHTO   C89 1871   6.085   3.767   5.341
    5CHTO   O59 1872   6.033   3.688   5.449
    5CHTO  H137 1873   5.969   3.739   5.497
    5CHTO   O45 1874   6.448   3.841   5.023
    5CHTO   C67 1875   6.528   3.910   5.121
    5CHTO  H124 1876   6.477   3.906   5.216
    5CHTO   C65 1877   6.670   3.844   5.137
    5CHTO  H122 1878   6.691   3.794   5.043
    5CHTO   O44 1879   6.657   3.745   5.241
    5CHTO  H102 1880   6.648   3.787   5.325
    5CHTO   C63 1881   6.786   3.950   5.154
    5CHTO  H120 1882   6.806   3.996   5.058
    5CHTO   N11 1883   6.922   3.896   5.188
    5CHTO  H108 1884   6.916   3.792   5.212
    5CHTO  H109 1885   6.965   3.949   5.270
    5CHTO   C61 1886   6.735   4.065   5.249
    5CHTO  H118 1887   6.815   4.140   5.254
    5CHTO   O40 1888   6.617   4.132   5.194
    5CHTO   C68 1889   6.542   4.064   5.088
    5CHTO  H125 1890   6.596   4.076   4.993
    5CHTO   C72 1891   6.404   4.133   5.071
    5CHTO   O48 1892   6.321   4.125   5.187
    5CHTO  H105 1893   6.358   4.177   5.256
    5CHTO   O38 1894   6.706   4.014   5.381
    5CHTO   C55 1895   6.676   4.110   5.484
    5CHTO  H112 1896   6.634   4.202   5.440
    5CHTO   C56 1897   6.805   4.139   5.571
    5CHTO  H113 1898   6.842   4.041   5.607
    5CHTO   O42 1899   6.908   4.194   5.488
    5CHTO  H100 1900   6.987   4.205   5.537
    5CHTO   C57 1901   6.769   4.233   5.694
    5CHTO  H114 1902   6.741   4.329   5.652
    5CHTO   N10 1903   6.883   4.256   5.787
    5CHTO  H106 1904   6.886   4.179   5.863
    5CHTO  H107 1905   6.977   4.257   5.733
    5CHTO   C58 1906   6.647   4.173   5.768
    5CHTO  H115 1907   6.675   4.075   5.811
    5CHTO   O37 1908   6.537   4.154   5.677
    5CHTO   C59 1909   6.565   4.054   5.578
    5CHTO  H116 1910   6.598   3.962   5.626
    5CHTO   C70 1911   6.436   4.025   5.501
    5CHTO   O46 1912   6.432   3.891   5.451
    5CHTO  H103 1913   6.351   3.877   5.405
    5CHTO   O39 1914   6.593   4.274   5.887
    5CHTO   C60 1915   6.517   4.206   5.989
    5CHTO  H117 1916   6.442   4.142   5.941
    5CHTO   C62 1917   6.606   4.118   6.082
    5CHTO  H119 1918   6.655   4.042   6.016
    5CHTO   O43 1919   6.709   4.199   6.141
    5CHTO  H101 1920   6.767   4.146   6.192
    5CHTO   C66 1921   6.514   4.041   6.189
    5CHTO  H123 1922   6.438   3.983   6.135
    5CHTO   N12 1923   6.591   3.943   6.269
    5CHTO  H110 1924   6.525   3.891   6.337
    5CHTO  H111 1925   6.670   3.993   6.322
    5CHTO   C69 1926   6.439   4.145   6.276
    5CHTO  H126 1927   6.512   4.205   6.335
    5CHTO   O41 1928   6.356   4.241   6.183
    5CHTO   C64 1929   6.438   4.310   6.075
    5CHTO  H121 1930   6.511   4.378   6.122
    5CHTO   C71 1931   6.344   4.398   5.989
    5CHTO   O47 1932   6.234   4.323   5.937
    5CHTO  H104 1933   6.179   4.380   5.886
    5CHTO   O34 1934   6.339   4.076   6.377
    5CHTO   C49 1935   6.302   4.141   6.512
    5CHTO   H91 1936   6.396   4.156   6.566
    5CHTO   C47 1937   6.212   4.043   6.590
    5CHTO   H89 1938   6.200   4.086   6.692
    5CHTO   O33 1939   6.282   3.917   6.602
    5CHTO   H70 1940   6.233   3.858   6.656
    5CHTO   C45 1941   6.069   4.033   6.517
    5CHTO   H87 1942   6.086   4.003   6.413
    5CHTO    N8 1943   5.980   3.931   6.580
    5CHTO   H75 1944   5.955   3.961   6.681
    5CHTO   H76 1945   5.890   3.921   6.522
    5CHTO   C43 1946   6.003   4.179   6.510
    5CHTO   H85 1947   5.910   4.169   6.454
    5CHTO   O29 1948   6.094   4.270   6.446
    5CHTO   C50 1949   6.230   4.277   6.494
    5CHTO   H92 1950   6.287   4.335   6.420
    5CHTO   C54 1951   6.243   4.364   6.622
    5CHTO   O36 1952   6.189   4.495   6.603
    5CHTO   H72 1953   6.199   4.545   6.682
    5CHTO   O27 1954   5.966   4.232   6.639
    5CHTO   C37 1955   5.878   4.278   6.742
    5CHTO   H79 1956   5.923   4.363   6.796
    5CHTO   C38 1957   5.742   4.329   6.683
    5CHTO   H80 1958   5.706   4.254   6.610
    5CHTO   O31 1959   5.772   4.451   6.612
    5CHTO   H68 1960   5.695   4.482   6.567
    5CHTO   C39 1961   5.632   4.351   6.794
    5CHTO   H81 1962   5.664   4.435   6.856
    5CHTO    N7 1963   5.497   4.387   6.736
    5CHTO   H73 1964   5.464   4.482   6.774
    5CHTO   H74 1965   5.424   4.310   6.757
    5CHTO   C40 1966   5.625   4.225   6.889
    5CHTO   H82 1967   5.591   4.139   6.831
    5CHTO   O26 1968   5.757   4.204   6.942
    5CHTO   C41 1969   5.854   4.163   6.843
    5CHTO   H83 1970   5.818   4.073   6.791
    5CHTO   C52 1971   5.984   4.126   6.919
    5CHTO   O35 1972   5.966   4.008   7.006
    5CHTO   H71 1973   5.906   4.028   7.075
    5CHTO   O28 1974   5.529   4.238   6.997
    5CHTO   C42 1975   5.560   4.226   7.141
    5CHTO   H84 1976   5.461   4.235   7.187
    5CHTO   C44 1977   5.644   4.345   7.198
    5CHTO   H86 1978   5.731   4.361   7.134
    5CHTO   O32 1979   5.561   4.463   7.188
    5CHTO   H69 1980   5.610   4.539   7.212
    5CHTO   C48 1981   5.697   4.320   7.345
    5CHTO   H90 1982   5.612   4.317   7.414
    5CHTO    N9 1983   5.785   4.432   7.393
    5CHTO   H77 1984   5.872   4.441   7.329
    5CHTO   H78 1985   5.816   4.414   7.495
    5CHTO   C51 1986   5.769   4.180   7.345
    5CHTO   H93 1987   5.842   4.181   7.263
    5CHTO   O30 1988   5.666   4.083   7.323
    5CHTO   C46 1989   5.617   4.085   7.180
    5CHTO   H88 1990   5.701   4.060   7.116
    5CHTO   C53 1991   5.507   3.977   7.163
    5CHTO   O72 1992   5.561   3.846   7.181
    5CHTO  H199 1993   5.582   3.831   7.271
    5CHTO   O22 1994   5.833   4.140   7.468
    5CHTO   C31 1995   5.960   4.063   7.462
    5CHTO   H59 1996   5.975   4.024   7.565
    5CHTO   C29 1997   5.954   3.940   7.368
    5CHTO   H57 1998   5.912   3.973   7.272
    5CHTO   O21 1999   5.858   3.848   7.422
    5CHTO   H37 2000   5.891   3.809   7.501
    5CHTO   C27 2001   6.096   3.875   7.340
    5CHTO   H55 2002   6.136   3.836   7.435
    5CHTO    N5 2003   6.091   3.764   7.242
    5CHTO   H43 2004   6.189   3.720   7.231
    5CHTO   H44 2005   6.055   3.800   7.147
    5CHTO   C25 2006   6.191   3.990   7.294
    5CHTO   H53 2007   6.146   4.041   7.206
    5CHTO   O17 2008   6.203   4.085   7.403
    5CHTO   C32 2009   6.083   4.157   7.433
    5CHTO   H60 2010   6.058   4.224   7.350
    5CHTO   C36 2011   6.120   4.242   7.557
    5CHTO   O25 2012   6.015   4.331   7.599
    5CHTO   H40 2013   5.943   4.281   7.632
    5CHTO   O15 2014   6.336   3.941   7.255
    5CHTO   C19 2015   6.441   4.026   7.198
    5CHTO   H47 2016   6.393   4.125   7.190
    5CHTO   C20 2017   6.566   4.039   7.290
    5CHTO   H48 2018   6.608   3.940   7.316
    5CHTO   O19 2019   6.520   4.099   7.413
    5CHTO   H35 2020   6.589   4.100   7.476
    5CHTO   C21 2021   6.680   4.126   7.225
    5CHTO   H49 2022   6.647   4.230   7.223
    5CHTO    N4 2023   6.806   4.124   7.304
    5CHTO   H41 2024   6.844   4.023   7.311
    5CHTO   H42 2025   6.880   4.186   7.258
    5CHTO   C22 2026   6.702   4.083   7.077
    5CHTO   H50 2027   6.749   3.984   7.075
    5CHTO   O14 2028   6.578   4.081   7.005
    5CHTO   C23 2029   6.484   3.985   7.054
    5CHTO   H51 2030   6.531   3.886   7.052
    5CHTO   C34 2031   6.367   3.985   6.955
    5CHTO   O23 2032   6.279   3.873   6.976
    5CHTO   H38 2033   6.207   3.878   6.916
    5CHTO   O16 2034   6.784   4.180   7.008
    5CHTO   C24 2035   6.853   4.127   6.874
    5CHTO   H52 2036   6.799   4.042   6.831
    5CHTO   C26 2037   6.999   4.086   6.904
    5CHTO   H54 2038   7.049   4.170   6.957
    5CHTO   O20 2039   6.995   3.972   6.992
    5CHTO   H36 2040   7.082   3.949   7.019
    5CHTO   C30 2041   7.078   4.057   6.772
    5CHTO   H58 2042   7.036   3.968   6.723
    5CHTO    N6 2043   7.221   4.024   6.801
    5CHTO   H45 2044   7.272   4.002   6.708
    5CHTO   H46 2045   7.269   4.109   6.848
    5CHTO   C33 2046   7.061   4.175   6.672
    5CHTO   H61 2047   7.106   4.266   6.716
    5CHTO   O18 2048   6.921   4.201   6.651
    5CHTO   C28 2049   6.849   4.241   6.768
    5CHTO   H56 2050   6.894   4.330   6.811
    5CHTO   C35 2051   6.703   4.276   6.729
    5CHTO   O24 2052   6.632   4.167   6.668
    5CHTO   H39 2053   6.619   4.098   6.730
    5CHTO    O9 2054   7.131   4.154   6.548
    5CHTO   C13 2055   7.061   4.050   6.445
    5CHTO   H26 2056   6.975   4.001   6.496
    5CHTO   C11 2057   7.169   3.944   6.399
    5CHTO   H24 2058   7.199   3.886   6.489
    5CHTO    O8 2059   7.288   4.009   6.350
    5CHTO    H3 2060   7.269   4.058   6.273
    5CHTO    C9 2061   7.102   3.847   6.298
    5CHTO   H22 2062   7.014   3.807   6.350
    5CHTO    N2 2063   7.183   3.727   6.266
    5CHTO   H10 2064   7.194   3.715   6.159
    5CHTO   H11 2065   7.280   3.731   6.313
    5CHTO    C7 2066   7.054   3.928   6.173
    5CHTO   H20 2067   6.991   3.855   6.118
    5CHTO    O4 2068   6.971   4.041   6.206
    5CHTO   C14 2069   6.998   4.126   6.319
    5CHTO   H27 2070   6.900   4.166   6.351
    5CHTO   C18 2071   7.081   4.248   6.269
    5CHTO   O13 2072   7.083   4.356   6.363
    5CHTO    H7 2073   7.131   4.330   6.440
    5CHTO    O2 2074   7.181   3.977   6.078
    5CHTO    C1 2075   7.149   3.997   5.939
    5CHTO   H14 2076   7.051   4.050   5.931
    5CHTO    C2 2077   7.142   3.864   5.850
    5CHTO   H15 2078   7.238   3.812   5.865
    5CHTO    O6 2079   7.035   3.781   5.896
    5CHTO    H1 2080   7.036   3.699   5.851
    5CHTO    C3 2081   7.122   3.900   5.695
    5CHTO   H16 2082   7.020   3.939   5.682
    5CHTO    N1 2083   7.133   3.779   5.606
    5CHTO    H8 2084   7.116   3.807   5.503
    5CHTO    H9 2085   7.231   3.735   5.616
    5CHTO    C4 2086   7.219   4.016   5.649
    5CHTO   H17 2087   7.320   3.976   5.637
    5CHTO    O1 2088   7.218   4.125   5.742
    5CHTO    C5 2089   7.256   4.091   5.876
    5CHTO   H18 2090   7.351   4.038   5.876
    5CHTO   C16 2091   7.273   4.223   5.954
    5CHTO   O11 2092   7.382   4.301   5.902
    5CHTO    H5 2093   7.391   4.380   5.952
    5CHTO    O3 2094   7.172   4.074   5.525
    5CHTO    C6 2095   7.275   4.138   5.442
    5CHTO   H19 2096   7.372   4.147   5.493
    5CHTO    C8 2097   7.296   4.055   5.312
    5CHTO   H21 2098   7.199   4.043   5.263
    5CHTO    O7 2099   7.346   3.926   5.351
    5CHTO    H2 2100   7.351   3.869   5.277
    5CHTO   C12 2101   7.394   4.130   5.214
    5CHTO   H25 2102   7.493   4.133   5.264
    5CHTO    N3 2103   7.411   4.054   5.085
    5CHTO   H12 2104   7.378   4.113   5.001
    5CHTO   H13 2105   7.515   4.026   5.072
    5CHTO   C15 2106   7.345   4.278   5.193
    5CHTO   H28 2107   7.252   4.282   5.136
    5CHTO   O10 2108   7.450   4.367   5.126
    5CHTO    H4 2109   7.465   4.338   5.039
    5CHTO    O5 2110   7.328   4.345   5.320
    5CHTO   C10 2111   7.230   4.283   5.405
    5CHTO   H23 2112   7.135   4.279   5.353
    5CHTO   C17 2113   7.212   4.372   5.529
    5CHTO   O12 2114   7.157   4.499   5.493
    5CHTO    H6 2115   7.147   4.552   5.570
    6CHTO  H203 2116   6.173   6.044   2.282
    6CHTO   O82 2117   6.203   6.103   2.348
    6CHTO  C123 2118   6.164   6.059   2.479
    6CHTO  H227 2119   6.203   6.130   2.553
    6CHTO   O77 2120   6.018   6.068   2.476
    6CHTO  C118 2121   5.955   6.036   2.602
    6CHTO  H222 2122   5.996   6.101   2.681
    6CHTO  C125 2123   5.801   6.062   2.589
    6CHTO   O84 2124   5.774   6.202   2.571
    6CHTO  H205 2125   5.681   6.216   2.568
    6CHTO  C114 2126   5.982   5.889   2.638
    6CHTO  H218 2127   5.938   5.825   2.561
    6CHTO  C116 2128   6.136   5.859   2.641
    6CHTO  H220 2129   6.180   5.909   2.731
    6CHTO   O79 2130   6.155   5.718   2.661
    6CHTO  H201 2131   6.121   5.669   2.588
    6CHTO  C120 2132   6.208   5.911   2.511
    6CHTO  H224 2133   6.176   5.844   2.429
    6CHTO   N21 2134   6.356   5.898   2.521
    6CHTO  H211 2135   6.399   5.986   2.566
    6CHTO  H212 2136   6.383   5.809   2.576
    6CHTO   O75 2137   5.919   5.869   2.765
    6CHTO  C112 2138   5.837   5.730   2.779
    6CHTO  H216 2139   5.881   5.654   2.712
    6CHTO   O73 2140   5.700   5.758   2.744
    6CHTO  C113 2141   5.612   5.646   2.753
    6CHTO  H217 2142   5.651   5.564   2.687
    6CHTO  C124 2143   5.475   5.687   2.696
    6CHTO   O83 2144   5.415   5.797   2.766
    6CHTO  H204 2145   5.333   5.819   2.725
    6CHTO  C109 2146   5.603   5.595   2.899
    6CHTO  H213 2147   5.560   5.677   2.958
    6CHTO  C110 2148   5.746   5.562   2.952
    6CHTO  H214 2149   5.781   5.471   2.901
    6CHTO   O78 2150   5.737   5.530   3.092
    6CHTO  H200 2151   5.706   5.604   3.141
    6CHTO  C111 2152   5.846   5.679   2.928
    6CHTO  H215 2153   5.817   5.763   2.993
    6CHTO   N19 2154   5.986   5.644   2.963
    6CHTO  H207 2155   6.051   5.729   2.946
    6CHTO  H208 2156   5.992   5.615   3.067
    6CHTO   O74 2157   5.517   5.478   2.910
    6CHTO  C115 2158   5.376   5.504   2.986
    6CHTO  H219 2159   5.346   5.609   2.979
    6CHTO   O76 2160   5.260   5.425   2.920
    6CHTO  C122 2161   5.287   5.284   2.911
    6CHTO  H226 2162   5.355   5.270   2.827
    6CHTO  C126 2163   5.154   5.210   2.871
    6CHTO   O85 2164   5.050   5.228   2.967
    6CHTO  H206 2165   4.972   5.186   2.936
    6CHTO  C121 2166   5.351   5.223   3.043
    6CHTO  H225 2167   5.299   5.128   3.066
    6CHTO   O81 2168   5.488   5.188   3.022
    6CHTO  H202 2169   5.539   5.265   3.003
    6CHTO  C119 2170   5.334   5.319   3.165
    6CHTO  H223 2171   5.226   5.329   3.177
    6CHTO  C117 2172   5.394   5.463   3.137
    6CHTO  H221 2173   5.501   5.470   3.155
    6CHTO   N20 2174   5.333   5.563   3.232
    6CHTO  H209 2175   5.409   5.603   3.298
    6CHTO  H210 2176   5.284   5.643   3.178
    6CHTO   O80 2177   5.378   5.256   3.309
    6CHTO  C103 2178   5.267   5.185   3.406
    6CHTO  H190 2179   5.311   5.167   3.504
    6CHTO  C101 2180   5.132   5.263   3.427
    6CHTO  H188 2181   5.093   5.295   3.330
    6CHTO   O68 2182   5.162   5.386   3.510
    6CHTO  H168 2183   5.217   5.445   3.462
    6CHTO   C99 2184   5.021   5.169   3.495
    6CHTO  H186 2185   5.055   5.144   3.597
    6CHTO   N17 2186   4.887   5.236   3.508
    6CHTO  H174 2187   4.861   5.247   3.612
    6CHTO  H175 2188   4.811   5.181   3.454
    6CHTO   C97 2189   5.013   5.034   3.417
    6CHTO  H184 2190   4.980   5.057   3.315
    6CHTO   O64 2191   5.143   4.971   3.417
    6CHTO  C104 2192   5.241   5.045   3.341
    6CHTO  H191 2193   5.207   5.058   3.239
    6CHTO  C108 2194   5.371   4.964   3.334
    6CHTO   O71 2195   5.353   4.845   3.256
    6CHTO  H171 2196   5.299   4.785   3.303
    6CHTO   O62 2197   4.921   4.936   3.472
    6CHTO   C91 2198   4.937   4.887   3.606
    6CHTO  H178 2199   5.007   4.952   3.658
    6CHTO   C92 2200   5.005   4.746   3.603
    6CHTO  H179 2201   5.084   4.745   3.526
    6CHTO   O66 2202   5.074   4.724   3.726
    6CHTO  H166 2203   5.015   4.727   3.799
    6CHTO   C93 2204   4.905   4.626   3.580
    6CHTO  H180 2205   4.963   4.535   3.599
    6CHTO   N16 2206   4.856   4.612   3.441
    6CHTO  H172 2207   4.899   4.687   3.376
    6CHTO  H173 2208   4.878   4.513   3.403
    6CHTO   C94 2209   4.788   4.633   3.684
    6CHTO  H181 2210   4.706   4.565   3.657
    6CHTO   O61 2211   4.726   4.763   3.694
    6CHTO   C95 2212   4.800   4.888   3.687
    6CHTO  H182 2213   4.736   4.961   3.638
    6CHTO  C106 2214   4.818   4.947   3.832
    6CHTO   O69 2215   4.896   4.863   3.916
    6CHTO  H169 2216   4.904   4.902   4.002
    6CHTO   O63 2217   4.845   4.590   3.824
    6CHTO   C96 2218   4.741   4.513   3.914
    6CHTO  H183 2219   4.658   4.480   3.852
    6CHTO   C98 2220   4.683   4.597   4.031
    6CHTO  H185 2221   4.765   4.645   4.087
    6CHTO   O67 2222   4.607   4.704   3.973
    6CHTO  H167 2223   4.577   4.763   4.041
    6CHTO  C102 2224   4.593   4.508   4.130
    6CHTO  H189 2225   4.505   4.477   4.072
    6CHTO   N18 2226   4.539   4.580   4.248
    6CHTO  H176 2227   4.621   4.618   4.308
    6CHTO  H177 2228   4.477   4.662   4.216
    6CHTO  C105 2229   4.672   4.380   4.170
    6CHTO  H192 2230   4.758   4.409   4.231
    6CHTO   O65 2231   4.720   4.310   4.054
    6CHTO  C100 2232   4.811   4.384   3.971
    6CHTO  H187 2233   4.898   4.414   4.032
    6CHTO  C107 2234   4.861   4.292   3.857
    6CHTO   O70 2235   4.933   4.179   3.908
    6CHTO  H170 2236   5.016   4.207   3.941
    6CHTO   O57 2237   4.569   4.279   4.257
    6CHTO   C85 2238   4.618   4.189   4.359
    6CHTO  H157 2239   4.536   4.117   4.374
    6CHTO   C83 2240   4.631   4.265   4.495
    6CHTO  H155 2241   4.530   4.294   4.526
    6CHTO   O56 2242   4.702   4.389   4.477
    6CHTO  H135 2243   4.791   4.372   4.452
    6CHTO   C81 2244   4.692   4.172   4.603
    6CHTO  H153 2245   4.630   4.082   4.609
    6CHTO   N14 2246   4.690   4.228   4.740
    6CHTO  H141 2247   4.625   4.172   4.804
    6CHTO  H142 2248   4.659   4.331   4.740
    6CHTO   C79 2249   4.836   4.128   4.557
    6CHTO  H151 2250   4.875   4.061   4.633
    6CHTO   O52 2251   4.826   4.051   4.434
    6CHTO   C86 2252   4.755   4.116   4.323
    6CHTO  H158 2253   4.830   4.188   4.282
    6CHTO   C90 2254   4.729   4.013   4.211
    6CHTO   O60 2255   4.852   3.964   4.155
    6CHTO  H138 2256   4.833   3.902   4.087
    6CHTO   O50 2257   4.928   4.237   4.539
    6CHTO   C73 2258   5.061   4.284   4.562
    6CHTO  H145 2259   5.126   4.201   4.593
    6CHTO   C74 2260   5.062   4.392   4.675
    6CHTO  H146 2261   5.018   4.347   4.765
    6CHTO   O54 2262   5.200   4.420   4.707
    6CHTO  H133 2263   5.205   4.480   4.779
    6CHTO   C75 2264   4.981   4.520   4.628
    6CHTO  H147 2265   4.876   4.490   4.614
    6CHTO   N13 2266   4.977   4.631   4.725
    6CHTO  H139 2267   4.875   4.654   4.753
    6CHTO  H140 2268   5.032   4.606   4.815
    6CHTO   C76 2269   5.035   4.568   4.485
    6CHTO  H148 2270   5.137   4.606   4.499
    6CHTO   O49 2271   5.037   4.458   4.390
    6CHTO   C77 2272   5.118   4.346   4.431
    6CHTO  H149 2273   5.220   4.379   4.449
    6CHTO   C88 2274   5.125   4.244   4.318
    6CHTO   O58 2275   5.193   4.300   4.198
    6CHTO  H136 2276   5.284   4.316   4.217
    6CHTO   O51 2277   4.937   4.678   4.416
    6CHTO   C78 2278   5.019   4.805   4.359
    6CHTO  H150 2279   5.121   4.808   4.401
    6CHTO   C80 2280   4.946   4.936   4.395
    6CHTO  H152 2281   4.843   4.933   4.352
    6CHTO   O55 2282   4.934   4.940   4.539
    6CHTO  H134 2283   4.883   5.015   4.565
    6CHTO   C84 2284   5.024   5.061   4.338
    6CHTO  H156 2285   5.121   5.066   4.389
    6CHTO   N15 2286   4.955   5.192   4.366
    6CHTO  H143 2287   4.857   5.191   4.324
    6CHTO  H144 2288   4.948   5.207   4.472
    6CHTO   C87 2289   5.052   5.044   4.187
    6CHTO  H159 2290   4.959   5.055   4.130
    6CHTO   O53 2291   5.113   4.905   4.160
    6CHTO   C82 2292   5.032   4.796   4.206
    6CHTO  H154 2293   4.933   4.800   4.160
    6CHTO   C89 2294   5.098   4.665   4.160
    6CHTO   O59 2295   5.098   4.651   4.017
    6CHTO  H137 2296   5.010   4.639   3.987
    6CHTO   O45 2297   5.163   5.155   4.133
    6CHTO   C67 2298   5.171   5.161   3.990
    6CHTO  H124 2299   5.082   5.118   3.944
    6CHTO   C65 2300   5.185   5.310   3.944
    6CHTO  H122 2301   5.111   5.365   4.001
    6CHTO   O44 2302   5.154   5.319   3.804
    6CHTO  H102 2303   5.151   5.409   3.778
    6CHTO   C63 2304   5.325   5.366   3.986
    6CHTO  H120 2305   5.337   5.351   4.094
    6CHTO   N11 2306   5.340   5.515   3.974
    6CHTO  H108 2307   5.338   5.543   3.870
    6CHTO  H109 2308   5.433   5.546   4.017
    6CHTO   C61 2309   5.438   5.282   3.916
    6CHTO  H118 2310   5.533   5.315   3.961
    6CHTO   O40 2311   5.425   5.140   3.947
    6CHTO   C68 2312   5.293   5.074   3.938
    6CHTO  H125 2313   5.300   4.986   4.006
    6CHTO   C72 2314   5.268   5.018   3.796
    6CHTO   O48 2315   5.353   4.908   3.764
    6CHTO  H105 2316   5.334   4.878   3.677
    6CHTO   O38 2317   5.442   5.298   3.772
    6CHTO   C55 2318   5.569   5.327   3.709
    6CHTO  H112 2319   5.650   5.330   3.784
    6CHTO   C56 2320   5.559   5.463   3.627
    6CHTO  H113 2321   5.467   5.457   3.566
    6CHTO   O42 2322   5.539   5.573   3.719
    6CHTO  H100 2323   5.457   5.564   3.763
    6CHTO   C57 2324   5.685   5.488   3.535
    6CHTO  H114 2325   5.769   5.508   3.601
    6CHTO   N10 2326   5.670   5.605   3.445
    6CHTO  H106 2327   5.623   5.576   3.352
    6CHTO  H107 2328   5.767   5.648   3.424
    6CHTO   C58 2329   5.716   5.359   3.454
    6CHTO  H115 2330   5.632   5.339   3.384
    6CHTO   O37 2331   5.732   5.248   3.544
    6CHTO   C59 2332   5.610   5.213   3.610
    6CHTO  H116 2333   5.531   5.196   3.537
    6CHTO   C70 2334   5.634   5.081   3.684
    6CHTO   O46 2335   5.654   4.973   3.593
    6CHTO  H103 2336   5.666   4.893   3.641
    6CHTO   O39 2337   5.856   5.377   3.367
    6CHTO   C60 2338   5.917   5.257   3.315
    6CHTO  H117 2339   5.958   5.199   3.398
    6CHTO   C62 2340   5.820   5.165   3.234
    6CHTO  H119 2341   5.740   5.133   3.306
    6CHTO   O43 2342   5.758   5.241   3.128
    6CHTO  H101 2343   5.702   5.307   3.164
    6CHTO   C66 2344   5.899   5.036   3.182
    6CHTO  H123 2345   5.941   4.984   3.268
    6CHTO   N12 2346   5.809   4.937   3.116
    6CHTO  H110 2347   5.762   4.982   3.030
    6CHTO  H111 2348   5.864   4.849   3.089
    6CHTO   C69 2349   6.017   5.081   3.092
    6CHTO  H126 2350   5.978   5.135   3.003
    6CHTO   O41 2351   6.109   5.175   3.174
    6CHTO   C64 2352   6.038   5.297   3.225
    6CHTO  H121 2353   6.000   5.357   3.139
    6CHTO   C71 2354   6.139   5.385   3.302
    6CHTO   O47 2355   6.240   5.435   3.215
    6CHTO  H104 2356   6.300   5.489   3.264
    6CHTO   O34 2357   6.102   4.963   3.042
    6CHTO   C49 2358   6.178   4.835   3.055
    6CHTO   H91 2359   6.104   4.754   3.057
    6CHTO   C47 2360   6.258   4.835   3.187
    6CHTO   H89 2361   6.293   4.729   3.197
    6CHTO   O33 2362   6.174   4.864   3.300
    6CHTO   H70 2363   6.109   4.798   3.310
    6CHTO   C45 2364   6.383   4.939   3.182
    6CHTO   H87 2365   6.355   5.029   3.239
    6CHTO    N8 2366   6.499   4.876   3.250
    6CHTO   H75 2367   6.531   4.788   3.195
    6CHTO   H76 2368   6.473   4.849   3.351
    6CHTO   C43 2369   6.409   4.992   3.032
    6CHTO   H85 2370   6.329   5.063   3.013
    6CHTO   O29 2371   6.404   4.880   2.941
    6CHTO   C50 2372   6.277   4.812   2.936
    6CHTO   H92 2373   6.225   4.844   2.844
    6CHTO   C54 2374   6.302   4.662   2.911
    6CHTO   O36 2375   6.369   4.638   2.786
    6CHTO   H72 2376   6.312   4.658   2.715
    6CHTO   O27 2377   6.531   5.067   3.017
    6CHTO   C37 2378   6.581   5.202   3.013
    6CHTO   H79 2379   6.668   5.206   2.946
    6CHTO   C38 2380   6.475   5.302   2.957
    6CHTO   H80 2381   6.381   5.289   3.014
    6CHTO   O31 2382   6.452   5.268   2.820
    6CHTO   H68 2383   6.408   5.185   2.814
    6CHTO   C39 2384   6.522   5.453   2.971
    6CHTO   H81 2385   6.608   5.466   2.904
    6CHTO    N7 2386   6.418   5.553   2.928
    6CHTO   H73 2387   6.329   5.503   2.894
    6CHTO   H74 2388   6.394   5.621   3.008
    6CHTO   C40 2389   6.574   5.481   3.118
    6CHTO   H82 2390   6.490   5.479   3.188
    6CHTO   O26 2391   6.674   5.384   3.152
    6CHTO   C41 2392   6.627   5.246   3.155
    6CHTO   H83 2393   6.543   5.237   3.225
    6CHTO   C52 2394   6.743   5.159   3.210
    6CHTO   O35 2395   6.868   5.167   3.128
    6CHTO   H71 2396   6.905   5.253   3.137
    6CHTO   O28 2397   6.643   5.607   3.130
    6CHTO   C42 2398   6.653   5.679   3.258
    6CHTO   H84 2399   6.745   5.736   3.248
    6CHTO   C44 2400   6.670   5.593   3.388
    6CHTO   H86 2401   6.585   5.525   3.396
    6CHTO   O32 2402   6.790   5.514   3.372
    6CHTO   H69 2403   6.777   5.448   3.307
    6CHTO   C48 2404   6.678   5.679   3.521
    6CHTO   H90 2405   6.775   5.727   3.522
    6CHTO    N9 2406   6.674   5.592   3.644
    6CHTO   H77 2407   6.581   5.537   3.648
    6CHTO   H78 2408   6.687   5.652   3.732
    6CHTO   C51 2409   6.568   5.791   3.525
    6CHTO   H93 2410   6.471   5.745   3.544
    6CHTO   O30 2411   6.568   5.867   3.403
    6CHTO   C46 2412   6.538   5.782   3.279
    6CHTO   H88 2413   6.444   5.728   3.295
    6CHTO   C53 2414   6.522   5.878   3.158
    6CHTO   O72 2415   6.640   5.956   3.135
    6CHTO  H199 2416   6.627   6.012   3.061
    6CHTO   O22 2417   6.600   5.887   3.628
    6CHTO   C31 2418   6.500   5.972   3.697
    6CHTO   H59 2419   6.559   6.034   3.768
    6CHTO   C29 2420   6.424   6.071   3.605
    6CHTO   H57 2421   6.369   6.012   3.530
    6CHTO   O21 2422   6.522   6.150   3.534
    6CHTO   H37 2423   6.572   6.096   3.476
    6CHTO   C27 2424   6.322   6.160   3.687
    6CHTO   H55 2425   6.379   6.220   3.759
    6CHTO    N5 2426   6.243   6.252   3.602
    6CHTO   H43 2427   6.178   6.312   3.664
    6CHTO   H44 2428   6.309   6.316   3.545
    6CHTO   C25 2429   6.230   6.064   3.771
    6CHTO   H53 2430   6.171   6.001   3.703
    6CHTO   O17 2431   6.313   5.980   3.855
    6CHTO   C32 2432   6.400   5.891   3.784
    6CHTO   H60 2433   6.341   5.825   3.720
    6CHTO   C36 2434   6.473   5.804   3.890
    6CHTO   O25 2435   6.381   5.724   3.966
    6CHTO   H40 2436   6.330   5.779   4.022
    6CHTO   O15 2437   6.136   6.142   3.865
    6CHTO   C19 2438   6.053   6.131   3.984
    6CHTO   H47 2439   5.958   6.092   3.946
    6CHTO   C20 2440   6.110   6.033   4.091
    6CHTO   H48 2441   6.216   6.054   4.114
    6CHTO   O19 2442   6.104   5.901   4.034
    6CHTO   H35 2443   6.145   5.839   4.091
    6CHTO   C21 2444   6.030   6.038   4.228
    6CHTO   H49 2445   5.930   5.998   4.211
    6CHTO    N4 2446   6.091   5.954   4.335
    6CHTO   H41 2447   6.122   6.014   4.419
    6CHTO   H42 2448   6.176   5.899   4.298
    6CHTO   C22 2449   6.014   6.187   4.268
    6CHTO   H50 2450   6.114   6.229   4.281
    6CHTO   O14 2451   5.944   6.257   4.164
    6CHTO   C23 2452   6.021   6.271   4.045
    6CHTO   H51 2453   6.113   6.326   4.072
    6CHTO   C34 2454   5.939   6.359   3.950
    6CHTO   O23 2455   6.012   6.397   3.832
    6CHTO   H38 2456   6.024   6.322   3.777
    6CHTO   O16 2457   5.934   6.206   4.386
    6CHTO   C24 2458   5.967   6.343   4.461
    6CHTO   H52 2459   6.011   6.417   4.394
    6CHTO   C26 2460   6.065   6.313   4.577
    6CHTO   H54 2461   6.026   6.227   4.635
    6CHTO   O20 2462   6.192   6.274   4.520
    6CHTO   H36 2463   6.230   6.345   4.473
    6CHTO   C30 2464   6.078   6.435   4.674
    6CHTO   H58 2465   6.127   6.519   4.622
    6CHTO    N6 2466   6.164   6.403   4.791
    6CHTO   H45 2467   6.264   6.377   4.758
    6CHTO   H46 2468   6.122   6.320   4.847
    6CHTO   C33 2469   5.936   6.483   4.715
    6CHTO   H61 2470   5.884   6.401   4.768
    6CHTO   O18 2471   5.861   6.516   4.597
    6CHTO   C28 2472   5.834   6.403   4.513
    6CHTO   H56 2473   5.780   6.327   4.570
    6CHTO   C35 2474   5.743   6.447   4.395
    6CHTO   O24 2475   5.801   6.549   4.313
    6CHTO   H39 2476   5.743   6.568   4.241
    6CHTO    O9 2477   5.939   6.594   4.808
    6CHTO   C13 2478   5.834   6.580   4.928
    6CHTO   H26 2479   5.833   6.474   4.961
    6CHTO   C11 2480   5.692   6.629   4.879
    6CHTO   H24 2481   5.660   6.564   4.796
    6CHTO    O8 2482   5.701   6.763   4.828
    6CHTO    H3 2483   5.725   6.823   4.896
    6CHTO    C9 2484   5.592   6.610   4.997
    6CHTO   H22 2485   5.587   6.501   5.014
    6CHTO    N2 2486   5.452   6.645   4.961
    6CHTO   H10 2487   5.423   6.594   4.870
    6CHTO   H11 2488   5.444   6.752   4.948
    6CHTO    C7 2489   5.649   6.676   5.131
    6CHTO   H20 2490   5.668   6.587   5.195
    6CHTO    O4 2491   5.774   6.745   5.110
    6CHTO   C14 2492   5.879   6.663   5.057
    6CHTO   H27 2493   5.907   6.591   5.137
    6CHTO   C18 2494   6.003   6.754   5.034
    6CHTO   O13 2495   5.976   6.862   4.944
    6CHTO    H7 2496   5.918   6.924   4.985
    6CHTO    O2 2497   5.546   6.778   5.210
    6CHTO    C1 2498   5.541   6.765   5.353
    6CHTO   H14 2499   5.476   6.847   5.392
    6CHTO    C2 2500   5.681   6.773   5.427
    6CHTO   H15 2501   5.745   6.694   5.383
    6CHTO    O6 2502   5.740   6.901   5.400
    6CHTO    H1 2503   5.764   6.908   5.310
    6CHTO    C3 2504   5.664   6.748   5.585
    6CHTO   H16 2505   5.608   6.833   5.627
    6CHTO    N1 2506   5.797   6.741   5.655
    6CHTO    H8 2507   5.811   6.644   5.701
    6CHTO    H9 2508   5.803   6.818   5.731
    6CHTO    C4 2509   5.574   6.621   5.610
    6CHTO   H17 2510   5.631   6.531   5.584
    6CHTO    O1 2511   5.452   6.626   5.535
    6CHTO    C5 2512   5.469   6.633   5.393
    6CHTO   H18 2513   5.530   6.548   5.360
    6CHTO   C16 2514   5.329   6.621   5.327
    6CHTO   O11 2515   5.270   6.493   5.351
    6CHTO    H5 2516   5.246   6.486   5.442
    6CHTO    O3 2517   5.530   6.615   5.748
    6CHTO    C6 2518   5.501   6.480   5.798
    6CHTO   H19 2519   5.499   6.404   5.719
    6CHTO    C8 2520   5.609   6.437   5.903
    6CHTO   H21 2521   5.616   6.515   5.978
    6CHTO    O7 2522   5.735   6.429   5.834
    6CHTO    H2 2523   5.734   6.360   5.771
    6CHTO   C12 2524   5.568   6.301   5.973
    6CHTO   H25 2525   5.573   6.223   5.894
    6CHTO    N3 2526   5.667   6.264   6.080
    6CHTO   H12 2527   5.709   6.167   6.059
    6CHTO   H13 2528   5.621   6.265   6.177
    6CHTO   C15 2529   5.420   6.311   6.025
    6CHTO   H28 2530   5.410   6.380   6.109
    6CHTO   O10 2531   5.362   6.177   6.064
    6CHTO    H4 2532   5.409   6.142   6.138
    6CHTO    O5 2533   5.331   6.350   5.919
    6CHTO   C10 2534   5.360   6.479   5.865
    6CHTO   H23 2535   5.358   6.552   5.946
    6CHTO   C17 2536   5.246   6.517   5.769
    6CHTO   O12 2537   5.237   6.429   5.656
    6CHTO    H6 2538   5.209   6.344   5.683
    7CHTO  H203 2539   5.656   4.045   6.404
    7CHTO   O82 2540   5.675   3.953   6.391
    7CHTO  C123 2541   5.719   3.929   6.256
    7CHTO  H227 2542   5.649   3.979   6.187
    7CHTO   O77 2543   5.850   3.992   6.251
    7CHTO  C118 2544   5.908   3.994   6.120
    7CHTO  H222 2545   5.839   4.045   6.050
    7CHTO  C125 2546   6.042   4.075   6.127
    7CHTO   O84 2547   6.018   4.212   6.162
    7CHTO  H205 2548   6.099   4.258   6.164
    7CHTO  C114 2549   5.934   3.850   6.071
    7CHTO  H218 2550   6.013   3.806   6.132
    7CHTO  C116 2551   5.807   3.761   6.082
    7CHTO  H220 2552   5.736   3.789   6.001
    7CHTO   O79 2553   5.845   3.624   6.057
    7CHTO  H201 2554   5.870   3.614   5.967
    7CHTO  C120 2555   5.735   3.776   6.222
    7CHTO  H224 2556   5.801   3.729   6.297
    7CHTO   N21 2557   5.604   3.705   6.226
    7CHTO  H211 2558   5.583   3.673   6.327
    7CHTO  H212 2559   5.606   3.619   6.160
    7CHTO   O75 2560   5.976   3.865   5.934
    7CHTO  C112 2561   6.117   3.787   5.879
    7CHTO  H216 2562   6.097   3.751   5.776
    7CHTO   O73 2563   6.150   3.679   5.967
    7CHTO  C113 2564   6.253   3.594   5.912
    7CHTO  H217 2565   6.217   3.555   5.815
    7CHTO  C124 2566   6.268   3.475   6.006
    7CHTO   O83 2567   6.356   3.373   5.957
    7CHTO  H204 2568   6.366   3.306   6.022
    7CHTO  C109 2569   6.388   3.671   5.891
    7CHTO  H213 2570   6.433   3.683   5.990
    7CHTO  C110 2571   6.366   3.812   5.826
    7CHTO  H214 2572   6.361   3.798   5.717
    7CHTO   O78 2573   6.482   3.893   5.853
    7CHTO  H200 2574   6.556   3.860   5.807
    7CHTO  C111 2575   6.239   3.885   5.876
    7CHTO  H215 2576   6.256   3.921   5.979
    7CHTO   N19 2577   6.205   4.005   5.795
    7CHTO  H207 2578   6.117   4.054   5.834
    7CHTO  H208 2579   6.288   4.075   5.796
    7CHTO   O74 2580   6.476   3.588   5.808
    7CHTO  C115 2581   6.630   3.640   5.787
    7CHTO  H219 2582   6.633   3.741   5.745
    7CHTO   O76 2583   6.706   3.649   5.921
    7CHTO  C122 2584   6.710   3.523   5.989
    7CHTO  H226 2585   6.609   3.503   6.026
    7CHTO  C126 2586   6.799   3.539   6.117
    7CHTO   O85 2587   6.936   3.568   6.087
    7CHTO  H206 2588   6.943   3.654   6.049
    7CHTO  C121 2589   6.760   3.403   5.897
    7CHTO  H225 2590   6.843   3.352   5.949
    7CHTO   O81 2591   6.655   3.307   5.881
    7CHTO  H202 2592   6.582   3.345   5.836
    7CHTO  C119 2593   6.812   3.454   5.759
    7CHTO  H223 2594   6.896   3.520   5.781
    7CHTO  C117 2595   6.701   3.540   5.686
    7CHTO  H221 2596   6.619   3.481   5.644
    7CHTO   N20 2597   6.759   3.612   5.568
    7CHTO  H209 2598   6.832   3.684   5.601
    7CHTO  H210 2599   6.681   3.662   5.512
    7CHTO   O80 2600   6.883   3.340   5.664
    7CHTO  C103 2601   7.013   3.257   5.717
    7CHTO  H190 2602   7.072   3.223   5.632
    7CHTO  C101 2603   7.112   3.331   5.816
    7CHTO  H188 2604   7.055   3.377   5.896
    7CHTO   O68 2605   7.185   3.445   5.738
    7CHTO  H168 2606   7.240   3.408   5.671
    7CHTO   C99 2607   7.215   3.227   5.882
    7CHTO  H186 2608   7.280   3.184   5.803
    7CHTO   N17 2609   7.307   3.289   5.984
    7CHTO  H174 2610   7.379   3.216   6.018
    7CHTO  H175 2611   7.249   3.328   6.067
    7CHTO   C97 2612   7.135   3.108   5.941
    7CHTO  H184 2613   7.072   3.146   6.022
    7CHTO   O64 2614   7.058   3.045   5.838
    7CHTO  C104 2615   6.953   3.128   5.785
    7CHTO  H191 2616   6.883   3.157   5.863
    7CHTO  C108 2617   6.873   3.047   5.683
    7CHTO   O71 2618   6.811   2.933   5.744
    7CHTO  H171 2619   6.763   2.885   5.679
    7CHTO   O62 2620   7.218   2.998   5.987
    7CHTO   C91 2621   7.185   2.944   6.117
    7CHTO  H178 2622   7.193   3.026   6.188
    7CHTO   C92 2623   7.299   2.842   6.154
    7CHTO  H179 2624   7.396   2.877   6.115
    7CHTO   O66 2625   7.313   2.840   6.297
    7CHTO  H166 2626   7.347   2.922   6.328
    7CHTO   C93 2627   7.270   2.694   6.108
    7CHTO  H180 2628   7.348   2.632   6.154
    7CHTO   N16 2629   7.286   2.672   5.962
    7CHTO  H172 2630   7.193   2.642   5.916
    7CHTO  H173 2631   7.362   2.598   5.943
    7CHTO   C94 2632   7.128   2.647   6.162
    7CHTO  H181 2633   7.069   2.596   6.086
    7CHTO   O61 2634   7.046   2.755   6.211
    7CHTO   C95 2635   7.042   2.873   6.130
    7CHTO  H182 2636   7.006   2.847   6.030
    7CHTO  C106 2637   6.935   2.970   6.192
    7CHTO   O69 2638   6.804   2.912   6.189
    7CHTO  H169 2639   6.742   2.973   6.223
    7CHTO   O63 2640   7.153   2.554   6.284
    7CHTO   C96 2641   7.085   2.415   6.275
    7CHTO  H183 2642   7.016   2.416   6.190
    7CHTO   C98 2643   7.001   2.378   6.402
    7CHTO  H185 2644   6.929   2.458   6.425
    7CHTO   O67 2645   6.921   2.262   6.372
    7CHTO  H167 2646   6.976   2.189   6.351
    7CHTO  C102 2647   7.094   2.345   6.529
    7CHTO  H189 2648   7.031   2.286   6.597
    7CHTO   N18 2649   7.136   2.463   6.608
    7CHTO  H176 2650   7.050   2.514   6.648
    7CHTO  H177 2651   7.192   2.531   6.546
    7CHTO  C105 2652   7.215   2.257   6.485
    7CHTO  H192 2653   7.308   2.315   6.490
    7CHTO   O65 2654   7.205   2.205   6.351
    7CHTO  C100 2655   7.199   2.307   6.249
    7CHTO  H187 2656   7.296   2.359   6.248
    7CHTO  C107 2657   7.181   2.240   6.111
    7CHTO   O70 2658   7.295   2.161   6.077
    7CHTO  H170 2659   7.301   2.086   6.134
    7CHTO   O57 2660   7.220   2.141   6.590
    7CHTO   C85 2661   7.337   2.058   6.596
    7CHTO  H157 2662   7.414   2.104   6.531
    7CHTO   C83 2663   7.307   1.919   6.532
    7CHTO  H155 2664   7.283   1.935   6.427
    7CHTO   O56 2665   7.188   1.862   6.592
    7CHTO  H135 2666   7.203   1.843   6.682
    7CHTO   C81 2667   7.433   1.829   6.542
    7CHTO  H153 2668   7.515   1.882   6.492
    7CHTO   N14 2669   7.420   1.702   6.466
    7CHTO  H141 2670   7.439   1.617   6.529
    7CHTO  H142 2671   7.488   1.700   6.383
    7CHTO   C79 2672   7.473   1.809   6.693
    7CHTO  H151 2673   7.566   1.753   6.695
    7CHTO   O52 2674   7.500   1.939   6.755
    7CHTO   C86 2675   7.391   2.036   6.744
    7CHTO  H158 2676   7.312   1.995   6.810
    7CHTO   C90 2677   7.434   2.171   6.807
    7CHTO   O60 2678   7.548   2.227   6.741
    7CHTO  H138 2679   7.525   2.254   6.654
    7CHTO   O50 2680   7.375   1.738   6.771
    7CHTO   C73 2681   7.356   1.606   6.823
    7CHTO  H145 2682   7.426   1.536   6.775
    7CHTO   C74 2683   7.210   1.558   6.797
    7CHTO  H146 2684   7.193   1.562   6.688
    7CHTO   O54 2685   7.200   1.419   6.835
    7CHTO  H133 2686   7.252   1.366   6.777
    7CHTO   C75 2687   7.109   1.651   6.876
    7CHTO  H147 2688   7.118   1.753   6.836
    7CHTO   N13 2689   6.966   1.615   6.857
    7CHTO  H139 2690   6.903   1.684   6.911
    7CHTO  H140 2691   6.948   1.516   6.895
    7CHTO   C76 2692   7.151   1.657   7.030
    7CHTO  H148 2693   7.135   1.558   7.074
    7CHTO   O49 2694   7.292   1.695   7.043
    7CHTO   C77 2695   7.383   1.606   6.977
    7CHTO  H149 2696   7.371   1.505   7.015
    7CHTO   C88 2697   7.527   1.647   7.010
    7CHTO   O58 2698   7.553   1.633   7.156
    7CHTO  H136 2699   7.642   1.657   7.174
    7CHTO   O51 2700   7.066   1.771   7.106
    7CHTO   C78 2701   7.125   1.813   7.247
    7CHTO  H150 2702   7.235   1.798   7.252
    7CHTO   C80 2703   7.059   1.732   7.361
    7CHTO  H152 2704   6.948   1.742   7.352
    7CHTO   O55 2705   7.094   1.594   7.340
    7CHTO  H134 2706   7.050   1.540   7.403
    7CHTO   C84 2707   7.106   1.785   7.502
    7CHTO  H156 2708   7.213   1.765   7.511
    7CHTO   N15 2709   7.037   1.712   7.616
    7CHTO  H143 2710   6.979   1.780   7.675
    7CHTO  H144 2711   7.110   1.665   7.678
    7CHTO   C87 2712   7.086   1.938   7.510
    7CHTO  H159 2713   6.979   1.961   7.508
    7CHTO   O53 2714   7.156   2.007   7.390
    7CHTO   C82 2715   7.101   1.964   7.265
    7CHTO  H154 2716   6.994   1.987   7.263
    7CHTO   C89 2717   7.166   2.045   7.149
    7CHTO   O59 2718   7.308   2.028   7.141
    7CHTO  H137 2719   7.327   1.939   7.115
    7CHTO   O45 2720   7.151   1.997   7.641
    7CHTO   C67 2721   7.106   2.129   7.674
    7CHTO  H124 2722   7.093   2.187   7.583
    7CHTO   C65 2723   6.968   2.126   7.751
    7CHTO  H122 2724   6.964   2.028   7.801
    7CHTO   O44 2725   6.865   2.130   7.651
    7CHTO  H102 2726   6.859   2.217   7.614
    7CHTO   C63 2727   6.961   2.231   7.868
    7CHTO  H120 2728   7.020   2.194   7.952
    7CHTO   N11 2729   6.827   2.250   7.932
    7CHTO  H108 2730   6.836   2.312   8.019
    7CHTO  H109 2731   6.786   2.155   7.960
    7CHTO   C61 2732   7.031   2.363   7.820
    7CHTO  H118 2733   7.023   2.437   7.902
    7CHTO   O40 2734   7.173   2.341   7.797
    7CHTO   C68 2735   7.217   2.207   7.758
    7CHTO  H125 2736   7.243   2.150   7.849
    7CHTO   C72 2737   7.349   2.226   7.678
    7CHTO   O48 2738   7.414   2.103   7.646
    7CHTO  H105 2739   7.492   2.120   7.597
    7CHTO   O38 2740   6.981   2.416   7.696
    7CHTO   C55 2741   6.892   2.529   7.697
    7CHTO  H112 2742   6.853   2.546   7.799
    7CHTO   C56 2743   6.776   2.503   7.593
    7CHTO  H113 2744   6.824   2.475   7.498
    7CHTO   O42 2745   6.701   2.388   7.634
    7CHTO  H100 2746   6.658   2.404   7.715
    7CHTO   C57 2747   6.687   2.631   7.573
    7CHTO  H114 2748   6.638   2.655   7.668
    7CHTO   N10 2749   6.581   2.613   7.470
    7CHTO  H106 2750   6.492   2.573   7.516
    7CHTO  H107 2751   6.556   2.707   7.423
    7CHTO   C58 2752   6.782   2.747   7.536
    7CHTO  H115 2753   6.837   2.720   7.442
    7CHTO   O37 2754   6.877   2.768   7.641
    7CHTO   C59 2755   6.969   2.659   7.658
    7CHTO  H116 2756   7.025   2.644   7.565
    7CHTO   C70 2757   7.071   2.700   7.765
    7CHTO   O46 2758   7.013   2.733   7.892
    7CHTO  H103 2759   6.975   2.656   7.930
    7CHTO   O39 2760   6.708   2.886   7.515
    7CHTO   C60 2761   6.763   2.964   7.407
    7CHTO  H117 2762   6.859   2.922   7.375
    7CHTO   C62 2763   6.668   2.962   7.284
    7CHTO  H119 2764   6.657   2.855   7.255
    7CHTO   O43 2765   6.538   3.013   7.321
    7CHTO  H101 2766   6.479   3.007   7.249
    7CHTO   C66 2767   6.737   3.043   7.164
    7CHTO  H123 2768   6.834   2.997   7.142
    7CHTO   N12 2769   6.660   3.035   7.037
    7CHTO  H110 2770   6.711   3.088   6.959
    7CHTO  H111 2771   6.560   3.074   7.052
    7CHTO   C69 2772   6.764   3.189   7.210
    7CHTO  H126 2773   6.669   3.243   7.227
    7CHTO   O41 2774   6.850   3.187   7.342
    7CHTO   C64 2775   6.790   3.109   7.452
    7CHTO  H121 2776   6.694   3.155   7.481
    7CHTO   C71 2777   6.886   3.113   7.574
    7CHTO   O47 2778   6.902   3.246   7.624
    7CHTO  H104 2779   6.949   3.298   7.563
    7CHTO   O34 2780   6.843   3.262   7.107
    7CHTO   C49 2781   6.936   3.370   7.075
    7CHTO   H91 2782   6.876   3.461   7.065
    7CHTO   C47 2783   7.002   3.335   6.940
    7CHTO   H89 2784   7.064   3.425   6.917
    7CHTO   O33 2785   6.904   3.320   6.836
    7CHTO   H70 2786   6.848   3.247   6.854
    7CHTO   C45 2787   7.093   3.202   6.953
    7CHTO   H87 2788   7.030   3.115   6.929
    7CHTO    N8 2789   7.201   3.210   6.851
    7CHTO   H75 2790   7.256   3.117   6.848
    7CHTO   H76 2791   7.268   3.291   6.875
    7CHTO   C43 2792   7.141   3.179   7.106
    7CHTO   H85 2793   7.060   3.125   7.154
    7CHTO   O29 2794   7.166   3.306   7.169
    7CHTO   C50 2795   7.050   3.391   7.180
    7CHTO   H92 2796   7.006   3.376   7.280
    7CHTO   C54 2797   7.095   3.539   7.184
    7CHTO   O36 2798   7.180   3.566   7.296
    7CHTO   H72 2799   7.262   3.523   7.285
    7CHTO   O27 2800   7.254   3.091   7.117
    7CHTO   C37 2801   7.355   3.053   7.213
    7CHTO   H79 2802   7.383   3.140   7.274
    7CHTO   C38 2803   7.304   2.942   7.310
    7CHTO   H80 2804   7.262   2.860   7.249
    7CHTO   O31 2805   7.198   3.000   7.388
    7CHTO   H68 2806   7.158   2.934   7.442
    7CHTO   C39 2807   7.420   2.887   7.401
    7CHTO   H81 2808   7.449   2.967   7.469
    7CHTO    N7 2809   7.377   2.770   7.485
    7CHTO   H73 2810   7.459   2.737   7.548
    7CHTO   H74 2811   7.344   2.689   7.422
    7CHTO   C40 2812   7.548   2.852   7.314
    7CHTO   H82 2813   7.528   2.763   7.253
    7CHTO   O26 2814   7.584   2.965   7.233
    7CHTO   C41 2815   7.480   3.003   7.137
    7CHTO   H83 2816   7.453   2.916   7.076
    7CHTO   C52 2817   7.540   3.109   7.042
    7CHTO   O35 2818   7.585   3.230   7.111
    7CHTO   H71 2819   7.658   3.210   7.167
    7CHTO   O28 2820   7.663   2.825   7.397
    7CHTO   C42 2821   7.796   2.784   7.348
    7CHTO   H84 2822   7.849   2.758   7.440
    7CHTO   C44 2823   7.881   2.897   7.280
    7CHTO   H86 2824   7.825   2.935   7.194
    7CHTO   O32 2825   7.894   3.003   7.376
    7CHTO   H69 2826   7.944   2.975   7.450
    7CHTO   C48 2827   8.021   2.844   7.227
    7CHTO   H90 2828   8.080   2.813   7.313
    7CHTO    N9 2829   8.101   2.952   7.159
    7CHTO   H77 2830   8.046   2.991   7.075
    7CHTO   H78 2831   8.124   3.031   7.229
    7CHTO   C51 2832   7.995   2.719   7.135
    7CHTO   H93 2833   7.932   2.750   7.052
    7CHTO   O30 2834   7.933   2.619   7.217
    7CHTO   C46 2835   7.793   2.655   7.260
    7CHTO   H88 2836   7.732   2.673   7.171
    7CHTO   C53 2837   7.742   2.530   7.337
    7CHTO   O72 2838   7.601   2.535   7.362
    7CHTO  H199 2839   7.582   2.603   7.423
    7CHTO   O22 2840   8.116   2.657   7.087
    7CHTO   C31 2841   8.118   2.576   6.963
    7CHTO   H59 2842   8.217   2.524   6.962
    7CHTO   C29 2843   8.010   2.465   6.955
    7CHTO   H57 2844   7.912   2.515   6.963
    7CHTO   O21 2845   8.024   2.382   7.072
    7CHTO   H37 2846   7.952   2.322   7.077
    7CHTO   C27 2847   8.016   2.383   6.821
    7CHTO   H55 2848   8.111   2.325   6.819
    7CHTO    N5 2849   7.903   2.287   6.808
    7CHTO   H43 2850   7.847   2.303   6.717
    7CHTO   H44 2851   7.940   2.185   6.811
    7CHTO   C25 2852   8.023   2.481   6.699
    7CHTO   H53 2853   7.927   2.536   6.692
    7CHTO   O17 2854   8.130   2.578   6.717
    7CHTO   C32 2855   8.115   2.662   6.833
    7CHTO   H60 2856   8.020   2.715   6.828
    7CHTO   C36 2857   8.230   2.766   6.831
    7CHTO   O25 2858   8.219   2.854   6.718
    7CHTO   H40 2859   8.143   2.908   6.726
    7CHTO   O15 2860   8.049   2.402   6.561
    7CHTO   C19 2861   8.008   2.447   6.429
    7CHTO   H47 2862   8.047   2.368   6.362
    7CHTO   C20 2863   7.853   2.456   6.410
    7CHTO   H48 2864   7.807   2.520   6.487
    7CHTO   O19 2865   7.800   2.324   6.427
    7CHTO   H35 2866   7.831   2.266   6.360
    7CHTO   C21 2867   7.812   2.516   6.268
    7CHTO   H49 2868   7.839   2.443   6.191
    7CHTO    N4 2869   7.666   2.540   6.255
    7CHTO   H41 2870   7.633   2.609   6.331
    7CHTO   H42 2871   7.612   2.447   6.266
    7CHTO   C22 2872   7.896   2.644   6.242
    7CHTO   H50 2873   7.869   2.719   6.317
    7CHTO   O14 2874   8.036   2.613   6.252
    7CHTO   C23 2875   8.077   2.579   6.385
    7CHTO   H51 2876   8.051   2.663   6.451
    7CHTO   C34 2877   8.230   2.565   6.385
    7CHTO   O23 2878   8.294   2.690   6.358
    7CHTO   H38 2879   8.282   2.749   6.431
    7CHTO   O16 2880   7.884   2.696   6.108
    7CHTO   C24 2881   7.831   2.849   6.103
    7CHTO   H52 2882   7.780   2.877   6.195
    7CHTO   C26 2883   7.734   2.865   5.984
    7CHTO   H54 2884   7.788   2.839   5.890
    7CHTO   O20 2885   7.626   2.773   6.002
    7CHTO   H36 2886   7.570   2.773   5.926
    7CHTO   C30 2887   7.684   3.013   5.973
    7CHTO   H58 2888   7.618   3.035   6.059
    7CHTO    N6 2889   7.600   3.035   5.852
    7CHTO   H45 2890   7.501   3.067   5.880
    7CHTO   H46 2891   7.593   2.946   5.792
    7CHTO   C33 2892   7.801   3.116   5.981
    7CHTO   H61 2893   7.858   3.116   5.886
    7CHTO   O18 2894   7.892   3.081   6.088
    7CHTO   C28 2895   7.948   2.950   6.084
    7CHTO   H56 2896   7.996   2.931   5.988
    7CHTO   C35 2897   8.057   2.941   6.194
    7CHTO   O24 2898   8.007   2.963   6.326
    7CHTO   H39 2899   8.078   2.955   6.388
    7CHTO    O9 2900   7.750   3.250   5.996
    7CHTO   C13 2901   7.862   3.368   6.022
    7CHTO   H26 2902   7.952   3.344   5.962
    7CHTO   C11 2903   7.896   3.376   6.177
    7CHTO   H24 2904   7.950   3.284   6.205
    7CHTO    O8 2905   7.774   3.378   6.254
    7CHTO    H3 2906   7.794   3.374   6.346
    7CHTO    C9 2907   7.990   3.496   6.201
    7CHTO   H22 2908   8.076   3.480   6.134
    7CHTO    N2 2909   8.049   3.499   6.337
    7CHTO   H10 2910   8.005   3.424   6.401
    7CHTO   H11 2911   8.156   3.486   6.332
    7CHTO    C7 2912   7.918   3.629   6.158
    7CHTO   H20 2913   7.997   3.707   6.168
    7CHTO    O4 2914   7.876   3.624   6.020
    7CHTO   C14 2915   7.808   3.508   5.968
    7CHTO   H27 2916   7.827   3.509   5.858
    7CHTO   C18 2917   7.655   3.522   5.986
    7CHTO   O13 2918   7.602   3.627   5.904
    7CHTO    H7 2919   7.630   3.710   5.936
    7CHTO    O2 2920   7.788   3.671   6.253
    7CHTO    C1 2921   7.789   3.806   6.304
    7CHTO   H14 2922   7.861   3.868   6.245
    7CHTO    C2 2923   7.829   3.814   6.457
    7CHTO   H15 2924   7.767   3.740   6.509
    7CHTO    O6 2925   7.968   3.780   6.470
    7CHTO    H1 2926   7.981   3.689   6.450
    7CHTO    C3 2927   7.804   3.960   6.520
    7CHTO   H16 2928   7.880   4.028   6.479
    7CHTO    N1 2929   7.821   3.963   6.670
    7CHTO    H8 2930   7.729   3.991   6.719
    7CHTO    H9 2931   7.854   3.866   6.707
    7CHTO    C4 2932   7.665   4.020   6.474
    7CHTO   H17 2933   7.585   3.970   6.529
    7CHTO    O1 2934   7.647   4.006   6.333
    7CHTO    C5 2935   7.649   3.871   6.284
    7CHTO   H18 2936   7.575   3.812   6.339
    7CHTO   C16 2937   7.606   3.876   6.135
    7CHTO   O11 2938   7.697   3.953   6.056
    7CHTO    H5 2939   7.668   3.954   5.967
    7CHTO    O3 2940   7.662   4.162   6.496
    7CHTO    C6 2941   7.532   4.222   6.530
    7CHTO   H19 2942   7.449   4.151   6.522
    7CHTO    C8 2943   7.537   4.278   6.676
    7CHTO   H21 2944   7.625   4.343   6.684
    7CHTO    O7 2945   7.553   4.166   6.765
    7CHTO    H2 2946   7.477   4.111   6.762
    7CHTO   C12 2947   7.408   4.363   6.709
    7CHTO   H25 2948   7.325   4.290   6.715
    7CHTO    N3 2949   7.418   4.428   6.844
    7CHTO   H12 2950   7.429   4.353   6.921
    7CHTO   H13 2951   7.329   4.487   6.863
    7CHTO   C15 2952   7.377   4.465   6.593
    7CHTO   H28 2953   7.448   4.548   6.592
    7CHTO   O10 2954   7.232   4.521   6.602
    7CHTO    H4 2955   7.221   4.591   6.541
    7CHTO    O5 2956   7.376   4.399   6.465
    7CHTO   C10 2957   7.501   4.338   6.432
    7CHTO   H23 2958   7.580   4.413   6.440
    7CHTO   C17 2959   7.496   4.293   6.285
    7CHTO   O12 2960   7.487   4.405   6.196
    7CHTO    H6 2961   7.404   4.446   6.205
    8CHTO  H203 2962   7.268   7.777   1.058
    8CHTO   O82 2963   7.235   7.848   1.109
    8CHTO  C123 2964   7.093   7.860   1.091
    8CHTO  H227 2965   7.045   7.765   1.120
    8CHTO   O77 2966   7.056   7.966   1.184
    8CHTO  C118 2967   6.914   7.990   1.192
    8CHTO  H222 2968   6.862   7.896   1.216
    8CHTO  C125 2969   6.887   8.095   1.307
    8CHTO   O84 2970   6.951   8.221   1.283
    8CHTO  H205 2971   6.910   8.263   1.210
    8CHTO  C114 2972   6.864   8.041   1.055
    8CHTO  H218 2973   6.916   8.134   1.031
    8CHTO  C116 2974   6.898   7.940   0.941
    8CHTO  H220 2975   6.836   7.848   0.955
    8CHTO   O79 2976   6.859   7.997   0.815
    8CHTO  H201 2977   6.766   8.004   0.810
    8CHTO  C120 2978   7.052   7.902   0.944
    8CHTO  H224 2979   7.107   7.994   0.915
    8CHTO   N21 2980   7.086   7.797   0.845
    8CHTO  H211 2981   7.112   7.841   0.750
    8CHTO  H212 2982   7.005   7.727   0.834
    8CHTO   O75 2983   6.723   8.065   1.074
    8CHTO  C112 2984   6.659   8.189   0.985
    8CHTO  H216 2985   6.654   8.158   0.879
    8CHTO   O73 2986   6.742   8.304   1.002
    8CHTO  C113 2987   6.701   8.417   0.924
    8CHTO  H217 2988   6.696   8.388   0.817
    8CHTO  C124 2989   6.807   8.528   0.937
    8CHTO   O83 2990   6.934   8.489   0.885
    8CHTO  H204 2991   6.971   8.421   0.938
    8CHTO  C109 2992   6.562   8.467   0.972
    8CHTO  H213 2993   6.575   8.501   1.076
    8CHTO  C110 2994   6.459   8.350   0.966
    8CHTO  H214 2995   6.439   8.328   0.861
    8CHTO   O78 2996   6.336   8.395   1.025
    8CHTO  H200 2997   6.269   8.331   1.014
    8CHTO  C111 2998   6.514   8.222   1.037
    8CHTO  H215 2999   6.521   8.243   1.145
    8CHTO   N19 3000   6.424   8.104   1.022
    8CHTO  H207 3001   6.466   8.020   1.075
    8CHTO  H208 3002   6.327   8.127   1.062
    8CHTO   O74 3003   6.520   8.580   0.890
    8CHTO  C115 3004   6.441   8.693   0.970
    8CHTO  H219 3005   6.406   8.657   1.067
    8CHTO   O76 3006   6.532   8.815   1.002
    8CHTO  C122 3007   6.595   8.869   0.885
    8CHTO  H226 3008   6.679   8.804   0.859
    8CHTO  C126 3009   6.659   9.007   0.923
    8CHTO   O85 3010   6.762   8.996   1.022
    8CHTO  H206 3011   6.836   8.951   0.986
    8CHTO  C121 3012   6.498   8.884   0.760
    8CHTO  H225 3013   6.512   8.984   0.715
    8CHTO   O81 3014   6.531   8.788   0.659
    8CHTO  H202 3015   6.618   8.803   0.627
    8CHTO  C119 3016   6.348   8.870   0.802
    8CHTO  H223 3017   6.331   8.954   0.870
    8CHTO  C117 3018   6.318   8.736   0.880
    8CHTO  H221 3019   6.301   8.650   0.815
    8CHTO   N20 3020   6.192   8.747   0.962
    8CHTO  H209 3021   6.153   8.847   0.961
    8CHTO  H210 3022   6.117   8.678   0.925
    8CHTO   O80 3023   6.243   8.902   0.683
    8CHTO  C103 3024   6.173   9.050   0.671
    8CHTO  H190 3025   6.089   9.044   0.602
    8CHTO  C101 3026   6.121   9.117   0.804
    8CHTO  H188 3027   6.203   9.125   0.874
    8CHTO   O68 3028   6.014   9.027   0.866
    8CHTO  H168 3029   5.939   9.023   0.810
    8CHTO   C99 3030   6.067   9.265   0.774
    8CHTO  H186 3031   5.981   9.259   0.703
    8CHTO   N17 3032   6.019   9.337   0.896
    8CHTO  H174 3033   5.943   9.279   0.946
    8CHTO  H175 3034   5.980   9.435   0.868
    8CHTO   C97 3035   6.177   9.346   0.699
    8CHTO  H184 3036   6.260   9.364   0.769
    8CHTO   O64 3037   6.221   9.275   0.581
    8CHTO  C104 3038   6.280   9.145   0.606
    8CHTO  H191 3039   6.366   9.153   0.671
    8CHTO  C108 3040   6.331   9.088   0.473
    8CHTO   O71 3041   6.439   9.167   0.421
    8CHTO  H171 3042   6.468   9.129   0.340
    8CHTO   O62 3043   6.126   9.470   0.645
    8CHTO   C91 3044   6.216   9.583   0.643
    8CHTO  H178 3045   6.311   9.556   0.690
    8CHTO   C92 3046   6.155   9.698   0.730
    8CHTO  H179 3047   6.053   9.717   0.696
    8CHTO   O66 3048   6.142   9.649   0.865
    8CHTO  H166 3049   6.097   9.712   0.918
    8CHTO   C93 3050   6.242   9.830   0.728
    8CHTO  H180 3051   6.331   9.811   0.789
    8CHTO   N16 3052   6.173   9.946   0.792
    8CHTO  H172 3053   6.237   0.033   0.788
    8CHTO  H173 3054   6.148   9.922   0.894
    8CHTO   C94 3055   6.288   9.867   0.582
    8CHTO  H181 3056   6.206   9.905   0.521
    8CHTO   O61 3057   6.340   9.751   0.514
    8CHTO   C95 3058   6.248   9.643   0.501
    8CHTO  H182 3059   6.156   9.680   0.455
    8CHTO  C106 3060   6.309   9.536   0.404
    8CHTO   O69 3061   6.330   9.590   0.273
    8CHTO  H169 3062   6.369   9.525   0.219
    8CHTO   O63 3063   6.409   9.977   0.589
    8CHTO   C96 3064   6.455   0.028   0.448
    8CHTO  H183 3065   6.384   9.992   0.373
    8CHTO   C98 3066   6.597   9.982   0.406
    8CHTO  H185 3067   6.669   0.009   0.484
    8CHTO   O67 3068   6.596   9.838   0.402
    8CHTO  H167 3069   6.539   9.807   0.334
    8CHTO  C102 3070   6.641   0.044   0.265
    8CHTO  H189 3071   6.573   9.999   0.190
    8CHTO   N18 3072   6.778   0.009   0.221
    8CHTO  H176 3073   6.799   0.054   0.125
    8CHTO  H177 3074   6.788   9.902   0.214
    8CHTO  C105 3075   6.616   0.198   0.266
    8CHTO  H192 3076   6.692   0.246   0.327
    8CHTO   O65 3077   6.486   0.235   0.315
    8CHTO  C100 3078   6.451   0.186   0.445
    8CHTO  H187 3079   6.524   0.224   0.519
    8CHTO  C107 3080   6.311   0.240   0.483
    8CHTO   O70 3081   6.311   0.383   0.493
    8CHTO  H170 3082   6.360   0.410   0.568
    8CHTO   O57 3083   6.625   0.245   0.115
    8CHTO   C85 3084   6.719   0.347   0.075
    8CHTO  H157 3085   6.816   0.320   0.122
    8CHTO   C83 3086   6.679   0.486   0.136
    8CHTO  H155 3087   6.696   0.482   0.244
    8CHTO   O56 3088   6.538   0.507   0.118
    8CHTO  H135 3089   6.511   0.586   0.162
    8CHTO   C81 3090   6.769   0.599   0.076
    8CHTO  H153 3091   6.872   0.575   0.099
    8CHTO   N14 3092   6.749   0.732   0.140
    8CHTO  H141 3093   6.731   0.807   0.066
    8CHTO  H142 3094   6.667   0.730   0.208
    8CHTO   C79 3095   6.753   0.600  10.001
    8CHTO  H151 3096   6.819   0.678   9.963
    8CHTO   O52 3097   6.800   0.473   9.947
    8CHTO   C86 3098   6.730   0.357  10.000
    8CHTO  H158 3099   6.629   0.363   9.956
    8CHTO   C90 3100   6.793   0.227   9.944
    8CHTO   O60 3101   6.769   0.216   9.803
    8CHTO  H138 3102   6.809   0.138   9.771
    8CHTO   O50 3103   6.619   0.626   9.955
    8CHTO   C73 3104   6.524   0.686   9.866
    8CHTO  H145 3105   6.572   0.707   9.769
    8CHTO   C74 3106   6.471   0.820   9.926
    8CHTO  H146 3107   6.559   0.885   9.941
    8CHTO   O54 3108   6.390   0.886   9.827
    8CHTO  H133 3109   6.313   0.835   9.808
    8CHTO   C75 3110   6.396   0.789  10.062
    8CHTO  H147 3111   6.470   0.750   0.052
    8CHTO   N13 3112   6.339   0.908   0.047
    8CHTO  H139 3113   6.292   0.880   0.139
    8CHTO  H140 3114   6.266   0.955  10.064
    8CHTO   C76 3115   6.287   0.673  10.040
    8CHTO  H148 3116   6.201   0.715   9.987
    8CHTO   O49 3117   6.339   0.558   9.967
    8CHTO   C77 3118   6.404   0.590   9.843
    8CHTO  H149 3119   6.333   0.638   9.775
    8CHTO   C88 3120   6.447   0.461   9.773
    8CHTO   O58 3121   6.331   0.380   9.739
    8CHTO  H136 3122   6.360   0.301   9.698
    8CHTO   O51 3123   6.249   0.611   0.098
    8CHTO   C78 3124   6.102   0.565   0.107
    8CHTO  H150 3125   6.059   0.554   0.006
    8CHTO   C80 3126   6.023   0.672   0.185
    8CHTO  H152 3127   6.080   0.700   0.276
    8CHTO   O55 3128   6.015   0.790   0.102
    8CHTO  H134 3129   5.967   0.773   0.024
    8CHTO   C84 3130   5.878   0.624   0.227
    8CHTO  H156 3131   5.818   0.616   0.137
    8CHTO   N15 3132   5.809   0.722   0.318
    8CHTO  H143 3133   5.711   0.687   0.341
    8CHTO  H144 3134   5.865   0.734   0.408
    8CHTO   C87 3135   5.888   0.483   0.292
    8CHTO  H159 3136   5.943   0.490   0.386
    8CHTO   O53 3137   5.959   0.390   0.195
    8CHTO   C82 3138   6.096   0.427   0.175
    8CHTO  H154 3139   6.150   0.427   0.270
    8CHTO   C89 3140   6.160   0.316   0.088
    8CHTO   O59 3141   6.302   0.327   0.080
    8CHTO  H137 3142   6.336   0.258   0.026
    8CHTO   O45 3143   5.739   0.423   0.321
    8CHTO   C67 3144   5.736   0.301   0.397
    8CHTO  H124 3145   5.795   0.226   0.344
    8CHTO   C65 3146   5.795   0.320   0.542
    8CHTO  H122 3147   5.798   0.428   0.559
    8CHTO   O44 3148   5.930   0.270   0.538
    8CHTO  H102 3149   5.975   0.293   0.618
    8CHTO   C63 3150   5.701   0.265   0.655
    8CHTO  H120 3151   5.612   0.328   0.661
    8CHTO   N11 3152   5.753   0.275   0.796
    8CHTO  H108 3153   5.784   0.375   0.816
    8CHTO  H109 3154   5.676   0.247   0.865
    8CHTO   C61 3155   5.651   0.121   0.613
    8CHTO  H118 3156   5.575   0.092   0.687
    8CHTO   O40 3157   5.585   0.121   0.483
    8CHTO   C68 3158   5.589   0.244   0.403
    8CHTO  H125 3159   5.521   0.319   0.449
    8CHTO   C72 3160   5.529   0.210   0.264
    8CHTO   O48 3161   5.507   0.325   0.182
    8CHTO  H105 3162   5.589   0.365   0.159
    8CHTO   O38 3163   5.758   0.025   0.613
    8CHTO   C55 3164   5.722   9.888   0.585
    8CHTO  H112 3165   5.630   9.884   0.525
    8CHTO   C56 3166   5.708   9.804   0.719
    8CHTO  H113 3167   5.803   9.815   0.775
    8CHTO   O42 3168   5.604   9.860   0.802
    8CHTO  H100 3169   5.629   9.945   0.831
    8CHTO   C57 3170   5.680   9.651   0.686
    8CHTO  H114 3171   5.580   9.647   0.643
    8CHTO   N10 3172   5.681   9.563   0.805
    8CHTO  H106 3173   5.615   9.478   0.789
    8CHTO  H107 3174   5.648   9.617   0.892
    8CHTO   C58 3175   5.781   9.599   0.580
    8CHTO  H115 3176   5.882   9.591   0.626
    8CHTO   O37 3177   5.788   9.688   0.467
    8CHTO   C59 3178   5.832   9.821   0.498
    8CHTO  H116 3179   5.927   9.818   0.551
    8CHTO   C70 3180   5.853   9.898   0.367
    8CHTO   O46 3181   5.958   9.841   0.288
    8CHTO  H103 3182   5.969   9.891   0.209
    8CHTO   O39 3183   5.733   9.444   0.524
    8CHTO   C60 3184   5.742   9.424   0.382
    8CHTO  H117 3185   5.696   9.508   0.331
    8CHTO   C62 3186   5.890   9.412   0.335
    8CHTO  H119 3187   5.941   9.506   0.367
    8CHTO   O43 3188   5.955   9.301   0.399
    8CHTO  H101 3189   5.961   9.316   0.492
    8CHTO   C66 3190   5.893   9.405   0.174
    8CHTO  H123 3191   5.840   9.492   0.135
    8CHTO   N12 3192   6.030   9.410   0.117
    8CHTO  H110 3193   6.041   9.497   0.053
    8CHTO  H111 3194   6.105   9.410   0.196
    8CHTO   C69 3195   5.814   9.279   0.126
    8CHTO  H126 3196   5.868   9.187   0.158
    8CHTO   O41 3197   5.668   9.280   0.188
    8CHTO   C64 3198   5.662   9.297   0.340
    8CHTO  H121 3199   5.705   9.208   0.391
    8CHTO   C71 3200   5.514   9.310   0.384
    8CHTO   O47 3201   5.441   9.192   0.351
    8CHTO  H104 3202   5.350   9.204   0.373
    8CHTO   O34 3203   5.802   9.278  10.052
    8CHTO   C49 3204   5.700   9.242   9.949
    8CHTO   H91 3205   5.674   9.137   9.965
    8CHTO   C47 3206   5.764   9.260   9.809
    8CHTO   H89 3207   5.689   9.217   9.739
    8CHTO   O33 3208   5.885   9.185   9.797
    8CHTO   H70 3209   5.867   9.093   9.803
    8CHTO   C45 3210   5.793   9.416   9.777
    8CHTO   H87 3211   5.898   9.437   9.802
    8CHTO    N8 3212   5.774   9.440   9.632
    8CHTO   H75 3213   5.868   9.463   9.585
    8CHTO   H76 3214   5.728   9.356   9.582
    8CHTO   C43 3215   5.708   9.512   9.875
    8CHTO   H85 3216   5.762   9.513   9.970
    8CHTO   O29 3217   5.575   9.459   9.891
    8CHTO   C50 3218   5.570   9.330   9.955
    8CHTO   H92 3219   5.545   9.347  10.061
    8CHTO   C54 3220   5.446   9.255   9.900
    8CHTO   O36 3221   5.421   9.134   9.972
    8CHTO   H72 3222   5.347   9.090   9.935
    8CHTO   O27 3223   5.706   9.649   9.834
    8CHTO   C37 3224   5.647   9.769   9.886
    8CHTO   H79 3225   5.554   9.745   9.939
    8CHTO   C38 3226   5.743   9.839   9.988
    8CHTO   H80 3227   5.842   9.846   9.941
    8CHTO   O31 3228   5.753   9.755   0.023
    8CHTO   H68 3229   5.797   9.675   0.002
    8CHTO   C39 3230   5.692   9.983  10.027
    8CHTO   H81 3231   5.605   9.970   0.009
    8CHTO    N7 3232   5.793   0.063   0.024
    8CHTO   H73 3233   5.753   0.090   0.120
    8CHTO   H74 3234   5.885   0.006   0.037
    8CHTO   C40 3235   5.645   0.065   9.901
    8CHTO   H82 3236   5.731   0.098   9.843
    8CHTO   O26 3237   5.555   9.986   9.821
    8CHTO   C41 3238   5.616   9.865   9.769
    8CHTO   H83 3239   5.709   9.889   9.717
    8CHTO   C52 3240   5.519   9.802   9.665
    8CHTO   O35 3241   5.501   9.890   9.547
    8CHTO   H71 3242   5.581   9.898   9.499
    8CHTO   O28 3243   5.565   0.180   9.936
    8CHTO   C42 3244   5.552   0.294   9.846
    8CHTO   H84 3245   5.477   0.357   9.894
    8CHTO   C44 3246   5.497   0.264   9.702
    8CHTO   H86 3247   5.559   0.188   9.656
    8CHTO   O32 3248   5.365   0.208   9.720
    8CHTO   H69 3249   5.330   0.180   9.637
    8CHTO   C48 3250   5.496   0.391   9.607
    8CHTO   H90 3251   5.419   0.460   9.643
    8CHTO    N9 3252   5.456   0.356   9.466
    8CHTO   H77 3253   5.454   0.445   9.405
    8CHTO   H78 3254   5.526   0.284   9.425
    8CHTO   C51 3255   5.635   0.464   9.614
    8CHTO   H93 3256   5.711   0.396   9.574
    8CHTO   O30 3257   5.660   0.498   9.751
    8CHTO   C46 3258   5.683   0.379   9.837
    8CHTO   H88 3259   5.762   0.318   9.793
    8CHTO   C53 3260   5.727   0.430   9.976
    8CHTO   O72 3261   5.852   0.499   9.967
    8CHTO  H199 3262   5.841   0.579   9.919
    8CHTO   O22 3263   5.637   0.589   9.543
    8CHTO   C31 3264   5.764   0.655   9.504
    8CHTO   H59 3265   5.734   0.752   9.459
    8CHTO   C29 3266   5.859   0.689   9.622
    8CHTO   H57 3267   5.882   0.594   9.674
    8CHTO   O21 3268   5.786   0.771   9.716
    8CHTO   H37 3269   5.715   0.723   9.753
    8CHTO   C27 3270   5.994   0.755   9.573
    8CHTO   H55 3271   5.970   0.850   9.524
    8CHTO    N5 3272   6.088   0.780   9.685
    8CHTO   H43 3273   6.109   0.886   9.693
    8CHTO   H44 3274   6.180   0.725   9.674
    8CHTO   C25 3275   6.056   0.661   9.464
    8CHTO   H53 3276   6.075   0.562   9.510
    8CHTO   O17 3277   5.961   0.645   9.354
    8CHTO   C32 3278   5.840   0.578   9.391
    8CHTO   H60 3279   5.864   0.478   9.428
    8CHTO   C36 3280   5.752   0.565   9.265
    8CHTO   O25 3281   5.815   0.482   9.167
    8CHTO   H40 3282   5.760   0.476   9.091
    8CHTO   O15 3283   6.189   0.713   9.403
    8CHTO   C19 3284   6.332   0.691   9.382
    8CHTO   H47 3285   6.347   0.720   9.277
    8CHTO   C20 3286   6.424   0.778   9.473
    8CHTO   H48 3287   6.409   0.756   9.579
    8CHTO   O19 3288   6.385   0.915   9.449
    8CHTO   H35 3289   6.431   0.972   9.507
    8CHTO   C21 3290   6.577   0.756   9.439
    8CHTO   H49 3291   6.595   0.788   9.336
    8CHTO    N4 3292   6.669   0.835   9.524
    8CHTO   H41 3293   6.655   0.809   9.628
    8CHTO   H42 3294   6.651   0.940   9.511
    8CHTO   C22 3295   6.607   0.604   9.443
    8CHTO   H50 3296   6.600   0.569   9.547
    8CHTO   O14 3297   6.516   0.531   9.360
    8CHTO   C23 3298   6.377   0.541   9.392
    8CHTO   H51 3299   6.362   0.500   9.493
    8CHTO   C34 3300   6.308   0.448   9.291
    8CHTO   O23 3301   6.172   0.419   9.325
    8CHTO   H38 3302   6.120   0.496   9.317
    8CHTO   O16 3303   6.738   0.573   9.389
    8CHTO   C24 3304   6.794   0.428   9.432
    8CHTO   H52 3305   6.718   0.367   9.480
    8CHTO   C26 3306   6.913   0.447   9.528
    8CHTO   H54 3307   6.985   0.520   9.481
    8CHTO   O20 3308   6.864   0.506   9.649
    8CHTO   H36 3309   6.837   0.595   9.634
    8CHTO   C30 3310   6.990   0.313   9.554
    8CHTO   H58 3311   6.927   0.246   9.614
    8CHTO    N6 3312   7.114   0.336   9.634
    8CHTO   H45 3313   7.089   0.380   9.729
    8CHTO   H46 3314   7.164   0.242   9.651
    8CHTO   C33 3315   7.018   0.238   9.421
    8CHTO   H61 3316   7.091   0.294   9.361
    8CHTO   O18 3317   6.896   0.226   9.345
    8CHTO   C28 3318   6.840   0.352   9.305
    8CHTO   H56 3319   6.914   0.412   9.252
    8CHTO   C35 3320   6.722   0.324   9.207
    8CHTO   O24 3321   6.619   0.244   9.266
    8CHTO   H39 3322   6.551   0.230   9.203
    8CHTO    O9 3323   7.078   0.108   9.443
    8CHTO   C13 3324   7.110   0.027   9.304
    8CHTO   H26 3325   7.125   0.102   9.223
    8CHTO   C11 3326   6.990   9.928   9.272
    8CHTO   H24 3327   6.906   9.988   9.233
    8CHTO    O8 3328   6.946   9.864   9.394
    8CHTO    H3 3329   6.870   9.811   9.377
    8CHTO    C9 3330   7.037   9.827   9.164
    8CHTO   H22 3331   7.076   9.889   9.081
    8CHTO    N2 3332   6.926   9.751   9.103
    8CHTO   H10 3333   6.882   9.684   9.176
    8CHTO   H11 3334   6.962   9.695   9.018
    8CHTO    C7 3335   7.157   9.740   9.222
    8CHTO   H20 3336   7.226   9.730   9.135
    8CHTO    O4 3337   7.227   9.806   9.330
    8CHTO   C14 3338   7.248   9.947   9.312
    8CHTO   H27 3339   7.303   9.961   9.216
    8CHTO   C18 3340   7.343   9.997   9.424
    8CHTO   O13 3341   7.379   0.134   9.405
    8CHTO    H7 3342   7.304   0.189   9.418
    8CHTO    O2 3343   7.111   9.588   9.272
    8CHTO    C1 3344   7.207   9.511   9.344
    8CHTO   H14 3345   7.254   9.574   9.422
    8CHTO    C2 3346   7.322   9.446   9.256
    8CHTO   H15 3347   7.271   9.395   9.173
    8CHTO    O6 3348   7.405   9.552   9.203
    8CHTO    H1 3349   7.469   9.516   9.144
    8CHTO    C3 3350   7.410   9.341   9.341
    8CHTO   H16 3351   7.470   9.396   9.415
    8CHTO    N1 3352   7.507   9.265   9.255
    8CHTO    H8 3353   7.565   9.197   9.315
    8CHTO    H9 3354   7.574   9.334   9.205
    8CHTO    C4 3355   7.317   9.246   9.424
    8CHTO   H17 3356   7.265   9.178   9.355
    8CHTO    O1 3357   7.222   9.322   9.500
    8CHTO    C5 3358   7.130   9.399   9.420
    8CHTO   H18 3359   7.083   9.335   9.346
    8CHTO   C16 3360   7.021   9.456   9.513
    8CHTO   O11 3361   6.945   9.351   9.573
    8CHTO    H5 3362   6.879   9.388   9.630
    8CHTO    O3 3363   7.390   9.172   9.524
    8CHTO    C6 3364   7.334   9.039   9.556
    8CHTO   H19 3365   7.242   9.018   9.502
    8CHTO    C8 3366   7.438   8.928   9.519
    8CHTO   H21 3367   7.531   8.950   9.571
    8CHTO    O7 3368   7.462   8.935   9.377
    8CHTO    H2 3369   7.384   8.913   9.329
    8CHTO   C12 3370   7.386   8.786   9.564
    8CHTO   H25 3371   7.301   8.761   9.497
    8CHTO    N3 3372   7.491   8.680   9.541
    8CHTO   H12 3373   7.517   8.676   9.437
    8CHTO   H13 3374   7.453   8.584   9.574
    8CHTO   C15 3375   7.334   8.790   9.712
    8CHTO   H28 3376   7.416   8.793   9.784
    8CHTO   O10 3377   7.244   8.673   9.744
    8CHTO    H4 3378   7.292   8.592   9.736
    8CHTO    O5 3379   7.245   8.900   9.736
    8CHTO   C10 3380   7.302   9.028   9.707
    8CHTO   H23 3381   7.393   9.040   9.766
    8CHTO   C17 3382   7.202   9.135   9.755
    8CHTO   O12 3383   7.188   9.136   9.897
    8CHTO    H6 3384   7.267   9.166   9.937
    9CHTO  H203 3385   7.154   5.242   5.473
    9CHTO   O82 3386   7.238   5.242   5.515
    9CHTO  C123 3387   7.344   5.221   5.419
    9CHTO  H227 3388   7.441   5.226   5.472
    9CHTO   O77 3389   7.320   5.084   5.374
    9CHTO  C118 3390   7.416   5.034   5.279
    9CHTO  H222 3391   7.518   5.045   5.318
    9CHTO  C125 3392   7.386   4.882   5.256
    9CHTO   O84 3393   7.401   4.807   5.377
    9CHTO  H205 3394   7.331   4.828   5.437
    9CHTO  C114 3395   7.402   5.118   5.149
    9CHTO  H218 3396   7.299   5.111   5.114
    9CHTO  C116 3397   7.432   5.268   5.181
    9CHTO  H220 3398   7.539   5.278   5.211
    9CHTO   O79 3399   7.417   5.346   5.061
    9CHTO  H201 3400   7.329   5.342   5.030
    9CHTO  C120 3401   7.339   5.321   5.298
    9CHTO  H224 3402   7.236   5.324   5.256
    9CHTO   N21 3403   7.373   5.459   5.340
    9CHTO  H211 3404   7.319   5.531   5.281
    9CHTO  H212 3405   7.479   5.476   5.332
    9CHTO   O75 3406   7.494   5.061   5.053
    9CHTO  C112 3407   7.421   4.969   4.931
    9CHTO  H216 3408   7.313   4.961   4.952
    9CHTO   O73 3409   7.485   4.840   4.932
    9CHTO  C113 3410   7.427   4.747   4.841
    9CHTO  H217 3411   7.318   4.738   4.863
    9CHTO  C124 3412   7.488   4.608   4.865
    9CHTO   O83 3413   7.630   4.602   4.844
    9CHTO  H204 3414   7.649   4.614   4.753
    9CHTO  C109 3415   7.446   4.795   4.694
    9CHTO  H213 3416   7.554   4.795   4.675
    9CHTO  C110 3417   7.388   4.940   4.678
    9CHTO  H214 3418   7.279   4.934   4.682
    9CHTO   O78 3419   7.422   4.987   4.546
    9CHTO  H200 3420   7.515   4.994   4.536
    9CHTO  C111 3421   7.441   5.035   4.789
    9CHTO  H215 3422   7.549   5.050   4.774
    9CHTO   N19 3423   7.378   5.169   4.785
    9CHTO  H207 3424   7.418   5.232   4.863
    9CHTO  H208 3425   7.396   5.215   4.689
    9CHTO   O74 3426   7.380   4.703   4.602
    9CHTO  C115 3427   7.462   4.674   4.473
    9CHTO  H219 3428   7.528   4.757   4.446
    9CHTO   O76 3429   7.559   4.548   4.492
    9CHTO  C122 3430   7.488   4.426   4.517
    9CHTO  H226 3431   7.434   4.436   4.612
    9CHTO  C126 3432   7.592   4.310   4.538
    9CHTO   O85 3433   7.677   4.333   4.651
    9CHTO  H206 3434   7.740   4.264   4.658
    9CHTO  C121 3435   7.387   4.394   4.400
    9CHTO  H225 3436   7.445   4.380   4.307
    9CHTO   O81 3437   7.317   4.271   4.424
    9CHTO  H202 3438   7.265   4.277   4.502
    9CHTO  C119 3439   7.288   4.514   4.380
    9CHTO  H223 3440   7.230   4.489   4.291
    9CHTO  C117 3441   7.360   4.652   4.355
    9CHTO  H221 3442   7.295   4.739   4.359
    9CHTO   N20 3443   7.427   4.660   4.221
    9CHTO  H209 3444   7.473   4.757   4.209
    9CHTO  H210 3445   7.355   4.643   4.143
    9CHTO   O80 3446   7.174   4.523   4.490
    9CHTO  C103 3447   7.045   4.619   4.464
    9CHTO  H190 3448   7.078   4.722   4.445
    9CHTO  C101 3449   6.949   4.575   4.348
    9CHTO  H188 3450   6.925   4.470   4.361
    9CHTO   O68 3451   7.023   4.592   4.212
    9CHTO  H168 3452   6.970   4.558   4.142
    9CHTO   C99 3453   6.813   4.660   4.349
    9CHTO  H186 3454   6.836   4.765   4.321
    9CHTO   N17 3455   6.713   4.611   4.248
    9CHTO  H174 3456   6.681   4.511   4.274
    9CHTO  H175 3457   6.756   4.614   4.149
    9CHTO   C97 3458   6.751   4.668   4.492
    9CHTO  H184 3459   6.705   4.571   4.518
    9CHTO   O64 3460   6.850   4.708   4.588
    9CHTO  C104 3461   6.965   4.621   4.599
    9CHTO  H191 3462   6.935   4.519   4.625
    9CHTO  C108 3463   7.054   4.671   4.714
    9CHTO   O71 3464   6.989   4.659   4.841
    9CHTO  H171 3465   6.980   4.568   4.864
    9CHTO   O62 3466   6.654   4.775   4.503
    9CHTO   C91 3467   6.513   4.742   4.504
    9CHTO  H178 3468   6.496   4.672   4.423
    9CHTO   C92 3469   6.430   4.870   4.469
    9CHTO  H179 3470   6.473   4.918   4.380
    9CHTO   O66 3471   6.298   4.829   4.431
    9CHTO  H166 3472   6.255   4.784   4.501
    9CHTO   C93 3473   6.417   4.972   4.589
    9CHTO  H180 3474   6.333   5.039   4.563
    9CHTO   N16 3475   6.533   5.064   4.604
    9CHTO  H172 3476   6.607   5.045   4.527
    9CHTO  H173 3477   6.577   5.055   4.702
    9CHTO   C94 3478   6.381   4.896   4.724
    9CHTO  H181 3479   6.462   4.902   4.797
    9CHTO   O61 3480   6.355   4.756   4.704
    9CHTO   C95 3481   6.458   4.679   4.640
    9CHTO  H182 3482   6.542   4.669   4.709
    9CHTO  C106 3483   6.401   4.536   4.617
    9CHTO   O69 3484   6.379   4.468   4.741
    9CHTO  H169 3485   6.310   4.511   4.789
    9CHTO   O63 3486   6.249   4.959   4.783
    9CHTO   C96 3487   6.275   5.053   4.903
    9CHTO  H183 3488   6.359   5.117   4.877
    9CHTO   C98 3489   6.310   4.978   5.036
    9CHTO  H185 3490   6.379   4.895   5.015
    9CHTO   O67 3491   6.383   5.068   5.121
    9CHTO  H167 3492   6.331   5.143   5.143
    9CHTO  C102 3493   6.181   4.927   5.117
    9CHTO  H189 3494   6.218   4.898   5.216
    9CHTO   N18 3495   6.117   4.805   5.063
    9CHTO  H176 3496   6.085   4.822   4.961
    9CHTO  H177 3497   6.187   4.723   5.065
    9CHTO  C105 3498   6.080   5.045   5.135
    9CHTO  H192 3499   5.979   5.014   5.105
    9CHTO   O65 3500   6.111   5.164   5.060
    9CHTO  C100 3501   6.145   5.143   4.921
    9CHTO  H187 3502   6.061   5.092   4.873
    9CHTO  C107 3503   6.163   5.280   4.851
    9CHTO   O70 3504   6.041   5.354   4.853
    9CHTO  H170 3505   6.054   5.436   4.809
    9CHTO   O57 3506   6.083   5.076   5.292
    9CHTO   C85 3507   5.966   5.120   5.364
    9CHTO  H157 3508   5.892   5.038   5.355
    9CHTO   C83 3509   5.901   5.245   5.295
    9CHTO  H155 3510   5.863   5.214   5.197
    9CHTO   O56 3511   6.002   5.344   5.270
    9CHTO  H135 3512   6.065   5.312   5.209
    9CHTO   C81 3513   5.782   5.296   5.380
    9CHTO  H153 3514   5.711   5.214   5.391
    9CHTO   N14 3515   5.703   5.402   5.310
    9CHTO  H141 3516   5.604   5.368   5.289
    9CHTO  H142 3517   5.697   5.491   5.370
    9CHTO   C79 3518   5.832   5.337   5.524
    9CHTO  H151 3519   5.743   5.365   5.582
    9CHTO   O52 3520   5.889   5.220   5.590
    9CHTO   C86 3521   5.997   5.155   5.515
    9CHTO  H158 3522   6.082   5.226   5.522
    9CHTO   C90 3523   6.042   5.028   5.591
    9CHTO   O60 3524   6.095   5.059   5.720
    9CHTO  H138 3525   6.122   4.981   5.763
    9CHTO   O50 3526   5.925   5.446   5.527
    9CHTO   C73 3527   5.974   5.570   5.583
    9CHTO  H145 3528   5.938   5.582   5.686
    9CHTO   C74 3529   5.925   5.691   5.497
    9CHTO  H146 3530   5.815   5.691   5.501
    9CHTO   O54 3531   5.967   5.813   5.561
    9CHTO  H133 3532   6.061   5.819   5.562
    9CHTO   C75 3533   5.979   5.674   5.350
    9CHTO  H147 3534   5.933   5.584   5.307
    9CHTO   N13 3535   5.939   5.782   5.257
    9CHTO  H139 3536   5.978   5.877   5.292
    9CHTO  H140 3537   5.978   5.763   5.158
    9CHTO   C76 3538   6.138   5.650   5.350
    9CHTO  H148 3539   6.189   5.745   5.368
    9CHTO   O49 3540   6.181   5.551   5.451
    9CHTO   C77 3541   6.130   5.569   5.584
    9CHTO  H149 3542   6.166   5.664   5.624
    9CHTO   C88 3543   6.189   5.459   5.673
    9CHTO   O58 3544   6.151   5.479   5.815
    9CHTO  H136 3545   6.192   5.412   5.868
    9CHTO   O51 3546   6.179   5.581   5.211
    9CHTO   C78 3547   6.326   5.606   5.168
    9CHTO  H150 3548   6.385   5.653   5.250
    9CHTO   C80 3549   6.327   5.699   5.045
    9CHTO  H152 3550   6.256   5.659   4.969
    9CHTO   O55 3551   6.277   5.827   5.088
    9CHTO  H134 3552   6.186   5.822   5.110
    9CHTO   C84 3553   6.471   5.712   4.980
    9CHTO  H156 3554   6.536   5.761   5.053
    9CHTO   N15 3555   6.474   5.798   4.857
    9CHTO  H143 3556   6.378   5.841   4.837
    9CHTO  H144 3557   6.505   5.743   4.771
    9CHTO   C87 3558   6.528   5.571   4.954
    9CHTO  H159 3559   6.468   5.519   4.879
    9CHTO   O53 3560   6.526   5.494   5.088
    9CHTO   C82 3561   6.393   5.470   5.136
    9CHTO  H154 3562   6.335   5.413   5.063
    9CHTO   C89 3563   6.410   5.381   5.261
    9CHTO   O59 3564   6.287   5.320   5.303
    9CHTO  H137 3565   6.258   5.259   5.238
    9CHTO   O45 3566   6.687   5.580   4.897
    9CHTO   C67 3567   6.777   5.476   4.939
    9CHTO  H124 3568   6.745   5.436   5.035
    9CHTO   C65 3569   6.782   5.359   4.834
    9CHTO  H122 3570   6.768   5.405   4.736
    9CHTO   O44 3571   6.668   5.276   4.863
    9CHTO  H102 3572   6.588   5.320   4.843
    9CHTO   C63 3573   6.924   5.290   4.828
    9CHTO  H120 3574   6.989   5.350   4.764
    9CHTO   N11 3575   6.931   5.157   4.758
    9CHTO  H108 3576   6.879   5.083   4.816
    9CHTO  H109 3577   7.033   5.127   4.746
    9CHTO   C61 3578   6.988   5.291   4.971
    9CHTO  H118 3579   7.087   5.244   4.964
    9CHTO   O40 3580   7.010   5.427   5.019
    9CHTO   C68 3581   6.923   5.533   4.965
    9CHTO  H125 3582   6.966   5.569   4.870
    9CHTO   C72 3583   6.926   5.651   5.065
    9CHTO   O48 3584   6.860   5.769   5.016
    9CHTO  H105 3585   6.906   5.803   4.943
    9CHTO   O38 3586   6.904   5.220   5.065
    9CHTO   C55 3587   6.967   5.163   5.181
    9CHTO  H112 3588   7.069   5.201   5.193
    9CHTO   C56 3589   6.965   5.005   5.167
    9CHTO  H113 3590   6.862   4.977   5.140
    9CHTO   O42 3591   7.047   4.965   5.056
    9CHTO  H100 3592   7.137   4.991   5.071
    9CHTO   C57 3593   7.008   4.935   5.302
    9CHTO  H114 3594   7.114   4.957   5.316
    9CHTO   N10 3595   6.993   4.787   5.299
    9CHTO  H106 3596   7.008   4.749   5.199
    9CHTO  H107 3597   7.065   4.742   5.365
    9CHTO   C58 3598   6.929   4.997   5.421
    9CHTO  H115 3599   6.821   4.969   5.412
    9CHTO   O37 3600   6.942   5.140   5.423
    9CHTO   C59 3601   6.889   5.206   5.308
    9CHTO  H116 3602   6.783   5.183   5.298
    9CHTO   C70 3603   6.903   5.357   5.328
    9CHTO   O46 3604   6.818   5.408   5.432
    9CHTO  H103 3605   6.846   5.375   5.515
    9CHTO   O39 3606   6.989   4.948   5.562
    9CHTO   C60 3607   6.890   4.919   5.661
    9CHTO  H117 3608   6.805   4.986   5.649
    9CHTO   C62 3609   6.838   4.772   5.649
    9CHTO  H119 3610   6.786   4.765   5.551
    9CHTO   O43 3611   6.951   4.682   5.649
    9CHTO  H101 3612   7.001   4.692   5.571
    9CHTO   C66 3613   6.732   4.740   5.766
    9CHTO  H123 3614   6.650   4.810   5.759
    9CHTO   N12 3615   6.673   4.604   5.756
    9CHTO  H110 3616   6.711   4.551   5.669
    9CHTO  H111 3617   6.565   4.610   5.753
    9CHTO   C69 3618   6.801   4.762   5.903
    9CHTO  H126 3619   6.889   4.695   5.909
    9CHTO   O41 3620   6.849   4.910   5.912
    9CHTO   C64 3621   6.949   4.947   5.803
    9CHTO  H121 3622   7.041   4.886   5.815
    9CHTO   C71 3623   6.988   5.096   5.817
    9CHTO   O47 3624   7.056   5.120   5.941
    9CHTO  H104 3625   6.996   5.110   6.013
    9CHTO   O34 3626   6.704   4.732   6.027
    9CHTO   C49 3627   6.678   4.708   6.178
    9CHTO   H91 3628   6.570   4.714   6.192
    9CHTO   C47 3629   6.748   4.818   6.260
    9CHTO   H89 3630   6.703   4.808   6.362
    9CHTO   O33 3631   6.714   4.949   6.210
    9CHTO   H70 3632   6.749   4.961   6.124
    9CHTO   C45 3633   6.910   4.800   6.265
    9CHTO   H87 3634   6.955   4.872   6.195
    9CHTO    N8 3635   6.959   4.833   6.402
    9CHTO   H75 3636   7.021   4.753   6.440
    9CHTO   H76 3637   6.878   4.851   6.470
    9CHTO   C43 3638   6.953   4.655   6.209
    9CHTO   H85 3639   6.939   4.662   6.101
    9CHTO   O29 3640   6.868   4.555   6.267
    9CHTO   C50 3641   6.729   4.568   6.228
    9CHTO   H92 3642   6.712   4.496   6.146
    9CHTO   C54 3643   6.641   4.511   6.342
    9CHTO   O36 3644   6.662   4.577   6.468
    9CHTO   H72 3645   6.633   4.666   6.462
    9CHTO   O27 3646   7.093   4.625   6.223
    9CHTO   C37 3647   7.215   4.647   6.151
    9CHTO   H79 3648   7.281   4.560   6.164
    9CHTO   C38 3649   7.192   4.664   5.997
    9CHTO   H80 3650   7.115   4.741   5.982
    9CHTO   O31 3651   7.142   4.539   5.947
    9CHTO   H68 3652   7.119   4.547   5.857
    9CHTO   C39 3653   7.325   4.708   5.923
    9CHTO   H81 3654   7.397   4.627   5.932
    9CHTO    N7 3655   7.305   4.734   5.776
    9CHTO   H73 3656   7.271   4.644   5.727
    9CHTO   H74 3657   7.234   4.814   5.761
    9CHTO   C40 3658   7.385   4.833   5.996
    9CHTO   H82 3659   7.315   4.917   5.987
    9CHTO   O26 3660   7.409   4.799   6.133
    9CHTO   C41 3661   7.288   4.772   6.208
    9CHTO   H83 3662   7.220   4.859   6.202
    9CHTO   C52 3663   7.328   4.753   6.356
    9CHTO   O35 3664   7.381   4.877   6.414
    9CHTO   H71 3665   7.312   4.941   6.421
    9CHTO   O28 3666   7.515   4.874   5.947
    9CHTO   C42 3667   7.558   5.014   5.963
    9CHTO   H84 3668   7.662   5.011   5.929
    9CHTO   C44 3669   7.563   5.068   6.111
    9CHTO   H86 3670   7.468   5.047   6.159
    9CHTO   O32 3671   7.664   4.993   6.181
    9CHTO   H69 3672   7.749   5.010   6.145
    9CHTO   C48 3673   7.588   5.224   6.119
    9CHTO   H90 3674   7.688   5.246   6.083
    9CHTO    N9 3675   7.582   5.274   6.262
    9CHTO   H77 3676   7.504   5.347   6.275
    9CHTO   H78 3677   7.678   5.316   6.291
    9CHTO   C51 3678   7.483   5.293   6.025
    9CHTO   H93 3679   7.384   5.257   6.055
    9CHTO   O30 3680   7.516   5.253   5.891
    9CHTO   C46 3681   7.480   5.109   5.867
    9CHTO   H88 3682   7.373   5.098   5.884
    9CHTO   C53 3683   7.511   5.077   5.718
    9CHTO   O72 3684   7.648   5.099   5.684
    9CHTO  H199 3685   7.661   5.079   5.593
    9CHTO   O22 3686   7.486   5.437   6.024
    9CHTO   C31 3687   7.363   5.512   5.990
    9CHTO   H59 3688   7.392   5.620   5.993
    9CHTO   C29 3689   7.311   5.485   5.847
    9CHTO   H57 3690   7.296   5.376   5.838
    9CHTO   O21 3691   7.416   5.520   5.754
    9CHTO   H37 3692   7.393   5.492   5.668
    9CHTO   C27 3693   7.174   5.557   5.816
    9CHTO   H55 3694   7.191   5.666   5.818
    9CHTO    N5 3695   7.119   5.520   5.683
    9CHTO   H43 3696   7.190   5.544   5.606
    9CHTO   H44 3697   7.027   5.574   5.666
    9CHTO   C25 3698   7.074   5.524   5.932
    9CHTO   H53 3699   7.057   5.415   5.935
    9CHTO   O17 3700   7.131   5.568   6.058
    9CHTO   C32 3701   7.249   5.495   6.095
    9CHTO   H60 3702   7.224   5.389   6.103
    9CHTO   C36 3703   7.294   5.544   6.235
    9CHTO   O25 3704   7.197   5.513   6.336
    9CHTO   H40 3705   7.194   5.421   6.350
    9CHTO   O15 3706   6.935   5.598   5.917
    9CHTO   C19 3707   6.801   5.542   5.913
    9CHTO   H47 3708   6.736   5.630   5.924
    9CHTO   C20 3709   6.765   5.470   5.779
    9CHTO   H48 3710   6.832   5.385   5.760
    9CHTO   O19 3711   6.785   5.567   5.675
    9CHTO   H35 3712   6.774   5.527   5.591
    9CHTO   C21 3713   6.616   5.417   5.779
    9CHTO   H49 3714   6.549   5.503   5.783
    9CHTO    N4 3715   6.580   5.340   5.656
    9CHTO   H41 3716   6.664   5.334   5.588
    9CHTO   H42 3717   6.497   5.386   5.606
    9CHTO   C22 3718   6.592   5.336   5.908
    9CHTO   H50 3719   6.653   5.245   5.904
    9CHTO   O14 3720   6.627   5.411   6.025
    9CHTO   C23 3721   6.766   5.447   6.032
    9CHTO   H51 3722   6.825   5.354   6.028
    9CHTO   C34 3723   6.794   5.513   6.168
    9CHTO   O23 3724   6.776   5.420   6.275
    9CHTO   H38 3725   6.800   5.461   6.356
    9CHTO   O16 3726   6.452   5.303   5.924
    9CHTO   C24 3727   6.425   5.181   6.017
    9CHTO   H52 3728   6.502   5.170   6.094
    9CHTO   C26 3729   6.417   5.052   5.933
    9CHTO   H54 3730   6.343   5.067   5.851
    9CHTO   O20 3731   6.545   5.026   5.873
    9CHTO   H36 3732   6.564   5.091   5.808
    9CHTO   C30 3733   6.369   4.931   6.019
    9CHTO   H58 3734   6.448   4.904   6.091
    9CHTO    N6 3735   6.346   4.809   5.936
    9CHTO   H45 3736   6.438   4.781   5.886
    9CHTO   H46 3737   6.314   4.727   5.999
    9CHTO   C33 3738   6.243   4.968   6.104
    9CHTO   H61 3739   6.156   4.980   6.037
    9CHTO   O18 3740   6.264   5.092   6.174
    9CHTO   C28 3741   6.291   5.205   6.090
    9CHTO   H56 3742   6.212   5.218   6.016
    9CHTO   C35 3743   6.298   5.333   6.177
    9CHTO   O24 3744   6.172   5.365   6.238
    9CHTO   H39 3745   6.180   5.444   6.287
    9CHTO    O9 3746   6.209   4.862   6.195
    9CHTO   C13 3747   6.055   4.853   6.236
    9CHTO   H26 3748   5.995   4.852   6.142
    9CHTO   C11 3749   6.017   4.977   6.329
    9CHTO   H24 3750   5.999   5.064   6.264
    9CHTO    O8 3751   6.125   5.008   6.419
    9CHTO    H3 3752   6.106   5.086   6.467
    9CHTO    C9 3753   5.886   4.941   6.405
    9CHTO   H22 3754   5.816   4.906   6.328
    9CHTO    N2 3755   5.819   5.059   6.466
    9CHTO   H10 3756   5.723   5.076   6.420
    9CHTO   H11 3757   5.808   5.046   6.573
    9CHTO    C7 3758   5.917   4.822   6.504
    9CHTO   H20 3759   5.819   4.772   6.519
    9CHTO    O4 3760   6.012   4.726   6.451
    9CHTO   C14 3761   6.022   4.714   6.308
    9CHTO   H27 3762   5.922   4.681   6.272
    9CHTO   C18 3763   6.122   4.601   6.274
    9CHTO   O13 3764   6.252   4.620   6.333
    9CHTO    H7 3765   6.246   4.611   6.426
    9CHTO    O2 3766   5.974   4.875   6.649
    9CHTO    C1 3767   5.992   4.771   6.746
    9CHTO   H14 3768   5.995   4.671   6.697
    9CHTO    C2 3769   5.877   4.769   6.854
    9CHTO   H15 3770   5.871   4.871   6.895
    9CHTO    O6 3771   5.752   4.736   6.791
    9CHTO    H1 3772   5.726   4.805   6.733
    9CHTO    C3 3773   5.910   4.664   6.972
    9CHTO   H16 3774   5.896   4.562   6.931
    9CHTO    N1 3775   5.816   4.678   7.088
    9CHTO    H8 3776   5.762   4.586   7.104
    9CHTO    H9 3777   5.747   4.760   7.073
    9CHTO    C4 3778   6.061   4.671   7.017
    9CHTO   H17 3779   6.075   4.758   7.081
    9CHTO    O1 3780   6.152   4.678   6.905
    9CHTO    C5 3781   6.128   4.790   6.818
    9CHTO   H18 3782   6.121   4.881   6.878
    9CHTO   C16 3783   6.246   4.804   6.719
    9CHTO   O11 3784   6.364   4.849   6.786
    9CHTO    H5 3785   6.354   4.939   6.810
    9CHTO    O3 3786   6.096   4.550   7.088
    9CHTO    C6 3787   6.225   4.550   7.159
    9CHTO   H19 3788   6.295   4.624   7.119
    9CHTO    C8 3789   6.205   4.580   7.311
    9CHTO   H21 3790   6.131   4.510   7.350
    9CHTO    O7 3791   6.155   4.714   7.321
    9CHTO    H2 3792   6.131   4.733   7.410
    9CHTO   C12 3793   6.341   4.561   7.390
    9CHTO   H25 3794   6.408   4.643   7.356
    9CHTO    N3 3795   6.323   4.582   7.538
    9CHTO   H12 3796   6.220   4.606   7.562
    9CHTO   H13 3797   6.354   4.495   7.594
    9CHTO   C15 3798   6.407   4.423   7.354
    9CHTO   H28 3799   6.352   4.339   7.396
    9CHTO   O10 3800   6.554   4.415   7.398
    9CHTO    H4 3801   6.559   4.419   7.491
    9CHTO    O5 3802   6.419   4.407   7.211
    9CHTO   C10 3803   6.292   4.411   7.143
    9CHTO   H23 3804   6.227   4.334   7.186
    9CHTO   C17 3805   6.315   4.372   6.996
    9CHTO   O12 3806   6.406   4.459   6.929
    9CHTO    H6 3807   6.419   4.430   6.841
   10CHTO  H203 3808   6.682   7.056   6.354
   10CHTO   O82 3809   6.618   6.989   6.367
   10CHTO  C123 3810   6.498   7.046   6.423
   10CHTO  H227 3811   6.459   7.122   6.353
   10CHTO   O77 3812   6.408   6.932   6.429
   10CHTO  C118 3813   6.275   6.964   6.475
   10CHTO  H222 3814   6.233   7.042   6.410
   10CHTO  C125 3815   6.186   6.835   6.463
   10CHTO   O84 3816   6.232   6.728   6.546
   10CHTO  H205 3817   6.220   6.750   6.637
   10CHTO  C114 3818   6.282   7.017   6.619
   10CHTO  H218 3819   6.323   6.938   6.683
   10CHTO  C116 3820   6.377   7.140   6.630
   10CHTO  H220 3821   6.332   7.226   6.575
   10CHTO   O79 3822   6.386   7.179   6.768
   10CHTO  H201 3823   6.303   7.213   6.798
   10CHTO  C120 3824   6.519   7.106   6.568
   10CHTO  H224 3825   6.565   7.030   6.634
   10CHTO   N21 3826   6.609   7.224   6.568
   10CHTO  H211 3827   6.680   7.219   6.487
   10CHTO  H212 3828   6.660   7.232   6.663
   10CHTO   O75 3829   6.146   7.046   6.655
   10CHTO  C112 3830   6.103   6.994   6.801
   10CHTO  H216 3831   6.174   7.033   6.876
   10CHTO   O73 3832   6.103   6.850   6.798
   10CHTO  C113 3833   6.057   6.786   6.918
   10CHTO  H217 3834   6.118   6.821   7.004
   10CHTO  C124 3835   6.077   6.634   6.905
   10CHTO   O83 3836   6.214   6.597   6.885
   10CHTO  H204 3837   6.242   6.626   6.800
   10CHTO  C109 3838   5.908   6.823   6.938
   10CHTO  H213 3839   5.855   6.792   6.847
   10CHTO  C110 3840   5.898   6.977   6.956
   10CHTO  H214 3841   5.953   7.005   7.045
   10CHTO   O78 3842   5.759   7.014   6.975
   10CHTO  H200 3843   5.728   6.980   7.057
   10CHTO  C111 3844   5.958   7.049   6.832
   10CHTO  H215 3845   5.895   7.027   6.744
   10CHTO   N19 3846   5.962   7.197   6.845
   10CHTO  H207 3847   6.003   7.241   6.755
   10CHTO  H208 3848   5.862   7.235   6.861
   10CHTO   O74 3849   5.850   6.753   7.053
   10CHTO  C115 3850   5.709   6.678   7.016
   10CHTO  H219 3851   5.685   6.688   6.910
   10CHTO   O76 3852   5.717   6.529   7.039
   10CHTO  C122 3853   5.753   6.498   7.174
   10CHTO  H226 3854   5.855   6.534   7.190
   10CHTO  C126 3855   5.759   6.343   7.188
   10CHTO   O85 3856   5.856   6.283   7.101
   10CHTO  H206 3857   5.942   6.308   7.128
   10CHTO  C121 3858   5.655   6.563   7.281
   10CHTO  H225 3859   5.609   6.483   7.342
   10CHTO   O81 3860   5.730   6.646   7.371
   10CHTO  H202 3861   5.790   6.594   7.420
   10CHTO  C119 3862   5.541   6.646   7.214
   10CHTO  H223 3863   5.480   6.572   7.163
   10CHTO  C117 3864   5.595   6.746   7.103
   10CHTO  H221 3865   5.641   6.836   7.142
   10CHTO   N20 3866   5.481   6.795   7.017
   10CHTO  H209 3867   5.469   6.901   7.029
   10CHTO  H210 3868   5.497   6.770   6.913
   10CHTO   O80 3869   5.435   6.708   7.320
   10CHTO  C103 3870   5.290   6.646   7.330
   10CHTO  H190 3871   5.263   6.600   7.235
   10CHTO  C101 3872   5.263   6.543   7.446
   10CHTO  H188 3873   5.280   6.592   7.542
   10CHTO   O68 3874   5.359   6.426   7.435
   10CHTO  H168 3875   5.348   6.368   7.508
   10CHTO   C99 3876   5.109   6.498   7.442
   10CHTO  H186 3877   5.087   6.454   7.342
   10CHTO   N17 3878   5.068   6.398   7.546
   10CHTO  H174 3879   5.039   6.305   7.499
   10CHTO  H175 3880   5.148   6.382   7.617
   10CHTO   C97 3881   5.021   6.626   7.450
   10CHTO  H184 3882   5.034   6.671   7.551
   10CHTO   O64 3883   5.057   6.719   7.346
   10CHTO  C104 3884   5.192   6.767   7.352
   10CHTO  H191 3885   5.213   6.814   7.449
   10CHTO  C108 3886   5.208   6.878   7.248
   10CHTO   O71 3887   5.126   6.992   7.276
   10CHTO  H171 3888   5.035   6.969   7.265
   10CHTO   O62 3889   4.881   6.601   7.424
   10CHTO   C91 3890   4.787   6.690   7.487
   10CHTO  H178 3891   4.815   6.700   7.592
   10CHTO   C92 3892   4.648   6.620   7.485
   10CHTO  H179 3893   4.622   6.594   7.381
   10CHTO   O66 3894   4.660   6.495   7.556
   10CHTO  H166 3895   4.717   6.436   7.509
   10CHTO   C93 3896   4.536   6.710   7.550
   10CHTO  H180 3897   4.557   6.711   7.658
   10CHTO   N16 3898   4.400   6.653   7.538
   10CHTO  H172 3899   4.373   6.642   7.434
   10CHTO  H173 3900   4.329   6.715   7.590
   10CHTO   C94 3901   4.542   6.859   7.496
   10CHTO  H181 3902   4.449   6.888   7.446
   10CHTO   O61 3903   4.643   6.880   7.395
   10CHTO   C95 3904   4.778   6.835   7.420
   10CHTO  H182 3905   4.830   6.830   7.325
   10CHTO  C106 3906   4.857   6.941   7.506
   10CHTO   O69 3907   4.867   7.066   7.437
   10CHTO  H169 3908   4.913   7.127   7.491
   10CHTO   O63 3909   4.569   6.953   7.618
   10CHTO   C96 3910   4.453   7.047   7.653
   10CHTO  H183 3911   4.374   7.035   7.579
   10CHTO   C98 3912   4.495   7.198   7.654
   10CHTO  H185 3913   4.538   7.226   7.557
   10CHTO   O67 3914   4.375   7.276   7.667
   10CHTO  H167 3915   4.395   7.368   7.659
   10CHTO  C102 3916   4.594   7.233   7.776
   10CHTO  H189 3917   4.574   7.338   7.803
   10CHTO   N18 3918   4.738   7.227   7.743
   10CHTO  H176 3919   4.760   7.296   7.663
   10CHTO  H177 3920   4.797   7.254   7.830
   10CHTO  C105 3921   4.559   7.144   7.900
   10CHTO  H192 3922   4.624   7.056   7.901
   10CHTO   O65 3923   4.423   7.099   7.898
   10CHTO  C100 3924   4.397   7.002   7.795
   10CHTO  H187 3925   4.446   6.908   7.824
   10CHTO  C107 3926   4.245   6.975   7.788
   10CHTO   O70 3927   4.197   6.920   7.911
   10CHTO  H170 3928   4.105   6.904   7.904
   10CHTO   O57 3929   4.590   7.235   8.027
   10CHTO   C85 3930   4.538   7.192   8.154
   10CHTO  H157 3931   4.469   7.108   8.135
   10CHTO   C83 3932   4.450   7.306   8.213
   10CHTO  H155 3933   4.370   7.327   8.142
   10CHTO   O56 3934   4.527   7.427   8.225
   10CHTO  H135 3935   4.472   7.497   8.254
   10CHTO   C81 3936   4.386   7.254   8.345
   10CHTO  H153 3937   4.330   7.163   8.323
   10CHTO   N14 3938   4.284   7.347   8.399
   10CHTO  H141 3939   4.330   7.439   8.429
   10CHTO  H142 3940   4.234   7.303   8.483
   10CHTO   C79 3941   4.499   7.217   8.450
   10CHTO  H151 3942   4.449   7.169   8.534
   10CHTO   O52 3943   4.590   7.118   8.392
   10CHTO   C86 3944   4.647   7.154   8.262
   10CHTO  H158 3945   4.715   7.240   8.284
   10CHTO   C90 3946   4.738   7.040   8.211
   10CHTO   O60 3947   4.849   7.020   8.299
   10CHTO  H138 3948   4.900   6.947   8.268
   10CHTO   O50 3949   4.574   7.329   8.501
   10CHTO   C73 3950   4.700   7.327   8.570
   10CHTO  H145 3951   4.777   7.284   8.505
   10CHTO   C74 3952   4.692   7.240   8.700
   10CHTO  H146 3953   4.657   7.140   8.670
   10CHTO   O54 3954   4.826   7.221   8.750
   10CHTO  H133 3955   4.862   7.303   8.778
   10CHTO   C75 3956   4.594   7.308   8.803
   10CHTO  H147 3957   4.495   7.318   8.757
   10CHTO   N13 3958   4.575   7.229   8.927
   10CHTO  H139 3959   4.607   7.284   9.015
   10CHTO  H140 3960   4.470   7.203   8.939
   10CHTO   C76 3961   4.648   7.457   8.831
   10CHTO  H148 3962   4.748   7.448   8.873
   10CHTO   O49 3963   4.654   7.531   8.705
   10CHTO   C77 3964   4.742   7.472   8.609
   10CHTO  H149 3965   4.843   7.469   8.650
   10CHTO   C88 3966   4.751   7.564   8.486
   10CHTO   O58 3967   4.809   7.696   8.524
   10CHTO  H136 3968   4.899   7.685   8.547
   10CHTO   O51 3969   4.551   7.540   8.924
   10CHTO   C78 3970   4.629   7.653   8.999
   10CHTO  H150 3971   4.729   7.670   8.954
   10CHTO   C80 3972   4.648   7.613   9.147
   10CHTO  H152 3973   4.547   7.594   9.192
   10CHTO   O55 3974   4.722   7.490   9.151
   10CHTO  H134 3975   4.809   7.502   9.118
   10CHTO   C84 3976   4.721   7.728   9.228
   10CHTO  H156 3977   4.822   7.736   9.189
   10CHTO   N15 3978   4.734   7.698   9.375
   10CHTO  H143 3979   4.637   7.684   9.418
   10CHTO  H144 3980   4.791   7.609   9.388
   10CHTO   C87 3981   4.650   7.864   9.204
   10CHTO  H159 3982   4.554   7.867   9.257
   10CHTO   O53 3983   4.627   7.889   9.053
   10CHTO   C82 3984   4.551   7.785   8.990
   10CHTO  H154 3985   4.454   7.775   9.038
   10CHTO   C89 3986   4.524   7.826   8.842
   10CHTO   O59 3987   4.645   7.848   8.768
   10CHTO  H137 3988   4.690   7.924   8.800
   10CHTO   O45 3989   4.743   7.984   9.252
   10CHTO   C67 3990   4.672   8.091   9.316
   10CHTO  H124 3991   4.570   8.098   9.280
   10CHTO   C65 3992   4.672   8.069   9.470
   10CHTO  H122 3993   4.638   7.966   9.485
   10CHTO   O44 3994   4.577   8.157   9.534
   10CHTO  H102 3995   4.606   8.246   9.527
   10CHTO   C63 3996   4.819   8.074   9.522
   10CHTO  H120 3997   4.878   8.002   9.466
   10CHTO   N11 3998   4.838   8.025   9.662
   10CHTO  H108 3999   4.791   8.092   9.731
   10CHTO  H109 4000   4.942   8.017   9.685
   10CHTO   C61 4001   4.881   8.216   9.492
   10CHTO  H118 4002   4.989   8.205   9.511
   10CHTO   O40 4003   4.867   8.254   9.351
   10CHTO   C68 4004   4.742   8.228   9.278
   10CHTO  H125 4005   4.770   8.220   9.171
   10CHTO   C72 4006   4.643   8.347   9.289
   10CHTO   O48 4007   4.689   8.464   9.221
   10CHTO  H105 4008   4.763   8.500   9.266
   10CHTO   O38 4009   4.827   8.324   9.573
   10CHTO   C55 4010   4.922   8.415   9.631
   10CHTO  H112 4011   5.022   8.398   9.588
   10CHTO   C56 4012   4.923   8.400   9.789
   10CHTO  H113 4013   4.818   8.406   9.822
   10CHTO   O42 4014   4.969   8.268   9.823
   10CHTO  H100 4015   4.958   8.253   9.915
   10CHTO   C57 4016   5.010   8.510   9.860
   10CHTO  H114 4017   5.114   8.487   9.836
   10CHTO   N10 4018   4.998   8.508  10.008
   10CHTO  H106 4019   5.089   8.545  10.054
   10CHTO  H107 4020   4.915   8.570  10.041
   10CHTO   C58 4021   4.977   8.650   9.802
   10CHTO  H115 4022   4.876   8.682   9.837
   10CHTO   O37 4023   4.982   8.651   9.659
   10CHTO   C59 4024   4.888   8.563   9.595
   10CHTO  H116 4025   4.786   8.588   9.626
   10CHTO   C70 4026   4.900   8.586   9.444
   10CHTO   O46 4027   4.864   8.719   9.404
   10CHTO  H103 4028   4.928   8.780   9.436
   10CHTO   O39 4029   5.089   8.756   9.844
   10CHTO   C60 4030   5.038   8.881   9.895
   10CHTO  H117 4031   4.941   8.902   9.850
   10CHTO   C62 4032   5.021   8.877  10.049
   10CHTO  H119 4033   4.941   8.802  10.069
   10CHTO   O43 4034   5.144   8.831   0.028
   10CHTO  H101 4035   5.133   8.823   0.121
   10CHTO   C66 4036   4.973   9.020   0.022
   10CHTO  H123 4037   4.880   9.048  10.053
   10CHTO   N12 4038   4.942   9.015   0.167
   10CHTO  H110 4039   5.005   9.083   0.223
   10CHTO  H111 4040   4.837   9.037   0.184
   10CHTO   C69 4041   5.080   9.126  10.066
   10CHTO  H126 4042   5.178   9.096   0.028
   10CHTO   O41 4043   5.091   9.129   9.910
   10CHTO   C64 4044   5.134   8.996   9.851
   10CHTO  H121 4045   5.236   8.972   9.887
   10CHTO   C71 4046   5.141   9.008   9.697
   10CHTO   O47 4047   5.015   9.044   9.639
   10CHTO  H104 4048   4.955   8.973   9.648
   10CHTO   O34 4049   5.045   9.271   0.035
   10CHTO   C49 4050   5.160   9.366   0.088
   10CHTO   H91 4051   5.255   9.315   0.070
   10CHTO   C47 4052   5.139   9.385   0.240
   10CHTO   H89 4053   5.227   9.442   0.277
   10CHTO   O33 4054   5.139   9.255   0.304
   10CHTO   H70 4055   5.224   9.216   0.297
   10CHTO   C45 4056   5.004   9.469   0.263
   10CHTO   H87 4057   4.922   9.417   0.210
   10CHTO    N8 4058   4.966   9.480   0.406
   10CHTO   H75 4059   4.956   9.382   0.450
   10CHTO   H76 4060   4.873   9.534   0.415
   10CHTO   C43 4061   5.019   9.611   0.191
   10CHTO   H85 4062   4.922   9.661   0.203
   10CHTO   O29 4063   5.053   9.594   0.051
   10CHTO   C50 4064   5.160   9.504   0.017
   10CHTO   H92 4065   5.151   9.483   9.991
   10CHTO   C54 4066   5.299   9.573   0.027
   10CHTO   O36 4067   5.308   9.687  10.023
   10CHTO   H72 4068   5.310   9.659   9.933
   10CHTO   O27 4069   5.116   9.696   0.256
   10CHTO   C37 4070   5.154   9.833   0.271
   10CHTO   H79 4071   5.207   9.868   0.180
   10CHTO   C38 4072   5.028   9.924   0.288
   10CHTO   H80 4073   4.963   9.878   0.364
   10CHTO   O31 4074   4.959   9.925   0.162
   10CHTO   H68 4075   4.877   9.971   0.171
   10CHTO   C39 4076   5.065   0.071   0.334
   10CHTO   H81 4077   5.116   0.119   0.251
   10CHTO    N7 4078   4.945   0.155   0.367
   10CHTO   H73 4079   4.975   0.254   0.395
   10CHTO   H74 4080   4.888   0.109   0.447
   10CHTO   C40 4081   5.166   0.065   0.455
   10CHTO   H82 4082   5.116   0.024   0.542
   10CHTO   O26 4083   5.281   9.987   0.417
   10CHTO   C41 4084   5.250   9.847   0.393
   10CHTO   H83 4085   5.202   9.804   0.483
   10CHTO   C52 4086   5.386   9.777   0.372
   10CHTO   O35 4087   5.377   9.634   0.371
   10CHTO   H71 4088   5.461   9.597   0.355
   10CHTO   O28 4089   5.222   0.194   0.487
   10CHTO   C42 4090   5.278   0.232   0.617
   10CHTO   H84 4091   5.385   0.240   0.597
   10CHTO   C44 4092   5.264   0.132   0.737
   10CHTO   H86 4093   5.158   0.110   0.751
   10CHTO   O32 4094   5.332   0.010   0.701
   10CHTO   H69 4095   5.286   9.967   0.631
   10CHTO   C48 4096   5.320   0.190   0.873
   10CHTO   H90 4097   5.428   0.200   0.864
   10CHTO    N9 4098   5.296   0.096   0.989
   10CHTO   H77 4099   5.390   0.069   1.035
   10CHTO   H78 4100   5.229   0.139   1.062
   10CHTO   C51 4101   5.259   0.332   0.897
   10CHTO   H93 4102   5.150   0.322   0.906
   10CHTO   O30 4103   5.295   0.416   0.787
   10CHTO   C46 4104   5.230   0.375   0.658
   10CHTO   H88 4105   5.122   0.375   0.671
   10CHTO   C53 4106   5.270   0.483   0.553
   10CHTO   O72 4107   5.196   0.472   0.432
   10CHTO  H199 4108   5.106   0.497   0.447
   10CHTO   O22 4109   5.314   0.397   1.013
   10CHTO   C31 4110   5.241   0.508   1.078
   10CHTO   H59 4111   5.176   0.553   1.000
   10CHTO   C29 4112   5.149   0.462   1.194
   10CHTO   H57 4113   5.213   0.409   1.266
   10CHTO   O21 4114   5.055   0.366   1.143
   10CHTO   H37 4115   5.007   0.327   1.213
   10CHTO   C27 4116   5.078   0.583   1.267
   10CHTO   H55 4117   5.005   0.627   1.197
   10CHTO    N5 4118   5.006   0.541   1.390
   10CHTO   H43 4119   4.934   0.464   1.366
   10CHTO   H44 4120   4.955   0.626   1.434
   10CHTO   C25 4121   5.183   0.695   1.299
   10CHTO   H53 4122   5.255   0.656   1.374
   10CHTO   O17 4123   5.258   0.730   1.179
   10CHTO   C32 4124   5.336   0.622   1.126
   10CHTO   H60 4125   5.403   0.583   1.203
   10CHTO   C36 4126   5.422   0.681   1.011
   10CHTO   O25 4127   5.521   0.588   0.965
   10CHTO   H40 4128   5.480   0.515   0.923
   10CHTO   O15 4129   5.114   0.827   1.358
   10CHTO   C19 4130   5.176   0.918   1.453
   10CHTO   H47 4131   5.243   0.854   1.512
   10CHTO   C20 4132   5.260   1.033   1.389
   10CHTO   H48 4133   5.198   1.097   1.324
   10CHTO   O19 4134   5.362   0.971   1.307
   10CHTO   H35 4135   5.323   0.931   1.232
   10CHTO   C21 4136   5.327   1.125   1.500
   10CHTO   H49 4137   5.402   1.066   1.553
   10CHTO    N4 4138   5.398   1.243   1.443
   10CHTO   H41 4139   5.389   1.246   1.335
   10CHTO   H42 4140   5.503   1.240   1.469
   10CHTO   C22 4141   5.221   1.166   1.606
   10CHTO   H50 4142   5.152   1.239   1.561
   10CHTO   O14 4143   5.148   1.052   1.655
   10CHTO   C23 4144   5.075   0.979   1.555
   10CHTO   H51 4145   5.005   1.049   1.506
   10CHTO   C34 4146   4.992   0.870   1.625
   10CHTO   O23 4147   4.897   0.927   1.716
   10CHTO   H38 4148   4.852   0.858   1.761
   10CHTO   O16 4149   5.283   1.219   1.725
   10CHTO   C24 4150   5.213   1.352   1.788
   10CHTO   H52 4151   5.126   1.384   1.730
   10CHTO   C26 4152   5.317   1.465   1.791
   10CHTO   H54 4153   5.410   1.426   1.841
   10CHTO   O20 4154   5.350   1.498   1.655
   10CHTO   H36 4155   5.421   1.559   1.653
   10CHTO   C30 4156   5.267   1.589   1.871
   10CHTO   H58 4157   5.186   1.638   1.815
   10CHTO    N6 4158   5.375   1.691   1.885
   10CHTO   H45 4159   5.458   1.650   1.940
   10CHTO   H46 4160   5.337   1.778   1.938
   10CHTO   C33 4161   5.207   1.547   2.009
   10CHTO   H61 4162   5.287   1.511   2.075
   10CHTO   O18 4163   5.111   1.441   1.991
   10CHTO   C28 4164   5.162   1.321   1.931
   10CHTO   H56 4165   5.245   1.281   1.990
   10CHTO   C35 4166   5.048   1.216   1.927
   10CHTO   O24 4167   5.008   1.175   2.058
   10CHTO   H39 4168   4.937   1.114   2.051
   10CHTO    O9 4169   5.148   1.660   2.076
   10CHTO   C13 4170   5.121   1.639   2.235
   10CHTO   H26 4171   5.174   1.548   2.268
   10CHTO   C11 4172   4.964   1.628   2.259
   10CHTO   H24 4173   4.933   1.528   2.225
   10CHTO    O8 4174   4.893   1.725   2.180
   10CHTO    H3 4175   4.918   1.812   2.205
   10CHTO    C9 4176   4.936   1.642   2.411
   10CHTO   H22 4177   5.001   1.568   2.460
   10CHTO    N2 4178   4.800   1.600   2.453
   10CHTO   H10 4179   4.736   1.584   2.367
   10CHTO   H11 4180   4.756   1.673   2.519
   10CHTO    C7 4181   4.981   1.787   2.459
   10CHTO   H20 4182   5.024   1.769   2.560
   10CHTO    O4 4183   5.081   1.847   2.375
   10CHTO   C14 4184   5.182   1.758   2.322
   10CHTO   H27 4185   5.234   1.713   2.409
   10CHTO   C18 4186   5.287   1.845   2.247
   10CHTO   O13 4187   5.229   1.928   2.146
   10CHTO    H7 4188   5.176   1.994   2.186
   10CHTO    O2 4189   4.855   1.894   2.472
   10CHTO    C1 4190   4.891   2.025   2.519
   10CHTO   H14 4191   4.996   2.048   2.489
   10CHTO    C2 4192   4.878   2.042   2.676
   10CHTO   H15 4193   4.777   2.007   2.702
   10CHTO    O6 4194   4.975   1.957   2.739
   10CHTO    H1 4195   4.964   1.958   2.832
   10CHTO    C3 4196   4.897   2.195   2.720
   10CHTO   H16 4197   5.003   2.223   2.706
   10CHTO    N1 4198   4.865   2.215   2.865
   10CHTO    H8 4199   4.930   2.153   2.926
   10CHTO    H9 4200   4.879   2.319   2.892
   10CHTO    C4 4201   4.815   2.291   2.626
   10CHTO   H17 4202   4.708   2.279   2.647
   10CHTO    O1 4203   4.842   2.262   2.488
   10CHTO    C5 4204   4.802   2.131   2.447
   10CHTO   H18 4205   4.699   2.113   2.474
   10CHTO   C16 4206   4.815   2.127   2.292
   10CHTO   O11 4207   4.751   2.011   2.237
   10CHTO    H5 4208   4.761   2.011   2.144
   10CHTO    O3 4209   4.854   2.429   2.643
   10CHTO    C6 4210   4.757   2.528   2.594
   10CHTO   H19 4211   4.678   2.484   2.533
   10CHTO    C8 4212   4.689   2.602   2.714
   10CHTO   H21 4213   4.768   2.646   2.777
   10CHTO    O7 4214   4.615   2.504   2.790
   10CHTO    H2 4215   4.675   2.446   2.834
   10CHTO   C12 4216   4.595   2.719   2.664
   10CHTO   H25 4217   4.509   2.670   2.613
   10CHTO    N3 4218   4.539   2.798   2.778
   10CHTO   H12 4219   4.619   2.844   2.834
   10CHTO   H13 4220   4.471   2.873   2.741
   10CHTO   C15 4221   4.671   2.809   2.559
   10CHTO   H28 4222   4.745   2.872   2.607
   10CHTO   O10 4223   4.575   2.896   2.477
   10CHTO    H4 4224   4.531   2.957   2.534
   10CHTO    O5 4225   4.733   2.730   2.456
   10CHTO   C10 4226   4.829   2.634   2.506
   10CHTO   H23 4227   4.904   2.687   2.565
   10CHTO   C17 4228   4.900   2.571   2.386
   10CHTO   O12 4229   4.980   2.668   2.316
   10CHTO    H6 4230   5.021   2.627   2.243
   11CHTO  H203 4231   6.614   6.316   3.221
   11CHTO   O82 4232   6.579   6.398   3.192
   11CHTO  C123 4233   6.607   6.418   3.053
   11CHTO  H227 4234   6.712   6.390   3.033
   11CHTO   O77 4235   6.517   6.324   2.987
   11CHTO  C118 4236   6.527   6.321   2.844
   11CHTO  H222 4237   6.631   6.300   2.815
   11CHTO  C125 4238   6.435   6.206   2.790
   11CHTO   O84 4239   6.296   6.227   2.821
   11CHTO  H205 4240   6.265   6.304   2.776
   11CHTO  C114 4241   6.487   6.459   2.788
   11CHTO  H218 4242   6.385   6.482   2.820
   11CHTO  C116 4243   6.579   6.571   2.847
   11CHTO  H220 4244   6.683   6.557   2.808
   11CHTO   O79 4245   6.533   6.698   2.796
   11CHTO  H201 4246   6.590   6.767   2.824
   11CHTO  C120 4247   6.578   6.566   3.005
   11CHTO  H224 4248   6.475   6.595   3.037
   11CHTO   N21 4249   6.671   6.665   3.065
   11CHTO  H211 4250   6.770   6.622   3.076
   11CHTO  H212 4251   6.675   6.755   3.006
   11CHTO   O75 4252   6.495   6.446   2.645
   11CHTO  C112 4253   6.372   6.518   2.565
   11CHTO  H216 4254   6.372   6.625   2.590
   11CHTO   O73 4255   6.250   6.453   2.606
   11CHTO  C113 4256   6.132   6.500   2.538
   11CHTO  H217 4257   6.124   6.610   2.551
   11CHTO  C124 4258   6.009   6.437   2.604
   11CHTO   O83 4259   5.993   6.475   2.741
   11CHTO  H204 4260   5.972   6.567   2.747
   11CHTO  C109 4261   6.143   6.464   2.388
   11CHTO  H213 4262   6.160   6.356   2.383
   11CHTO  C110 4263   6.267   6.540   2.331
   11CHTO  H214 4264   6.249   6.647   2.339
   11CHTO   O78 4265   6.280   6.508   2.191
   11CHTO  H200 4266   6.208   6.544   2.143
   11CHTO  C111 4267   6.396   6.501   2.410
   11CHTO  H215 4268   6.417   6.395   2.391
   11CHTO   N19 4269   6.516   6.577   2.367
   11CHTO  H207 4270   6.603   6.543   2.423
   11CHTO  H208 4271   6.502   6.682   2.383
   11CHTO   O74 4272   6.021   6.498   2.314
   11CHTO  C115 4273   5.974   6.376   2.214
   11CHTO  H219 4274   6.040   6.290   2.221
   11CHTO   O76 4275   5.831   6.321   2.252
   11CHTO  C122 4276   5.728   6.421   2.247
   11CHTO  H226 4277   5.737   6.483   2.336
   11CHTO  C126 4278   5.588   6.351   2.256
   11CHTO   O85 4279   5.566   6.284   2.381
   11CHTO  H206 4280   5.482   6.244   2.381
   11CHTO  C121 4281   5.736   6.513   2.116
   11CHTO  H225 4282   5.634   6.521   2.073
   11CHTO   O81 4283   5.775   6.646   2.152
   11CHTO  H202 4284   5.863   6.646   2.187
   11CHTO  C119 4285   5.830   6.449   2.009
   11CHTO  H223 4286   5.790   6.349   1.994
   11CHTO  C117 4287   5.976   6.433   2.065
   11CHTO  H221 4288   6.033   6.525   2.071
   11CHTO   N20 4289   6.056   6.344   1.974
   11CHTO  H209 4290   6.015   6.244   1.973
   11CHTO  H210 4291   6.160   6.341   2.006
   11CHTO   O80 4292   5.813   6.513   1.858
   11CHTO  C103 4293   5.847   6.667   1.831
   11CHTO  H190 4294   5.851   6.723   1.924
   11CHTO  C101 4295   5.978   6.696   1.748
   11CHTO  H188 4296   5.976   6.636   1.657
   11CHTO   O68 4297   6.102   6.652   1.832
   11CHTO  H168 4298   6.099   6.560   1.847
   11CHTO   C99 4299   5.986   6.851   1.708
   11CHTO  H186 4300   5.993   6.912   1.800
   11CHTO   N17 4301   6.106   6.886   1.624
   11CHTO  H174 4302   6.111   6.993   1.609
   11CHTO  H175 4303   6.102   6.833   1.530
   11CHTO   C97 4304   5.854   6.894   1.638
   11CHTO  H184 4305   5.848   6.845   1.539
   11CHTO   O64 4306   5.740   6.862   1.721
   11CHTO  C104 4307   5.724   6.722   1.748
   11CHTO  H191 4308   5.715   6.665   1.655
   11CHTO  C108 4309   5.592   6.701   1.823
   11CHTO   O71 4310   5.479   6.734   1.741
   11CHTO  H171 4311   5.476   6.826   1.725
   11CHTO   O62 4312   5.845   7.038   1.623
   11CHTO   C91 4313   5.753   7.087   1.523
   11CHTO  H178 4314   5.680   7.008   1.503
   11CHTO   C92 4315   5.830   7.112   1.388
   11CHTO  H179 4316   5.896   7.026   1.366
   11CHTO   O66 4317   5.735   7.116   1.281
   11CHTO  H166 4318   5.694   7.032   1.270
   11CHTO   C93 4319   5.908   7.249   1.386
   11CHTO  H180 4320   5.934   7.268   1.281
   11CHTO   N16 4321   6.038   7.244   1.457
   11CHTO  H172 4322   6.023   7.218   1.561
   11CHTO  H173 4323   6.103   7.172   1.410
   11CHTO   C94 4324   5.816   7.367   1.438
   11CHTO  H181 4325   5.854   7.411   1.531
   11CHTO   O61 4326   5.682   7.324   1.469
   11CHTO   C95 4327   5.676   7.219   1.568
   11CHTO  H182 4328   5.719   7.256   1.661
   11CHTO  C106 4329   5.524   7.191   1.597
   11CHTO   O69 4330   5.508   7.095   1.703
   11CHTO  H169 4331   5.535   7.134   1.785
   11CHTO   O63 4332   5.808   7.474   1.326
   11CHTO   C96 4333   5.879   7.605   1.362
   11CHTO  H183 4334   5.960   7.581   1.432
   11CHTO   C98 4335   5.787   7.710   1.431
   11CHTO  H185 4336   5.734   7.665   1.517
   11CHTO   O67 4337   5.870   7.813   1.487
   11CHTO  H167 4338   5.918   7.857   1.420
   11CHTO  C102 4339   5.683   7.777   1.328
   11CHTO  H189 4340   5.652   7.872   1.375
   11CHTO   N18 4341   5.558   7.701   1.306
   11CHTO  H176 4342   5.494   7.754   1.237
   11CHTO  H177 4343   5.581   7.603   1.266
   11CHTO  C105 4344   5.757   7.811   1.194
   11CHTO  H192 4345   5.724   7.743   1.115
   11CHTO   O65 4346   5.900   7.799   1.201
   11CHTO  C100 4347   5.943   7.665   1.229
   11CHTO  H187 4348   5.914   7.602   1.143
   11CHTO  C107 4349   6.098   7.665   1.233
   11CHTO   O70 4350   6.149   7.533   1.252
   11CHTO  H170 4351   6.242   7.535   1.253
   11CHTO   O57 4352   5.710   7.963   1.160
   11CHTO   C85 4353   5.707   8.018   1.027
   11CHTO  H157 4354   5.687   8.126   1.043
   11CHTO   C83 4355   5.583   7.965   0.947
   11CHTO  H155 4356   5.493   7.996   1.000
   11CHTO   O56 4357   5.582   7.821   0.943
   11CHTO  H135 4358   5.574   7.786   1.030
   11CHTO   C81 4359   5.583   8.030   0.805
   11CHTO  H153 4360   5.582   8.138   0.818
   11CHTO   N14 4361   5.460   8.001   0.728
   11CHTO  H141 4362   5.461   8.054   0.636
   11CHTO  H142 4363   5.373   8.030   0.784
   11CHTO   C79 4364   5.715   7.991   0.729
   11CHTO  H151 4365   5.713   8.044   0.633
   11CHTO   O52 4366   5.831   8.041   0.803
   11CHTO   C86 4367   5.839   7.995   0.942
   11CHTO  H158 4368   5.863   7.887   0.935
   11CHTO   C90 4369   5.961   8.062   1.009
   11CHTO   O60 4370   6.084   8.023   0.945
   11CHTO  H138 4371   6.088   8.061   0.859
   11CHTO   O50 4372   5.731   7.850   0.703
   11CHTO   C73 4373   5.802   7.783   0.598
   11CHTO  H145 4374   5.866   7.855   0.544
   11CHTO   C74 4375   5.701   7.721   0.497
   11CHTO  H146 4376   5.637   7.802   0.460
   11CHTO   O54 4377   5.776   7.673   0.383
   11CHTO  H133 4378   5.717   7.638   0.318
   11CHTO   C75 4379   5.617   7.608   0.570
   11CHTO  H147 4380   5.560   7.656   0.651
   11CHTO   N13 4381   5.517   7.542   0.483
   11CHTO  H139 4382   5.566   7.493   0.401
   11CHTO  H140 4383   5.462   7.468   0.540
   11CHTO   C76 4384   5.718   7.503   0.638
   11CHTO  H148 4385   5.772   7.453   0.558
   11CHTO   O49 4386   5.813   7.572   0.725
   11CHTO   C77 4387   5.892   7.670   0.656
   11CHTO  H149 4388   5.946   7.622   0.574
   11CHTO   C88 4389   6.001   7.725   0.749
   11CHTO   O58 4390   6.094   7.620   0.789
   11CHTO  H136 4391   6.158   7.656   0.848
   11CHTO   O51 4392   5.639   7.401   0.732
   11CHTO   C78 4393   5.726   7.273   0.766
   11CHTO  H150 4394   5.835   7.296   0.760
   11CHTO   C80 4395   5.695   7.158   0.668
   11CHTO  H152 4396   5.586   7.136   0.672
   11CHTO   O55 4397   5.728   7.204   0.536
   11CHTO  H134 4398   5.703   7.139   0.472
   11CHTO   C84 4399   5.777   7.028   0.707
   11CHTO  H156 4400   5.882   7.051   0.693
   11CHTO   N15 4401   5.745   6.912   0.617
   11CHTO  H143 4402   5.804   6.827   0.646
   11CHTO  H144 4403   5.769   6.937   0.516
   11CHTO   C87 4404   5.752   6.992   0.856
   11CHTO  H159 4405   5.650   6.957   0.869
   11CHTO   O53 4406   5.776   7.116   0.946
   11CHTO   C82 4407   5.696   7.230   0.910
   11CHTO  H154 4408   5.590   7.204   0.921
   11CHTO   C89 4409   5.724   7.345   1.011
   11CHTO   O59 4410   5.863   7.382   1.014
   11CHTO  H137 4411   5.887   7.423   0.933
   11CHTO   O45 4412   5.855   6.869   0.910
   11CHTO   C67 4413   5.996   6.896   0.910
   11CHTO  H124 4414   6.021   6.960   0.826
   11CHTO   C65 4415   6.041   6.968   1.043
   11CHTO  H122 4416   5.962   6.949   1.116
   11CHTO   O44 4417   6.047   7.108   1.015
   11CHTO  H102 4418   6.059   7.157   1.094
   11CHTO   C63 4419   6.171   6.904   1.107
   11CHTO  H120 4420   6.145   6.806   1.148
   11CHTO   N11 4421   6.226   6.973   1.228
   11CHTO  H108 4422   6.305   6.914   1.270
   11CHTO  H109 4423   6.149   6.986   1.301
   11CHTO   C61 4424   6.276   6.878   0.993
   11CHTO  H118 4425   6.360   6.824   1.039
   11CHTO   O40 4426   6.224   6.791   0.888
   11CHTO   C68 4427   6.080   6.762   0.887
   11CHTO  H125 4428   6.057   6.690   0.968
   11CHTO   C72 4429   6.048   6.692   0.753
   11CHTO   O48 4430   5.918   6.634   0.750
   11CHTO  H105 4431   5.904   6.593   0.667
   11CHTO   O38 4432   6.323   6.999   0.929
   11CHTO   C55 4433   6.456   6.991   0.876
   11CHTO  H112 4434   6.489   6.886   0.866
   11CHTO   C56 4435   6.555   7.075   0.967
   11CHTO  H113 4436   6.514   7.177   0.975
   11CHTO   O42 4437   6.554   7.021   1.101
   11CHTO  H100 4438   6.605   7.075   1.158
   11CHTO   C57 4439   6.701   7.078   0.907
   11CHTO  H114 4440   6.742   6.978   0.925
   11CHTO   N10 4441   6.791   7.174   0.977
   11CHTO  H106 4442   6.893   7.140   0.972
   11CHTO  H107 4443   6.783   7.272   0.934
   11CHTO   C58 4444   6.700   7.104   0.754
   11CHTO  H115 4445   6.684   7.213   0.735
   11CHTO   O37 4446   6.599   7.029   0.685
   11CHTO   C59 4447   6.465   7.050   0.731
   11CHTO  H116 4448   6.441   7.156   0.730
   11CHTO   C70 4449   6.371   6.978   0.633
   11CHTO   O46 4450   6.233   7.008   0.654
   11CHTO  H103 4451   6.204   6.970   0.735
   11CHTO   O39 4452   6.840   7.054   0.692
   11CHTO   C60 4453   6.898   7.143   0.595
   11CHTO  H117 4454   6.819   7.200   0.546
   11CHTO   C62 4455   6.996   7.244   0.663
   11CHTO  H119 4456   6.935   7.303   0.735
   11CHTO   O43 4457   7.096   7.172   0.737
   11CHTO  H101 4458   7.149   7.120   0.679
   11CHTO   C66 4459   7.058   7.342   0.552
   11CHTO  H123 4460   6.976   7.393   0.501
   11CHTO   N12 4461   7.143   7.449   0.610
   11CHTO  H110 4462   7.102   7.547   0.587
   11CHTO  H111 4463   7.156   7.436   0.716
   11CHTO   C69 4464   7.133   7.258   0.445
   11CHTO  H126 4465   7.218   7.204   0.493
   11CHTO   O41 4466   7.034   7.154   0.382
   11CHTO   C64 4467   6.970   7.061   0.485
   11CHTO  H121 4468   7.049   6.999   0.533
   11CHTO   C71 4469   6.871   6.967   0.413
   11CHTO   O47 4470   6.938   6.882   0.319
   11CHTO  H104 4471   6.967   6.933   0.246
   11CHTO   O34 4472   7.189   7.347   0.330
   11CHTO   C49 4473   7.319   7.322   0.255
   11CHTO   H91 4474   7.399   7.334   0.327
   11CHTO   C47 4475   7.331   7.429   0.144
   11CHTO   H89 4476   7.433   7.414   0.102
   11CHTO   O33 4477   7.323   7.561   0.199
   11CHTO   H70 4478   7.395   7.576   0.257
   11CHTO   C45 4479   7.217   7.409   0.030
   11CHTO   H87 4480   7.134   7.477   0.054
   11CHTO    N8 4481   7.273   7.449   9.980
   11CHTO   H75 4482   7.227   7.541   9.946
   11CHTO   H76 4483   7.380   7.460   9.982
   11CHTO   C43 4484   7.153   7.261   0.039
   11CHTO   H85 4485   7.081   7.266   0.120
   11CHTO   O29 4486   7.255   7.163   0.063
   11CHTO   C50 4487   7.327   7.181   0.187
   11CHTO   H92 4488   7.289   7.106   0.259
   11CHTO   C54 4489   7.472   7.135   0.161
   11CHTO   O36 4490   7.553   7.137   0.280
   11CHTO   H72 4491   7.639   7.108   0.259
   11CHTO   O27 4492   7.073   7.228  10.006
   11CHTO   C37 4493   6.964   7.152   9.953
   11CHTO   H79 4494   6.984   7.044   9.965
   11CHTO   C38 4495   6.833   7.184  10.030
   11CHTO   H80 4496   6.824   7.294  10.039
   11CHTO   O31 4497   6.846   7.129   0.081
   11CHTO   H68 4498   6.773   7.154   0.134
   11CHTO   C39 4499   6.704   7.128   9.957
   11CHTO   H81 4500   6.707   7.020   9.964
   11CHTO    N7 4501   6.576   7.173  10.021
   11CHTO   H73 4502   6.492   7.131   9.968
   11CHTO   H74 4503   6.574   7.141   0.043
   11CHTO   C40 4504   6.708   7.166   9.804
   11CHTO   H82 4505   6.698   7.274   9.792
   11CHTO   O26 4506   6.832   7.117   9.749
   11CHTO   C41 4507   6.949   7.184   9.802
   11CHTO   H83 4508   6.940   7.293   9.789
   11CHTO   C52 4509   7.070   7.136   9.718
   11CHTO   O35 4510   7.194   7.208   9.746
   11CHTO   H71 4511   7.222   7.191   9.834
   11CHTO   O28 4512   6.603   7.102   9.728
   11CHTO   C42 4513   6.593   7.119   9.583
   11CHTO   H84 4514   6.693   7.149   9.551
   11CHTO   C44 4515   6.496   7.230   9.534
   11CHTO   H86 4516   6.395   7.206   9.568
   11CHTO   O32 4517   6.535   7.354   9.595
   11CHTO   H69 4518   6.521   7.351   9.688
   11CHTO   C48 4519   6.492   7.240   9.376
   11CHTO   H90 4520   6.590   7.276   9.343
   11CHTO    N9 4521   6.393   7.341   9.324
   11CHTO   H77 4522   6.342   7.390   9.406
   11CHTO   H78 4523   6.321   7.295   9.258
   11CHTO   C51 4524   6.470   7.096   9.315
   11CHTO   H93 4525   6.370   7.063   9.341
   11CHTO   O30 4526   6.571   7.008   9.366
   11CHTO   C46 4527   6.561   6.985   9.511
   11CHTO   H88 4528   6.460   6.952   9.536
   11CHTO   C53 4529   6.663   6.872   9.544
   11CHTO   O72 4530   6.649   6.825   9.679
   11CHTO  H199 4531   6.569   6.776   9.687
   11CHTO   O22 4532   6.490   7.093   9.173
   11CHTO   C31 4533   6.401   7.016   9.083
   11CHTO   H59 4534   6.304   7.005   9.136
   11CHTO   C29 4535   6.373   7.093   8.951
   11CHTO   H57 4536   6.471   7.121   8.910
   11CHTO   O21 4537   6.305   7.216   8.984
   11CHTO   H37 4538   6.360   7.270   9.037
   11CHTO   C27 4539   6.294   7.010   8.843
   11CHTO   H55 4540   6.189   6.999   8.875
   11CHTO    N5 4541   6.295   7.076   8.709
   11CHTO   H43 4542   6.397   7.086   8.673
   11CHTO   H44 4543   6.248   7.173   8.716
   11CHTO   C25 4544   6.353   6.865   8.833
   11CHTO   H53 4545   6.454   6.869   8.791
   11CHTO   O17 4546   6.361   6.803   8.964
   11CHTO   C32 4547   6.451   6.870   9.053
   11CHTO   H60 4548   6.550   6.876   9.008
   11CHTO   C36 4549   6.461   6.782   9.180
   11CHTO   O25 4550   6.525   6.657   9.153
   11CHTO   H40 4551   6.470   6.603   9.100
   11CHTO   O15 4552   6.269   6.776   8.746
   11CHTO   C19 4553   6.174   6.667   8.746
   11CHTO   H47 4554   6.227   6.586   8.798
   11CHTO   C20 4555   6.040   6.696   8.822
   11CHTO   H48 4556   5.986   6.782   8.779
   11CHTO   O19 4557   6.073   6.728   8.958
   11CHTO   H35 4558   6.119   6.811   8.962
   11CHTO   C21 4559   5.943   6.570   8.816
   11CHTO   H49 4560   5.989   6.489   8.872
   11CHTO    N4 4561   5.810   6.595   8.879
   11CHTO   H41 4562   5.793   6.525   8.960
   11CHTO   H42 4563   5.802   6.696   8.916
   11CHTO   C22 4564   5.930   6.522   8.669
   11CHTO   H50 4565   5.876   6.597   8.612
   11CHTO   O14 4566   6.060   6.500   8.611
   11CHTO   C23 4567   6.144   6.615   8.603
   11CHTO   H51 4568   6.092   6.691   8.542
   11CHTO   C34 4569   6.274   6.578   8.532
   11CHTO   O23 4570   6.251   6.542   8.395
   11CHTO   H38 4571   6.333   6.518   8.355
   11CHTO   O16 4572   5.865   6.394   8.660
   11CHTO   C24 4573   5.815   6.360   8.511
   11CHTO   H52 4574   5.856   6.430   8.438
   11CHTO   C26 4575   5.662   6.367   8.507
   11CHTO   H54 4576   5.621   6.298   8.585
   11CHTO   O20 4577   5.622   6.501   8.540
   11CHTO   H36 4578   5.528   6.506   8.548
   11CHTO   C30 4579   5.607   6.322   8.367
   11CHTO   H58 4580   5.632   6.400   8.293
   11CHTO    N6 4581   5.458   6.312   8.367
   11CHTO   H45 4582   5.426   6.240   8.440
   11CHTO   H46 4583   5.414   6.408   8.389
   11CHTO   C33 4584   5.674   6.190   8.319
   11CHTO   H61 4585   5.638   6.107   8.382
   11CHTO   O18 4586   5.817   6.198   8.335
   11CHTO   C28 4587   5.863   6.218   8.469
   11CHTO   H56 4588   5.820   6.144   8.537
   11CHTO   C35 4589   6.017   6.204   8.468
   11CHTO   O24 4590   6.073   6.199   8.599
   11CHTO   H39 4591   6.166   6.189   8.593
   11CHTO    O9 4592   5.638   6.154   8.184
   11CHTO   C13 4593   5.699   6.248   8.065
   11CHTO   H26 4594   5.717   6.350   8.105
   11CHTO   C11 4595   5.596   6.250   7.945
   11CHTO   H24 4596   5.506   6.302   7.980
   11CHTO    O8 4597   5.556   6.116   7.910
   11CHTO    H3 4598   5.488   6.118   7.846
   11CHTO    C9 4599   5.657   6.331   7.828
   11CHTO   H22 4600   5.677   6.431   7.869
   11CHTO    N2 4601   5.563   6.355   7.715
   11CHTO   H10 4602   5.539   6.261   7.667
   11CHTO   H11 4603   5.473   6.403   7.751
   11CHTO    C7 4604   5.794   6.268   7.784
   11CHTO   H20 4605   5.836   6.341   7.711
   11CHTO    O4 4606   5.885   6.259   7.896
   11CHTO   C14 4607   5.842   6.195   8.018
   11CHTO   H27 4608   5.916   6.225   8.096
   11CHTO   C18 4609   5.847   6.040   8.008
   11CHTO   O13 4610   5.975   5.992   7.966
   11CHTO    H7 4611   6.038   6.008   8.033
   11CHTO    O2 4612   5.781   6.119   7.714
   11CHTO    C1 4613   5.805   6.114   7.572
   11CHTO   H14 4614   5.791   6.216   7.528
   11CHTO    C2 4615   5.706   6.014   7.500
   11CHTO   H15 4616   5.719   5.917   7.551
   11CHTO    O6 4617   5.572   6.062   7.518
   11CHTO    H1 4618   5.511   6.000   7.484
   11CHTO    C3 4619   5.743   5.999   7.344
   11CHTO   H16 4620   5.721   6.094   7.294
   11CHTO    N1 4621   5.659   5.894   7.276
   11CHTO    H8 4622   5.687   5.888   7.171
   11CHTO    H9 4623   5.555   5.920   7.284
   11CHTO    C4 4624   5.897   5.974   7.326
   11CHTO   H17 4625   5.921   5.873   7.358
   11CHTO    O1 4626   5.974   6.070   7.400
   11CHTO    C5 4627   5.952   6.071   7.542
   11CHTO   H18 4628   5.967   5.971   7.582
   11CHTO   C16 4629   6.058   6.166   7.603
   11CHTO   O11 4630   6.190   6.119   7.577
   11CHTO    H5 4631   6.252   6.178   7.615
   11CHTO    O3 4632   5.937   5.996   7.189
   11CHTO    C6 4633   6.054   5.920   7.144
   11CHTO   H19 4634   6.112   5.878   7.226
   11CHTO    C8 4635   6.004   5.802   7.054
   11CHTO   H21 4636   5.934   5.842   6.980
   11CHTO    O7 4637   5.934   5.710   7.140
   11CHTO    H2 4638   5.894   5.642   7.090
   11CHTO   C12 4639   6.123   5.732   6.977
   11CHTO   H25 4640   6.185   5.681   7.054
   11CHTO    N3 4641   6.073   5.626   6.883
   11CHTO   H12 4642   6.006   5.669   6.810
   11CHTO   H13 4643   6.022   5.548   6.939
   11CHTO   C15 4644   6.210   5.842   6.907
   11CHTO   H28 4645   6.155   5.892   6.827
   11CHTO   O10 4646   6.343   5.787   6.850
   11CHTO    H4 4647   6.383   5.852   6.796
   11CHTO    O5 4648   6.255   5.937   7.004
   11CHTO   C10 4649   6.150   6.014   7.064
   11CHTO   H23 4650   6.096   6.067   6.986
   11CHTO   C17 4651   6.220   6.118   7.153
   11CHTO   O12 4652   6.132   6.219   7.202
   11CHTO    H6 4653   6.106   6.275   7.132
   12CHTO  H203 4654   6.442   2.336   6.861
   12CHTO   O82 4655   6.360   2.379   6.874
   12CHTO  C123 4656   6.289   2.321   6.985
   12CHTO  H227 4657   6.196   2.377   7.001
   12CHTO   O77 4658   6.259   2.185   6.940
   12CHTO  C118 4659   6.175   2.112   7.031
   12CHTO  H222 4660   6.082   2.168   7.050
   12CHTO  C125 4661   6.138   1.974   6.964
   12CHTO   O84 4662   6.059   1.993   6.847
   12CHTO  H205 4663   6.110   2.034   6.780
   12CHTO  C114 4664   6.250   2.090   7.164
   12CHTO  H218 4665   6.338   2.029   7.146
   12CHTO  C116 4666   6.298   2.226   7.225
   12CHTO  H220 4667   6.210   2.282   7.264
   12CHTO   O79 4668   6.381   2.197   7.338
   12CHTO  H201 4669   6.407   2.276   7.381
   12CHTO  C120 4670   6.374   2.314   7.117
   12CHTO  H224 4671   6.471   2.263   7.098
   12CHTO   N21 4672   6.407   2.449   7.169
   12CHTO  H211 4673   6.424   2.447   7.276
   12CHTO  H212 4674   6.494   2.488   7.118
   12CHTO   O75 4675   6.157   2.021   7.249
   12CHTO  C112 4676   6.223   1.902   7.340
   12CHTO  H216 4677   6.322   1.935   7.378
   12CHTO   O73 4678   6.236   1.786   7.256
   12CHTO  C113 4679   6.287   1.668   7.321
   12CHTO  H217 4680   6.386   1.691   7.364
   12CHTO  C124 4681   6.308   1.558   7.215
   12CHTO   O83 4682   6.188   1.519   7.148
   12CHTO  H204 4683   6.157   1.590   7.094
   12CHTO  C109 4684   6.192   1.624   7.435
   12CHTO  H213 4685   6.095   1.599   7.388
   12CHTO  C110 4686   6.174   1.741   7.536
   12CHTO  H214 4687   6.269   1.758   7.587
   12CHTO   O78 4688   6.079   1.700   7.637
   12CHTO  H200 4689   5.995   1.684   7.599
   12CHTO  C111 4690   6.128   1.871   7.462
   12CHTO  H215 4691   6.027   1.854   7.422
   12CHTO   N19 4692   6.120   1.989   7.552
   12CHTO  H207 4693   6.086   2.075   7.497
   12CHTO  H208 4694   6.051   1.969   7.633
   12CHTO   O74 4695   6.245   1.506   7.502
   12CHTO  C115 4696   6.137   1.391   7.524
   12CHTO  H219 4697   6.035   1.428   7.510
   12CHTO   O76 4698   6.153   1.276   7.418
   12CHTO  C122 4699   6.284   1.218   7.421
   12CHTO  H226 4700   6.353   1.292   7.380
   12CHTO  C126 4701   6.287   1.097   7.322
   12CHTO   O85 4702   6.194   0.994   7.356
   12CHTO  H206 4703   6.204   0.921   7.297
   12CHTO  C121 4704   6.331   1.176   7.568
   12CHTO  H225 4705   6.364   1.070   7.566
   12CHTO   O81 4706   6.444   1.254   7.607
   12CHTO  H202 4707   6.518   1.235   7.553
   12CHTO  C119 4708   6.215   1.191   7.670
   12CHTO  H223 4709   6.137   1.123   7.635
   12CHTO  C117 4710   6.155   1.337   7.672
   12CHTO  H221 4711   6.218   1.411   7.721
   12CHTO   N20 4712   6.025   1.341   7.748
   12CHTO  H209 4713   5.988   1.442   7.751
   12CHTO  H210 4714   6.041   1.304   7.848
   12CHTO   O80 4715   6.248   1.129   7.811
   12CHTO  C103 4716   6.178   0.998   7.855
   12CHTO  H190 4717   6.071   1.003   7.833
   12CHTO  C101 4718   6.236   0.864   7.795
   12CHTO  H188 4719   6.344   0.863   7.811
   12CHTO   O68 4720   6.208   0.860   7.642
   12CHTO  H168 4721   6.253   0.931   7.600
   12CHTO   C99 4722   6.172   0.737   7.869
   12CHTO  H186 4723   6.063   0.734   7.846
   12CHTO   N17 4724   6.229   0.606   7.825
   12CHTO  H174 4725   6.334   0.600   7.851
   12CHTO  H175 4726   6.215   0.593   7.719
   12CHTO   C97 4727   6.182   0.754   8.024
   12CHTO  H184 4728   6.288   0.745   8.053
   12CHTO   O64 4729   6.125   0.880   8.065
   12CHTO  C104 4730   6.193   0.995   8.012
   12CHTO  H191 4731   6.299   0.993   8.038
   12CHTO  C108 4732   6.136   1.121   8.079
   12CHTO   O71 4733   5.996   1.138   8.054
   12CHTO  H171 4734   5.947   1.071   8.098
   12CHTO   O62 4735   6.100   0.658   8.093
   12CHTO   C91 4736   6.151   0.610   8.219
   12CHTO  H178 4737   6.256   0.585   8.205
   12CHTO   C92 4738   6.079   0.474   8.249
   12CHTO  H179 4739   5.971   0.487   8.234
   12CHTO   O66 4740   6.122   0.380   8.149
   12CHTO  H166 4741   6.213   0.362   8.157
   12CHTO   C93 4742   6.109   0.425   8.396
   12CHTO  H180 4743   6.218   0.411   8.403
   12CHTO   N16 4744   6.051   0.292   8.430
   12CHTO  H172 4745   5.944   0.294   8.418
   12CHTO  H173 4746   6.095   0.215   8.368
   12CHTO   C94 4747   6.064   0.534   8.501
   12CHTO  H181 4748   5.965   0.512   8.542
   12CHTO   O61 4749   6.049   0.666   8.445
   12CHTO   C95 4750   6.138   0.711   8.341
   12CHTO  H182 4751   6.099   0.805   8.302
   12CHTO  C106 4752   6.280   0.746   8.400
   12CHTO   O69 4753   6.272   0.847   8.502
   12CHTO  H169 4754   6.232   0.811   8.579
   12CHTO   O63 4755   6.172   0.535   8.616
   12CHTO   C96 4756   6.131   0.611   8.747
   12CHTO  H183 4757   6.101   0.712   8.719
   12CHTO   C98 4758   6.250   0.622   8.848
   12CHTO  H185 4759   6.334   0.676   8.801
   12CHTO   O67 4760   6.211   0.704   8.959
   12CHTO  H167 4761   6.138   0.666   9.005
   12CHTO  C102 4762   6.295   0.477   8.901
   12CHTO  H189 4763   6.334   0.493   9.003
   12CHTO   N18 4764   6.405   0.414   8.825
   12CHTO  H176 4765   6.493   0.477   8.828
   12CHTO  H177 4766   6.430   0.318   8.869
   12CHTO  C105 4767   6.170   0.384   8.911
   12CHTO  H192 4768   6.158   0.328   8.818
   12CHTO   O65 4769   6.048   0.459   8.932
   12CHTO  C100 4770   6.008   0.535   8.817
   12CHTO  H187 4771   5.964   0.464   8.746
   12CHTO  C107 4772   5.896   0.633   8.861
   12CHTO   O70 4773   5.843   0.706   8.749
   12CHTO  H170 4774   5.907   0.768   8.719
   12CHTO   O57 4775   6.197   0.287   9.028
   12CHTO   C85 4776   6.140   0.155   9.025
   12CHTO  H157 4777   6.141   0.123   8.919
   12CHTO   C83 4778   5.989   0.163   9.065
   12CHTO  H155 4779   5.936   0.220   8.989
   12CHTO   O56 4780   5.976   0.237   9.188
   12CHTO  H135 4781   5.885   0.250   9.209
   12CHTO   C81 4782   5.930   0.020   9.071
   12CHTO  H153 4783   5.945   9.973   8.974
   12CHTO   N14 4784   5.782   0.018   9.089
   12CHTO  H141 4785   5.745   9.918   9.081
   12CHTO  H142 4786   5.756   0.057   9.185
   12CHTO   C79 4787   6.007   9.935   9.179
   12CHTO  H151 4788   5.966   9.834   9.177
   12CHTO   O52 4789   6.147   9.924   9.139
   12CHTO   C86 4790   6.216   0.052   9.119
   12CHTO  H158 4791   6.230   0.092   9.222
   12CHTO   C90 4792   6.358   0.021   9.066
   12CHTO   O60 4793   6.440   0.138   9.057
   12CHTO  H138 4794   6.525   0.115   9.026
   12CHTO   O50 4795   6.000   9.987   9.313
   12CHTO   C73 4796   5.912   9.973   9.425
   12CHTO  H145 4797   5.815   9.932   9.393
   12CHTO   C74 4798   5.888   0.111   9.493
   12CHTO  H146 4799   5.847   0.179   9.416
   12CHTO   O54 4800   5.783   0.096   9.590
   12CHTO  H133 4801   5.810   0.039   9.659
   12CHTO   C75 4802   6.023   0.166   9.554
   12CHTO  H147 4803   6.093   0.183   9.471
   12CHTO   N13 4804   6.011   0.298   9.622
   12CHTO  H139 4805   6.037   0.290   9.726
   12CHTO  H140 4806   5.910   0.336   9.614
   12CHTO   C76 4807   6.088   0.054   9.648
   12CHTO  H148 4808   6.023   0.041   9.735
   12CHTO   O49 4809   6.101   9.926   9.578
   12CHTO   C77 4810   5.976   9.875   9.529
   12CHTO  H149 4811   5.907   9.861   9.612
   12CHTO   C88 4812   6.001   9.735   9.471
   12CHTO   O58 4813   5.878   9.676   9.413
   12CHTO  H136 4814   5.853   9.724   9.336
   12CHTO   O51 4815   6.237   0.101   9.690
   12CHTO   C78 4816   6.338   9.992   9.738
   12CHTO  H150 4817   6.333   9.902   9.673
   12CHTO   C80 4818   6.308   9.950   9.884
   12CHTO  H152 4819   6.294   0.042   9.946
   12CHTO   O55 4820   6.183   9.878   9.884
   12CHTO  H134 4821   6.112   9.936   9.864
   12CHTO   C84 4822   6.424   9.862   9.947
   12CHTO  H156 4823   6.427   9.767   9.893
   12CHTO   N15 4824   6.400   9.830   0.010
   12CHTO  H143 4825   6.479   9.769   0.048
   12CHTO  H144 4826   6.395   9.921   0.067
   12CHTO   C87 4827   6.559   9.934   9.926
   12CHTO  H159 4828   6.558   0.029   9.980
   12CHTO   O53 4829   6.576   9.960   9.775
   12CHTO   C82 4830   6.479   0.052   9.724
   12CHTO  H154 4831   6.487   0.148   9.776
   12CHTO   C89 4832   6.517   0.078   9.576
   12CHTO   O59 4833   6.441   0.183   9.515
   12CHTO  H137 4834   6.352   0.155   9.504
   12CHTO   O45 4835   6.690   9.845   9.983
   12CHTO   C67 4836   6.752   9.756   9.888
   12CHTO  H124 4837   6.678   9.716   9.818
   12CHTO   C65 4838   6.862   9.833   9.807
   12CHTO  H122 4839   6.818   9.928   9.777
   12CHTO   O44 4840   6.897   9.759   9.689
   12CHTO  H102 4841   6.955   9.809   9.636
   12CHTO   C63 4842   6.980   9.871   9.904
   12CHTO  H120 4843   6.940   9.926   9.988
   12CHTO   N11 4844   7.080   9.968   9.848
   12CHTO  H108 4845   7.149   9.997   9.925
   12CHTO  H109 4846   7.134   9.923   9.767
   12CHTO   C61 4847   7.042   9.738   9.962
   12CHTO  H118 4848   7.116   9.769  10.037
   12CHTO   O40 4849   6.941   9.661  10.033
   12CHTO   C68 4850   6.813   9.632   9.966
   12CHTO  H125 4851   6.741   9.607  10.047
   12CHTO   C72 4852   6.825   9.505   9.877
   12CHTO   O48 4853   6.860   9.388   9.951
   12CHTO  H105 4854   6.789   9.364  10.008
   12CHTO   O38 4855   7.103   9.652   9.863
   12CHTO   C55 4856   7.247   9.639   9.864
   12CHTO  H112 4857   7.293   9.713   9.931
   12CHTO   C56 4858   7.302   9.652   9.716
   12CHTO  H113 4859   7.250   9.576   9.655
   12CHTO   O42 4860   7.265   9.779   9.661
   12CHTO  H100 4861   7.304   9.849   9.709
   12CHTO   C57 4862   7.458   9.628   9.712
   12CHTO  H114 4863   7.504   9.709   9.770
   12CHTO   N10 4864   7.517   9.632   9.575
   12CHTO  H106 4865   7.620   9.666   9.581
   12CHTO  H107 4866   7.461   9.700   9.512
   12CHTO   C58 4867   7.490   9.493   9.782
   12CHTO  H115 4868   7.447   9.410   9.721
   12CHTO   O37 4869   7.434   9.490   9.914
   12CHTO   C59 4870   7.290   9.500   9.919
   12CHTO  H116 4871   7.246   9.420   9.859
   12CHTO   C70 4872   7.246   9.480  10.064
   12CHTO   O46 4873   7.278   9.349   0.032
   12CHTO  H103 4874   7.250   9.342   0.121
   12CHTO   O39 4875   7.651   9.473   9.797
   12CHTO   C60 4876   7.693   9.356   9.871
   12CHTO  H117 4877   7.635   9.350   9.963
   12CHTO   C62 4878   7.670   9.224   9.792
   12CHTO  H119 4879   7.561   9.217   9.772
   12CHTO   O43 4880   7.739   9.231   9.665
   12CHTO  H101 4881   7.721   9.154   9.614
   12CHTO   C66 4882   7.715   9.100   9.883
   12CHTO  H123 4883   7.659   9.104   9.976
   12CHTO   N12 4884   7.684   8.969   9.822
   12CHTO  H110 4885   7.578   8.961   9.803
   12CHTO  H111 4886   7.718   8.889   9.886
   12CHTO   C69 4887   7.866   9.114   9.920
   12CHTO  H126 4888   7.928   9.105   9.828
   12CHTO   O41 4889   7.892   9.255   9.988
   12CHTO   C64 4890   7.842   9.373   9.911
   12CHTO  H121 4891   7.902   9.385   9.819
   12CHTO   C71 4892   7.863   9.501   9.998
   12CHTO   O47 4893   7.794   9.493   0.041
   12CHTO  H104 4894   7.810   9.571   0.091
   12CHTO   O34 4895   7.910   9.000  10.022
   12CHTO   C49 4896   7.937   9.020   0.091
   12CHTO   H91 4897   8.025   9.085   0.099
   12CHTO   C47 4898   7.968   8.882   0.153
   12CHTO   H89 4899   7.997   8.905   0.259
   12CHTO   O33 4900   8.081   8.822   0.088
   12CHTO   H70 4901   8.107   8.744   0.133
   12CHTO   C45 4902   7.838   8.785   0.148
   12CHTO   H87 4903   7.841   8.729   0.053
   12CHTO    N8 4904   7.847   8.688   0.260
   12CHTO   H75 4905   7.842   8.740   0.354
   12CHTO   H76 4906   7.939   8.632   0.254
   12CHTO   C43 4907   7.703   8.873   0.140
   12CHTO   H85 4908   7.690   8.897   0.034
   12CHTO   O29 4909   7.717   8.991   0.220
   12CHTO   C50 4910   7.816   9.083   0.170
   12CHTO   H92 4911   7.765   9.154   0.104
   12CHTO   C54 4912   7.863   9.172   0.288
   12CHTO   O36 4913   7.949   9.278   0.246
   12CHTO   H72 4914   7.901   9.338   0.192
   12CHTO   O27 4915   7.584   8.799   0.174
   12CHTO   C37 4916   7.440   8.807   0.179
   12CHTO   H79 4917   7.402   8.732   0.250
   12CHTO   C38 4918   7.393   8.946   0.230
   12CHTO   H80 4919   7.437   9.023   0.164
   12CHTO   O31 4920   7.445   8.965   0.363
   12CHTO   H68 4921   7.429   9.053   0.392
   12CHTO   C39 4922   7.236   8.958   0.230
   12CHTO   H81 4923   7.200   8.898   0.313
   12CHTO    N7 4924   7.187   9.098   0.253
   12CHTO   H73 4925   7.269   9.167   0.265
   12CHTO   H74 4926   7.123   9.101   0.340
   12CHTO   C40 4927   7.171   8.899   0.099
   12CHTO   H82 4928   7.172   8.973   0.018
   12CHTO   O26 4929   7.232   8.775   0.059
   12CHTO   C41 4930   7.376   8.780   0.041
   12CHTO   H83 4931   7.403   8.859  10.051
   12CHTO   C52 4932   7.417   8.644  10.061
   12CHTO   O35 4933   7.557   8.641  10.015
   12CHTO   H71 4934   7.577   8.557   9.980
   12CHTO   O28 4935   7.035   8.858   0.126
   12CHTO   C42 4936   6.926   8.866   0.029
   12CHTO   H84 4937   6.865   8.779   0.054
   12CHTO   C44 4938   6.964   8.848   9.959
   12CHTO   H86 4939   7.037   8.924   9.933
   12CHTO   O32 4940   7.026   8.719   9.945
   12CHTO   H69 4941   6.965   8.651   9.965
   12CHTO   C48 4942   6.840   8.864   9.862
   12CHTO   H90 4943   6.778   8.775   9.874
   12CHTO    N9 4944   6.880   8.863   9.717
   12CHTO   H77 4945   6.928   8.769   9.692
   12CHTO   H78 4946   6.947   8.945   9.696
   12CHTO   C51 4947   6.755   8.990   9.900
   12CHTO   H93 4948   6.811   9.080   9.874
   12CHTO   O30 4949   6.722   8.986  10.039
   12CHTO   C46 4950   6.837   8.992   0.049
   12CHTO   H88 4951   6.894   9.083   0.029
   12CHTO   C53 4952   6.774   8.999   0.191
   12CHTO   O72 4953   6.870   9.023   0.294
   12CHTO  H199 4954   6.927   8.950   0.303
   12CHTO   O22 4955   6.627   8.988   9.834
   12CHTO   C31 4956   6.544   9.108   9.810
   12CHTO   H59 4957   6.447   9.070   9.773
   12CHTO   C29 4958   6.514   9.195   9.934
   12CHTO   H57 4959   6.609   9.235   9.972
   12CHTO   O21 4960   6.458   9.112  10.038
   12CHTO   H37 4961   6.523   9.050  10.068
   12CHTO   C27 4962   6.417   9.315   9.899
   12CHTO   H55 4963   6.317   9.274   9.877
   12CHTO    N5 4964   6.403   9.413  10.010
   12CHTO   H43 4965   6.471   9.391   0.009
   12CHTO   H44 4966   6.301   9.414  10.047
   12CHTO   C25 4967   6.462   9.388   9.767
   12CHTO   H53 4968   6.550   9.452   9.788
   12CHTO   O17 4969   6.499   9.295   9.662
   12CHTO   C32 4970   6.599   9.199   9.697
   12CHTO   H60 4971   6.689   9.250   9.733
   12CHTO   C36 4972   6.634   9.119   9.571
   12CHTO   O25 4973   6.695   9.203   9.473
   12CHTO   H40 4974   6.716   9.153   9.397
   12CHTO   O15 4975   6.348   9.475   9.713
   12CHTO   C19 4976   6.321   9.534   9.583
   12CHTO   H47 4977   6.238   9.604   9.602
   12CHTO   C20 4978   6.441   9.614   9.523
   12CHTO   H48 4979   6.525   9.548   9.498
   12CHTO   O19 4980   6.484   9.707   9.624
   12CHTO   H35 4981   6.561   9.753   9.594
   12CHTO   C21 4982   6.395   9.689   9.391
   12CHTO   H49 4983   6.320   9.763   9.417
   12CHTO    N4 4984   6.506   9.763   9.324
   12CHTO   H41 4985   6.586   9.695   9.298
   12CHTO   H42 4986   6.545   9.839   9.391
   12CHTO   C22 4987   6.327   9.587   9.294
   12CHTO   H50 4988   6.403   9.520   9.254
   12CHTO   O14 4989   6.226   9.510   9.360
   12CHTO   C23 4990   6.270   9.434   9.474
   12CHTO   H51 4991   6.350   9.366   9.440
   12CHTO   C34 4992   6.151   9.349   9.521
   12CHTO   O23 4993   6.190   9.249   9.616
   12CHTO   H38 4994   6.244   9.184   9.575
   12CHTO   O16 4995   6.258   9.655   9.188
   12CHTO   C24 4996   6.243   9.567   9.055
   12CHTO   H52 4997   6.257   9.461   9.075
   12CHTO   C26 4998   6.346   9.615   8.950
   12CHTO   H54 4999   6.331   9.724   8.932
   12CHTO   O20 5000   6.478   9.597   9.005
   12CHTO   H36 5001   6.542   9.634   8.948
   12CHTO   C30 5002   6.328   9.538   8.816
   12CHTO   H58 5003   6.356   9.433   8.830
   12CHTO    N6 5004   6.419   9.591   8.710
   12CHTO   H45 5005   6.406   9.535   8.618
   12CHTO   H46 5006   6.397   9.695   8.691
   12CHTO   C33 5007   6.178   9.540   8.770
   12CHTO   H61 5008   6.151   9.642   8.739
   12CHTO   O18 5009   6.091   9.503   8.879
   12CHTO   C28 5010   6.101   9.584   8.997
   12CHTO   H56 5011   6.085   9.690   8.972
   12CHTO   C35 5012   5.994   9.540   9.099
   12CHTO   O24 5013   5.861   9.565   9.051
   12CHTO   H39 5014   5.799   9.537   9.116
   12CHTO    O9 5015   6.155   9.457   8.654
   12CHTO   C13 5016   6.161   9.296   8.683
   12CHTO   H26 5017   6.172   9.280   8.792
   12CHTO   C11 5018   6.281   9.232   8.602
   12CHTO   H24 5019   6.375   9.271   8.645
   12CHTO    O8 5020   6.277   9.274   8.464
   12CHTO    H3 5021   6.352   9.242   8.418
   12CHTO    C9 5022   6.276   9.079   8.623
   12CHTO   H22 5023   6.279   9.064   8.732
   12CHTO    N2 5024   6.396   9.008   8.572
   12CHTO   H10 5025   6.400   9.014   8.464
   12CHTO   H11 5026   6.394   8.904   8.604
   12CHTO    C7 5027   6.140   9.022   8.568
   12CHTO   H20 5028   6.141   8.915   8.597
   12CHTO    O4 5029   6.028   9.086   8.633
   12CHTO   C14 5030   6.022   9.229   8.645
   12CHTO   H27 5031   5.953   9.250   8.729
   12CHTO   C18 5032   5.958   9.292   8.518
   12CHTO   O13 5033   5.821   9.253   8.504
   12CHTO    H7 5034   5.815   9.161   8.487
   12CHTO    O2 5035   6.123   9.038   8.403
   12CHTO    C1 5036   6.102   8.915   8.331
   12CHTO   H14 5037   6.114   8.828   8.399
   12CHTO    C2 5038   6.202   8.898   8.209
   12CHTO   H15 5039   6.192   8.989   8.147
   12CHTO    O6 5040   6.336   8.887   8.259
   12CHTO    H1 5041   6.363   8.969   8.298
   12CHTO    C3 5042   6.163   8.768   8.121
   12CHTO   H16 5043   6.182   8.678   8.182
   12CHTO    N1 5044   6.247   8.756   7.997
   12CHTO    H8 5045   6.219   8.668   7.942
   12CHTO    H9 5046   6.352   8.750   8.024
   12CHTO    C4 5047   6.009   8.768   8.089
   12CHTO   H17 5048   5.987   8.847   8.016
   12CHTO    O1 5049   5.932   8.786   8.209
   12CHTO    C5 5050   5.956   8.910   8.278
   12CHTO   H18 5051   5.943   8.993   8.208
   12CHTO   C16 5052   5.849   8.921   8.389
   12CHTO   O11 5053   5.856   8.814   8.484
   12CHTO    H5 5054   5.935   8.821   8.534
   12CHTO    O3 5055   5.965   8.639   8.041
   12CHTO    C6 5056   5.873   8.635   7.927
   12CHTO   H19 5057   5.863   8.731   7.876
   12CHTO    C8 5058   5.927   8.532   7.823
   12CHTO   H21 5059   5.961   8.443   7.877
   12CHTO    O7 5060   6.040   8.593   7.757
   12CHTO    H2 5061   6.111   8.603   7.817
   12CHTO   C12 5062   5.817   8.486   7.718
   12CHTO   H25 5063   5.797   8.574   7.653
   12CHTO    N3 5064   5.868   8.376   7.630
   12CHTO   H12 5065   5.793   8.349   7.558
   12CHTO   H13 5066   5.896   8.290   7.689
   12CHTO   C15 5067   5.685   8.449   7.794
   12CHTO   H28 5068   5.699   8.362   7.859
   12CHTO   O10 5069   5.565   8.424   7.701
   12CHTO    H4 5070   5.580   8.348   7.649
   12CHTO    O5 5071   5.641   8.562   7.870
   12CHTO   C10 5072   5.730   8.596   7.978
   12CHTO   H23 5073   5.737   8.510   8.044
   12CHTO   C17 5074   5.663   8.709   8.058
   12CHTO   O12 5075   5.643   8.827   7.980
   12CHTO    H6 5076   5.602   8.892   8.033
   13CHTO  H203 5077   6.355   4.660   3.720
   13CHTO   O82 5078   6.376   4.725   3.656
   13CHTO  C123 5079   6.318   4.851   3.694
   13CHTO  H227 5080   6.359   4.880   3.792
   13CHTO   O77 5081   6.366   4.942   3.591
   13CHTO  C118 5082   6.325   5.079   3.608
   13CHTO  H222 5083   6.355   5.116   3.707
   13CHTO  C125 5084   6.397   5.165   3.498
   13CHTO   O84 5085   6.539   5.162   3.517
   13CHTO  H205 5086   6.581   5.214   3.450
   13CHTO  C114 5087   6.172   5.087   3.595
   13CHTO  H218 5088   6.143   5.047   3.497
   13CHTO  C116 5089   6.103   4.996   3.701
   13CHTO  H220 5090   6.120   5.038   3.803
   13CHTO   O79 5091   5.962   5.000   3.677
   13CHTO  H201 5092   5.916   4.952   3.744
   13CHTO  C120 5093   6.160   4.848   3.695
   13CHTO  H224 5094   6.123   4.804   3.599
   13CHTO   N21 5095   6.108   4.763   3.805
   13CHTO  H211 5096   6.008   4.795   3.834
   13CHTO  H212 5097   6.107   4.660   3.775
   13CHTO   O75 5098   6.137   5.227   3.599
   13CHTO  C112 5099   6.127   5.305   3.746
   13CHTO  H216 5100   6.212   5.274   3.810
   13CHTO   O73 5101   6.001   5.270   3.805
   13CHTO  C113 5102   5.972   5.336   3.929
   13CHTO  H217 5103   6.058   5.319   3.999
   13CHTO  C124 5104   5.849   5.271   3.992
   13CHTO   O83 5105   5.871   5.133   4.027
   13CHTO  H204 5106   5.793   5.098   4.065
   13CHTO  C109 5107   5.954   5.487   3.902
   13CHTO  H213 5108   5.875   5.497   3.827
   13CHTO  C110 5109   6.089   5.542   3.846
   13CHTO  H214 5110   6.165   5.535   3.925
   13CHTO   O78 5111   6.072   5.682   3.816
   13CHTO  H200 5112   6.154   5.720   3.791
   13CHTO  C111 5113   6.134   5.461   3.721
   13CHTO  H215 5114   6.064   5.484   3.639
   13CHTO   N19 5115   6.270   5.498   3.672
   13CHTO  H207 5116   6.314   5.575   3.733
   13CHTO  H208 5117   6.265   5.531   3.569
   13CHTO   O74 5118   5.915   5.560   4.023
   13CHTO  C115 5119   5.763   5.623   4.016
   13CHTO  H219 5120   5.723   5.620   3.915
   13CHTO   O76 5121   5.663   5.541   4.101
   13CHTO  C122 5122   5.691   5.554   4.241
   13CHTO  H226 5123   5.794   5.523   4.258
   13CHTO  C126 5124   5.602   5.454   4.322
   13CHTO   O85 5125   5.629   5.317   4.289
   13CHTO  H206 5126   5.716   5.294   4.316
   13CHTO  C121 5127   5.669   5.703   4.292
   13CHTO  H225 5128   5.574   5.708   4.349
   13CHTO   O81 5129   5.777   5.738   4.379
   13CHTO  H202 5130   5.775   5.685   4.457
   13CHTO  C119 5131   5.663   5.805   4.174
   13CHTO  H223 5132   5.565   5.789   4.128
   13CHTO  C117 5133   5.772   5.775   4.064
   13CHTO  H221 5134   5.875   5.788   4.097
   13CHTO   N20 5135   5.755   5.870   3.949
   13CHTO  H209 5136   5.843   5.932   3.938
   13CHTO  H210 5137   5.735   5.817   3.856
   13CHTO   O80 5138   5.650   5.962   4.226
   13CHTO  C103 5139   5.508   6.020   4.281
   13CHTO  H190 5140   5.502   6.127   4.263
   13CHTO  C101 5141   5.378   5.954   4.221
   13CHTO  H188 5142   5.382   5.846   4.238
   13CHTO   O68 5143   5.377   5.981   4.066
   13CHTO  H168 5144   5.450   5.939   4.026
   13CHTO   C99 5145   5.247   6.010   4.294
   13CHTO  H186 5146   5.240   6.119   4.274
   13CHTO   N17 5147   5.120   5.948   4.243
   13CHTO  H174 5148   5.118   5.843   4.268
   13CHTO  H175 5149   5.035   6.000   4.285
   13CHTO   C97 5150   5.261   5.996   4.448
   13CHTO  H184 5151   5.257   5.889   4.474
   13CHTO   O64 5152   5.385   6.057   4.491
   13CHTO  C104 5153   5.505   6.000   4.438
   13CHTO  H191 5154   5.515   5.894   4.462
   13CHTO  C108 5155   5.622   6.070   4.510
   13CHTO   O71 5156   5.748   6.005   4.491
   13CHTO  H171 5157   5.748   5.923   4.535
   13CHTO   O62 5158   5.161   6.072   4.521
   13CHTO   C91 5159   5.087   6.007   4.627
   13CHTO  H178 5160   5.103   5.899   4.621
   13CHTO   C92 5161   4.934   6.030   4.603
   13CHTO  H179 5162   4.915   6.138   4.596
   13CHTO   O66 5163   4.898   5.975   4.475
   13CHTO  H166 5164   4.940   6.023   4.406
   13CHTO   C93 5165   4.843   5.965   4.715
   13CHTO  H180 5166   4.844   5.856   4.698
   13CHTO   N16 5167   4.700   6.005   4.706
   13CHTO  H172 5168   4.691   6.112   4.715
   13CHTO  H173 5169   4.658   5.971   4.612
   13CHTO   C94 5170   4.899   5.993   4.860
   13CHTO  H181 5171   4.881   6.097   4.891
   13CHTO   O61 5172   5.041   5.972   4.866
   13CHTO   C95 5173   5.116   6.054   4.775
   13CHTO  H182 5174   5.087   6.158   4.788
   13CHTO  C106 5175   5.266   6.041   4.818
   13CHTO   O69 5176   5.347   6.145   4.761
   13CHTO  H169 5177   5.355   6.131   4.668
   13CHTO   O63 5178   4.832   5.890   4.966
   13CHTO   C96 5179   4.796   5.958   5.102
   13CHTO  H183 5180   4.748   6.053   5.079
   13CHTO   C98 5181   4.918   5.987   5.195
   13CHTO  H185 5182   5.000   6.032   5.138
   13CHTO   O67 5183   4.878   6.086   5.291
   13CHTO  H167 5184   4.952   6.113   5.342
   13CHTO  C102 5185   4.967   5.856   5.274
   13CHTO  H189 5186   5.037   5.893   5.351
   13CHTO   N18 5187   5.045   5.759   5.194
   13CHTO  H176 5188   4.986   5.723   5.111
   13CHTO  H177 5189   5.135   5.806   5.157
   13CHTO  C105 5190   4.845   5.790   5.347
   13CHTO  H192 5191   4.839   5.684   5.323
   13CHTO   O65 5192   4.716   5.848   5.316
   13CHTO  C100 5193   4.690   5.864   5.175
   13CHTO  H187 5194   4.693   5.764   5.129
   13CHTO  C107 5195   4.546   5.919   5.157
   13CHTO   O70 5196   4.448   5.825   5.204
   13CHTO  H170 5197   4.452   5.819   5.297
   13CHTO   O57 5198   4.879   5.808   5.502
   13CHTO   C85 5199   4.832   5.712   5.597
   13CHTO  H157 5200   4.826   5.614   5.544
   13CHTO   C83 5201   4.685   5.745   5.642
   13CHTO  H155 5202   4.621   5.740   5.554
   13CHTO   O56 5203   4.680   5.880   5.691
   13CHTO  H135 5204   4.698   5.941   5.621
   13CHTO   C81 5205   4.637   5.638   5.745
   13CHTO  H153 5206   4.641   5.540   5.696
   13CHTO   N14 5207   4.494   5.654   5.783
   13CHTO  H141 5208   4.433   5.654   5.695
   13CHTO  H142 5209   4.464   5.573   5.846
   13CHTO   C79 5210   4.734   5.635   5.870
   13CHTO  H151 5211   4.704   5.549   5.930
   13CHTO   O52 5212   4.871   5.608   5.827
   13CHTO   C86 5213   4.921   5.703   5.727
   13CHTO  H158 5214   4.924   5.800   5.779
   13CHTO   C90 5215   5.068   5.669   5.691
   13CHTO   O60 5216   5.152   5.681   5.807
   13CHTO  H138 5217   5.241   5.662   5.782
   13CHTO   O50 5218   4.732   5.753   5.952
   13CHTO   C73 5219   4.690   5.846   6.053
   13CHTO  H145 5220   4.581   5.855   6.052
   13CHTO   C74 5221   4.752   5.986   6.028
   13CHTO  H146 5222   4.721   6.017   5.927
   13CHTO   O54 5223   4.691   6.080   6.120
   13CHTO  H133 5224   4.600   6.092   6.098
   13CHTO   C75 5225   4.909   5.978   6.042
   13CHTO  H147 5226   4.947   5.920   5.956
   13CHTO   N13 5227   4.980   6.108   6.032
   13CHTO  H139 5228   5.087   6.093   6.039
   13CHTO  H140 5229   4.958   6.154   5.937
   13CHTO   C76 5230   4.954   5.898   6.174
   13CHTO  H148 5231   4.945   5.965   6.260
   13CHTO   O49 5232   4.877   5.776   6.199
   13CHTO   C77 5233   4.735   5.798   6.194
   13CHTO  H149 5234   4.709   5.875   6.267
   13CHTO   C88 5235   4.658   5.674   6.243
   13CHTO   O58 5236   4.698   5.551   6.177
   13CHTO  H136 5237   4.786   5.529   6.200
   13CHTO   O51 5238   5.099   5.847   6.148
   13CHTO   C78 5239   5.187   5.817   6.268
   13CHTO  H150 5240   5.128   5.772   6.351
   13CHTO   C80 5241   5.255   5.946   6.320
   13CHTO  H152 5242   5.294   6.002   6.233
   13CHTO   O55 5243   5.154   6.030   6.381
   13CHTO  H134 5244   5.118   5.988   6.457
   13CHTO   C84 5245   5.375   5.916   6.420
   13CHTO  H156 5246   5.333   5.871   6.510
   13CHTO   N15 5247   5.449   6.039   6.462
   13CHTO  H143 5248   5.487   6.090   6.376
   13CHTO  H144 5249   5.383   6.105   6.515
   13CHTO   C87 5250   5.469   5.813   6.353
   13CHTO  H159 5251   5.507   5.855   6.260
   13CHTO   O53 5252   5.386   5.688   6.324
   13CHTO   C82 5253   5.290   5.714   6.221
   13CHTO  H154 5254   5.341   5.750   6.131
   13CHTO   C89 5255   5.221   5.581   6.182
   13CHTO   O59 5256   5.313   5.491   6.120
   13CHTO  H137 5257   5.378   5.463   6.181
   13CHTO   O45 5258   5.593   5.766   6.449
   13CHTO   C67 5259   5.720   5.759   6.380
   13CHTO  H124 5260   5.712   5.806   6.282
   13CHTO   C65 5261   5.830   5.837   6.463
   13CHTO  H122 5262   5.792   5.841   6.566
   13CHTO   O44 5263   5.833   5.970   6.410
   13CHTO  H102 5264   5.885   6.025   6.465
   13CHTO   C63 5265   5.967   5.759   6.474
   13CHTO  H120 5266   5.954   5.677   6.546
   13CHTO   N11 5267   6.080   5.834   6.536
   13CHTO  H108 5268   6.050   5.876   6.630
   13CHTO  H109 5269   6.111   5.913   6.471
   13CHTO   C61 5270   6.001   5.691   6.337
   13CHTO  H118 5271   6.088   5.626   6.355
   13CHTO   O40 5272   5.896   5.605   6.287
   13CHTO   C68 5273   5.765   5.610   6.353
   13CHTO  H125 5274   5.771   5.554   6.448
   13CHTO   C72 5275   5.665   5.535   6.262
   13CHTO   O48 5276   5.696   5.396   6.249
   13CHTO  H105 5277   5.677   5.352   6.330
   13CHTO   O38 5278   6.032   5.788   6.234
   13CHTO   C55 5279   6.111   5.741   6.123
   13CHTO  H112 5280   6.090   5.634   6.104
   13CHTO   C56 5281   6.265   5.767   6.150
   13CHTO  H113 5282   6.274   5.872   6.181
   13CHTO   O42 5283   6.309   5.687   6.261
   13CHTO  H100 5284   6.397   5.709   6.283
   13CHTO   C57 5285   6.351   5.740   6.020
   13CHTO  H114 5286   6.345   5.634   5.997
   13CHTO   N10 5287   6.495   5.775   6.037
   13CHTO  H106 5288   6.549   5.690   6.075
   13CHTO  H107 5289   6.506   5.858   6.105
   13CHTO   C58 5290   6.288   5.819   5.902
   13CHTO  H115 5291   6.292   5.929   5.925
   13CHTO   O37 5292   6.151   5.779   5.884
   13CHTO   C59 5293   6.066   5.816   5.994
   13CHTO  H116 5294   6.070   5.924   6.009
   13CHTO   C70 5295   5.921   5.780   5.958
   13CHTO   O46 5296   5.871   5.855   5.848
   13CHTO  H103 5297   5.861   5.946   5.872
   13CHTO   O39 5298   6.362   5.789   5.755
   13CHTO   C60 5299   6.454   5.892   5.715
   13CHTO  H117 5300   6.472   5.960   5.799
   13CHTO   C62 5301   6.591   5.831   5.675
   13CHTO  H119 5302   6.623   5.769   5.761
   13CHTO   O43 5303   6.574   5.745   5.560
   13CHTO  H101 5304   6.656   5.703   5.540
   13CHTO   C66 5305   6.696   5.950   5.653
   13CHTO  H123 5306   6.700   6.009   5.744
   13CHTO   N12 5307   6.835   5.900   5.633
   13CHTO  H110 5308   6.901   5.940   5.708
   13CHTO  H111 5309   6.871   5.923   5.533
   13CHTO   C69 5310   6.647   6.044   5.539
   13CHTO  H126 5311   6.651   5.990   5.442
   13CHTO   O41 5312   6.497   6.092   5.567
   13CHTO   C64 5313   6.398   5.978   5.598
   13CHTO  H121 5314   6.386   5.914   5.508
   13CHTO   C71 5315   6.260   6.040   5.632
   13CHTO   O47 5316   6.204   6.107   5.519
   13CHTO  H104 5317   6.182   6.045   5.453
   13CHTO   O34 5318   6.738   6.169   5.530
   13CHTO   C49 5319   6.767   6.318   5.533
   13CHTO   H91 5320   6.775   6.351   5.429
   13CHTO   C47 5321   6.902   6.338   5.606
   13CHTO   H89 5322   6.923   6.447   5.596
   13CHTO   O33 5323   7.006   6.266   5.539
   13CHTO   H70 5324   7.090   6.289   5.575
   13CHTO   C45 5325   6.890   6.294   5.761
   13CHTO   H87 5326   6.912   6.187   5.769
   13CHTO    N8 5327   6.994   6.369   5.837
   13CHTO   H75 5328   7.066   6.300   5.879
   13CHTO   H76 5329   6.949   6.427   5.917
   13CHTO   C43 5330   6.737   6.309   5.814
   13CHTO   H85 5331   6.688   6.215   5.788
   13CHTO   O29 5332   6.674   6.421   5.750
   13CHTO   C50 5333   6.658   6.403   5.607
   13CHTO   H92 5334   6.561   6.353   5.591
   13CHTO   C54 5335   6.635   6.541   5.541
   13CHTO   O36 5336   6.742   6.633   5.569
   13CHTO   H72 5337   6.724   6.715   5.527
   13CHTO   O27 5338   6.725   6.316   5.956
   13CHTO   C37 5339   6.620   6.340   6.051
   13CHTO   H79 5340   6.535   6.389   6.001
   13CHTO   C38 5341   6.567   6.206   6.112
   13CHTO   H80 5342   6.654   6.147   6.146
   13CHTO   O31 5343   6.502   6.135   6.005
   13CHTO   H68 5344   6.476   6.049   6.034
   13CHTO   C39 5345   6.470   6.230   6.234
   13CHTO   H81 5346   6.379   6.276   6.194
   13CHTO    N7 5347   6.428   6.102   6.302
   13CHTO   H73 5348   6.320   6.093   6.301
   13CHTO   H74 5349   6.465   6.098   6.403
   13CHTO   C40 5350   6.532   6.333   6.335
   13CHTO   H82 5351   6.616   6.287   6.389
   13CHTO   O26 5352   6.572   6.451   6.265
   13CHTO   C41 5353   6.673   6.434   6.162
   13CHTO   H83 5354   6.765   6.393   6.207
   13CHTO   C52 5355   6.703   6.578   6.112
   13CHTO   O35 5356   6.807   6.584   6.017
   13CHTO   H71 5357   6.817   6.673   5.987
   13CHTO   O28 5358   6.435   6.380   6.431
   13CHTO   C42 5359   6.471   6.460   6.550
   13CHTO   H84 5360   6.376   6.504   6.580
   13CHTO   C44 5361   6.569   6.581   6.527
   13CHTO   H86 5362   6.663   6.542   6.487
   13CHTO   O32 5363   6.510   6.666   6.427
   13CHTO   H69 5364   6.430   6.703   6.458
   13CHTO   C48 5365   6.602   6.662   6.659
   13CHTO   H90 5366   6.514   6.719   6.686
   13CHTO    N9 5367   6.712   6.762   6.635
   13CHTO   H77 5368   6.681   6.834   6.560
   13CHTO   H78 5369   6.803   6.712   6.605
   13CHTO   C51 5370   6.636   6.565   6.778
   13CHTO   H93 5371   6.734   6.520   6.758
   13CHTO   O30 5372   6.534   6.464   6.790
   13CHTO   C46 5373   6.522   6.374   6.669
   13CHTO   H88 5374   6.620   6.333   6.645
   13CHTO   C53 5375   6.423   6.261   6.703
   13CHTO   O72 5376   6.472   6.180   6.811
   13CHTO  H199 5377   6.410   6.113   6.831
   13CHTO   O22 5378   6.645   6.639   6.902
   13CHTO   C31 5379   6.551   6.630   7.017
   13CHTO   H59 5380   6.456   6.591   6.976
   13CHTO   C29 5381   6.599   6.532   7.126
   13CHTO   H57 5382   6.699   6.565   7.159
   13CHTO   O21 5383   6.614   6.401   7.067
   13CHTO   H37 5384   6.682   6.403   7.002
   13CHTO   C27 5385   6.502   6.530   7.251
   13CHTO   H55 5386   6.406   6.486   7.220
   13CHTO    N5 5387   6.556   6.449   7.364
   13CHTO   H43 5388   6.573   6.347   7.331
   13CHTO   H44 5389   6.649   6.492   7.399
   13CHTO   C25 5390   6.472   6.677   7.296
   13CHTO   H53 5391   6.564   6.724   7.333
   13CHTO   O17 5392   6.422   6.753   7.183
   13CHTO   C32 5393   6.518   6.770   7.078
   13CHTO   H60 5394   6.610   6.814   7.118
   13CHTO   C36 5395   6.454   6.868   6.977
   13CHTO   O25 5396   6.549   6.920   6.884
   13CHTO   H40 5397   6.608   6.979   6.928
   13CHTO   O15 5398   6.361   6.685   7.411
   13CHTO   C19 5399   6.271   6.796   7.442
   13CHTO   H47 5400   6.236   6.774   7.544
   13CHTO   C20 5401   6.338   6.937   7.441
   13CHTO   H48 5402   6.385   6.959   7.344
   13CHTO   O19 5403   6.442   6.933   7.540
   13CHTO   H35 5404   6.491   7.013   7.539
   13CHTO   C21 5405   6.234   7.052   7.472
   13CHTO   H49 5406   6.201   7.042   7.575
   13CHTO    N4 5407   6.293   7.189   7.461
   13CHTO   H41 5408   6.244   7.247   7.384
   13CHTO   H42 5409   6.399   7.184   7.439
   13CHTO   C22 5410   6.107   7.034   7.384
   13CHTO   H50 5411   6.133   7.055   7.280
   13CHTO   O14 5412   6.054   6.901   7.395
   13CHTO   C23 5413   6.144   6.797   7.351
   13CHTO   H51 5414   6.169   6.818   7.246
   13CHTO   C34 5415   6.071   6.662   7.353
   13CHTO   O23 5416   6.022   6.628   7.484
   13CHTO   H38 5417   5.978   6.545   7.480
   13CHTO   O16 5418   6.000   7.120   7.428
   13CHTO   C24 5419   5.901   7.166   7.309
   13CHTO   H52 5420   5.919   7.110   7.218
   13CHTO   C26 5421   5.920   7.316   7.282
   13CHTO   H54 5422   5.905   7.372   7.377
   13CHTO   O20 5423   6.055   7.336   7.237
   13CHTO   H36 5424   6.073   7.428   7.228
   13CHTO   C30 5425   5.815   7.369   7.178
   13CHTO   H58 5426   5.837   7.326   7.079
   13CHTO    N6 5427   5.825   7.517   7.161
   13CHTO   H45 5428   5.803   7.566   7.255
   13CHTO   H46 5429   5.754   7.550   7.087
   13CHTO   C33 5430   5.671   7.323   7.215
   13CHTO   H61 5431   5.637   7.376   7.305
   13CHTO   O18 5432   5.670   7.181   7.242
   13CHTO   C28 5433   5.754   7.138   7.350
   13CHTO   H56 5434   5.731   7.192   7.442
   13CHTO   C35 5435   5.732   6.987   7.371
   13CHTO   O24 5436   5.595   6.953   7.392
   13CHTO   H39 5437   5.586   6.861   7.404
   13CHTO    O9 5438   5.576   7.356   7.111
   13CHTO   C13 5439   5.431   7.422   7.159
   13CHTO   H26 5440   5.451   7.528   7.186
   13CHTO   C11 5441   5.366   7.341   7.279
   13CHTO   H24 5442   5.429   7.357   7.369
   13CHTO    O8 5443   5.365   7.200   7.250
   13CHTO    H3 5444   5.453   7.168   7.243
   13CHTO    C9 5445   5.225   7.400   7.306
   13CHTO   H22 5446   5.241   7.508   7.322
   13CHTO    N2 5447   5.166   7.353   7.434
   13CHTO   H10 5448   5.234   7.372   7.515
   13CHTO   H11 5449   5.072   7.404   7.451
   13CHTO    C7 5450   5.134   7.383   7.177
   13CHTO   H20 5451   5.090   7.484   7.163
   13CHTO    O4 5452   5.210   7.349   7.059
   13CHTO   C14 5453   5.328   7.429   7.036
   13CHTO   H27 5454   5.296   7.534   7.022
   13CHTO   C18 5455   5.388   7.382   6.900
   13CHTO   O13 5456   5.493   7.469   6.856
   13CHTO    H7 5457   5.456   7.551   6.828
   13CHTO    O2 5458   5.011   7.271   7.193
   13CHTO    C1 5459   4.880   7.320   7.161
   13CHTO   H14 5460   4.886   7.387   7.073
   13CHTO    C2 5461   4.808   7.398   7.280
   13CHTO   H15 5462   4.822   7.335   7.369
   13CHTO    O6 5463   4.875   7.523   7.301
   13CHTO    H1 5464   4.841   7.567   7.376
   13CHTO    C3 5465   4.651   7.421   7.253
   13CHTO   H16 5466   4.639   7.497   7.175
   13CHTO    N1 5467   4.580   7.472   7.375
   13CHTO    H8 5468   4.475   7.489   7.352
   13CHTO    H9 5469   4.588   7.400   7.455
   13CHTO    C4 5470   4.585   7.290   7.195
   13CHTO   H17 5471   4.583   7.214   7.273
   13CHTO    O1 5472   4.661   7.243   7.082
   13CHTO    C5 5473   4.792   7.199   7.118
   13CHTO   H18 5474   4.786   7.130   7.202
   13CHTO   C16 5475   4.852   7.124   6.997
   13CHTO   O11 5476   4.773   7.009   6.964
   13CHTO    H5 5477   4.784   6.943   7.030
   13CHTO    O3 5478   4.451   7.313   7.145
   13CHTO    C6 5479   4.376   7.189   7.119
   13CHTO   H19 5480   4.440   7.101   7.110
   13CHTO    C8 5481   4.275   7.161   7.235
   13CHTO   H21 5482   4.211   7.249   7.247
   13CHTO    O7 5483   4.352   7.141   7.354
   13CHTO    H2 5484   4.296   7.131   7.428
   13CHTO   C12 5485   4.186   7.035   7.199
   13CHTO   H25 5486   4.255   6.948   7.195
   13CHTO    N3 5487   4.086   7.005   7.307
   13CHTO   H12 5488   4.137   6.982   7.400
   13CHTO   H13 5489   4.019   7.089   7.321
   13CHTO   C15 5490   4.121   7.055   7.058
   13CHTO   H28 5491   4.047   7.136   7.059
   13CHTO   O10 5492   4.055   6.927   7.002
   13CHTO    H4 5493   4.005   6.947   6.926
   13CHTO    O5 5494   4.222   7.083   6.959
   13CHTO   C10 5495   4.298   7.202   6.985
   13CHTO   H23 5496   4.230   7.286   6.990
   13CHTO   C17 5497   4.393   7.226   6.867
   13CHTO   O12 5498   4.320   7.251   6.747
   13CHTO    H6 5499   4.276   7.173   6.719
   14CHTO  H203 5500   5.117   6.086   5.766
   14CHTO   O82 5501   5.183   6.151   5.754
   14CHTO  C123 5502   5.303   6.094   5.699
   14CHTO  H227 5503   5.376   6.174   5.682
   14CHTO   O77 5504   5.350   6.007   5.807
   14CHTO  C118 5505   5.470   5.934   5.777
   14CHTO  H222 5506   5.551   6.003   5.749
   14CHTO  C125 5507   5.512   5.857   5.908
   14CHTO   O84 5508   5.551   5.948   6.011
   14CHTO  H205 5509   5.579   5.899   6.087
   14CHTO  C114 5510   5.442   5.837   5.660
   14CHTO  H218 5511   5.358   5.773   5.687
   14CHTO  C116 5512   5.399   5.919   5.534
   14CHTO  H220 5513   5.485   5.983   5.501
   14CHTO   O79 5514   5.371   5.829   5.426
   14CHTO  H201 5515   5.449   5.786   5.398
   14CHTO  C120 5516   5.274   6.011   5.568
   14CHTO  H224 5517   5.189   5.942   5.584
   14CHTO   N21 5518   5.236   6.100   5.454
   14CHTO  H211 5519   5.188   6.190   5.490
   14CHTO  H212 5520   5.322   6.125   5.394
   14CHTO   O75 5521   5.561   5.758   5.643
   14CHTO  C112 5522   5.533   5.589   5.619
   14CHTO  H216 5523   5.620   5.547   5.567
   14CHTO   O73 5524   5.413   5.574   5.542
   14CHTO  C113 5525   5.369   5.440   5.518
   14CHTO  H217 5526   5.451   5.382   5.470
   14CHTO  C124 5527   5.254   5.449   5.417
   14CHTO   O83 5528   5.296   5.500   5.290
   14CHTO  H204 5529   5.222   5.504   5.232
   14CHTO  C109 5530   5.331   5.374   5.653
   14CHTO  H213 5531   5.251   5.435   5.698
   14CHTO  C110 5532   5.458   5.373   5.744
   14CHTO  H214 5533   5.532   5.307   5.699
   14CHTO   O78 5534   5.421   5.318   5.872
   14CHTO  H200 5535   5.497   5.308   5.926
   14CHTO  C111 5536   5.516   5.517   5.760
   14CHTO  H215 5537   5.446   5.577   5.819
   14CHTO   N19 5538   5.646   5.519   5.833
   14CHTO  H207 5539   5.681   5.620   5.844
   14CHTO  H208 5540   5.720   5.461   5.778
   14CHTO   O74 5541   5.281   5.236   5.639
   14CHTO  C115 5542   5.117   5.220   5.617
   14CHTO  H219 5543   5.070   5.316   5.593
   14CHTO   O76 5544   5.085   5.127   5.494
   14CHTO  C122 5545   4.947   5.098   5.465
   14CHTO  H226 5546   4.946   5.018   5.392
   14CHTO  C126 5547   4.882   5.223   5.394
   14CHTO   O85 5548   4.748   5.198   5.350
   14CHTO  H206 5549   4.748   5.135   5.281
   14CHTO  C121 5550   4.869   5.052   5.594
   14CHTO  H225 5551   4.761   5.049   5.569
   14CHTO   O81 5552   4.906   4.917   5.626
   14CHTO  H202 5553   4.851   4.883   5.694
   14CHTO  C119 5554   4.891   5.149   5.713
   14CHTO  H223 5555   4.856   5.247   5.679
   14CHTO  C117 5556   5.045   5.164   5.746
   14CHTO  H221 5557   5.099   5.073   5.771
   14CHTO   N20 5558   5.067   5.256   5.862
   14CHTO  H209 5559   5.025   5.354   5.841
   14CHTO  H210 5560   5.022   5.215   5.951
   14CHTO   O80 5561   4.792   5.121   5.835
   14CHTO  C103 5562   4.662   5.212   5.851
   14CHTO  H190 5563   4.688   5.317   5.839
   14CHTO  C101 5564   4.541   5.178   5.757
   14CHTO  H188 5565   4.521   5.071   5.762
   14CHTO   O68 5566   4.580   5.215   5.611
   14CHTO  H168 5567   4.513   5.187   5.552
   14CHTO   C99 5568   4.408   5.257   5.801
   14CHTO  H186 5569   4.424   5.365   5.779
   14CHTO   N17 5570   4.286   5.215   5.722
   14CHTO  H174 5571   4.205   5.189   5.788
   14CHTO  H175 5572   4.257   5.294   5.654
   14CHTO   C97 5573   4.386   5.249   5.955
   14CHTO  H184 5574   4.348   5.149   5.980
   14CHTO   O64 5575   4.506   5.281   6.027
   14CHTO  C104 5576   4.616   5.193   6.000
   14CHTO  H191 5577   4.590   5.089   6.017
   14CHTO  C108 5578   4.730   5.224   6.099
   14CHTO   O71 5579   4.691   5.201   6.235
   14CHTO  H171 5580   4.628   5.265   6.261
   14CHTO   O62 5581   4.288   5.348   5.993
   14CHTO   C91 5582   4.244   5.356   6.130
   14CHTO  H178 5583   4.256   5.257   6.175
   14CHTO   C92 5584   4.090   5.386   6.128
   14CHTO  H179 5585   4.037   5.307   6.072
   14CHTO   O66 5586   4.040   5.375   6.263
   14CHTO  H166 5587   3.946   5.382   6.264
   14CHTO   C93 5588   4.057   5.531   6.074
   14CHTO  H180 5589   3.964   5.564   6.123
   14CHTO   N16 5590   4.028   5.530   5.929
   14CHTO  H172 5591   3.929   5.571   5.910
   14CHTO  H173 5592   4.103   5.584   5.873
   14CHTO   C94 5593   4.173   5.633   6.113
   14CHTO  H181 5594   4.248   5.641   6.034
   14CHTO   O61 5595   4.242   5.588   6.231
   14CHTO   C95 5596   4.319   5.467   6.215
   14CHTO  H182 5597   4.413   5.492   6.165
   14CHTO  C106 5598   4.356   5.412   6.357
   14CHTO   O69 5599   4.435   5.504   6.433
   14CHTO  H169 5600   4.520   5.513   6.394
   14CHTO   O63 5601   4.110   5.777   6.146
   14CHTO   C96 5602   4.154   5.899   6.048
   14CHTO  H183 5603   4.099   5.988   6.080
   14CHTO   C98 5604   4.121   5.876   5.898
   14CHTO  H185 5605   4.161   5.779   5.866
   14CHTO   O67 5606   3.978   5.864   5.889
   14CHTO  H167 5607   3.953   5.843   5.801
   14CHTO  C102 5608   4.175   5.993   5.802
   14CHTO  H189 5609   4.112   6.081   5.824
   14CHTO   N18 5610   4.156   5.964   5.658
   14CHTO  H176 5611   4.193   6.047   5.598
   14CHTO  H177 5612   4.051   5.949   5.636
   14CHTO  C105 5613   4.322   6.027   5.837
   14CHTO  H192 5614   4.387   5.947   5.803
   14CHTO   O65 5615   4.343   6.045   5.979
   14CHTO  C100 5616   4.308   5.933   6.062
   14CHTO  H187 5617   4.367   5.845   6.030
   14CHTO  C107 5618   4.349   5.971   6.206
   14CHTO   O70 5619   4.343   5.860   6.296
   14CHTO  H170 5620   4.367   5.888   6.382
   14CHTO   O57 5621   4.358   6.171   5.757
   14CHTO   C85 5622   4.474   6.176   5.672
   14CHTO  H157 5623   4.501   6.070   5.652
   14CHTO   C83 5624   4.596   6.237   5.748
   14CHTO  H155 5625   4.614   6.177   5.837
   14CHTO   O56 5626   4.561   6.369   5.795
   14CHTO  H135 5627   4.631   6.404   5.849
   14CHTO   C81 5628   4.722   6.232   5.657
   14CHTO  H153 5629   4.741   6.128   5.632
   14CHTO   N14 5630   4.847   6.275   5.725
   14CHTO  H141 5631   4.898   6.350   5.668
   14CHTO  H142 5632   4.827   6.313   5.823
   14CHTO   C79 5633   4.695   6.310   5.522
   14CHTO  H151 5634   4.779   6.290   5.456
   14CHTO   O52 5635   4.576   6.256   5.456
   14CHTO   C86 5636   4.456   6.259   5.539
   14CHTO  H158 5637   4.438   6.366   5.561
   14CHTO   C90 5638   4.334   6.212   5.456
   14CHTO   O60 5639   4.305   6.304   5.351
   14CHTO  H138 5640   4.228   6.277   5.306
   14CHTO   O50 5641   4.682   6.452   5.538
   14CHTO   C73 5642   4.672   6.588   5.494
   14CHTO  H145 5643   4.651   6.653   5.580
   14CHTO   C74 5644   4.557   6.605   5.391
   14CHTO  H146 5645   4.465   6.568   5.438
   14CHTO   O54 5646   4.537   6.746   5.369
   14CHTO  H133 5647   4.503   6.787   5.446
   14CHTO   C75 5648   4.591   6.526   5.259
   14CHTO  H147 5649   4.594   6.419   5.283
   14CHTO   N13 5650   4.487   6.536   5.153
   14CHTO  H139 5651   4.393   6.498   5.191
   14CHTO  H140 5652   4.515   6.478   5.067
   14CHTO   C76 5653   4.736   6.565   5.205
   14CHTO  H148 5654   4.732   6.666   5.164
   14CHTO   O49 5655   4.838   6.559   5.311
   14CHTO   C77 5656   4.806   6.634   5.429
   14CHTO  H149 5657   4.799   6.740   5.405
   14CHTO   C88 5658   4.923   6.622   5.528
   14CHTO   O58 5659   5.041   6.693   5.481
   14CHTO  H136 5660   5.026   6.785   5.485
   14CHTO   O51 5661   4.785   6.457   5.102
   14CHTO   C78 5662   4.862   6.515   4.981
   14CHTO  H150 5663   4.913   6.611   5.008
   14CHTO   C80 5664   4.763   6.542   4.866
   14CHTO  H152 5665   4.699   6.451   4.852
   14CHTO   O55 5666   4.678   6.651   4.905
   14CHTO  H134 5667   4.622   6.625   4.976
   14CHTO   C84 5668   4.835   6.576   4.730
   14CHTO  H156 5669   4.877   6.676   4.740
   14CHTO   N15 5670   4.739   6.583   4.614
   14CHTO  H143 5671   4.688   6.489   4.603
   14CHTO  H144 5672   4.666   6.660   4.631
   14CHTO   C87 5673   4.951   6.477   4.702
   14CHTO  H159 5674   4.911   6.379   4.674
   14CHTO   O53 5675   5.040   6.466   4.824
   14CHTO   C82 5676   4.972   6.415   4.939
   14CHTO  H154 5677   4.929   6.317   4.917
   14CHTO   C89 5678   5.079   6.395   5.049
   14CHTO   O59 5679   5.029   6.324   5.162
   14CHTO  H137 5680   5.097   6.313   5.225
   14CHTO   O45 5681   5.044   6.533   4.587
   14CHTO   C67 5682   5.102   6.433   4.502
   14CHTO  H124 5683   5.112   6.339   4.556
   14CHTO   C65 5684   5.013   6.409   4.375
   14CHTO  H122 5685   4.912   6.441   4.401
   14CHTO   O44 5686   5.012   6.269   4.344
   14CHTO  H102 5687   4.951   6.252   4.274
   14CHTO   C63 5688   5.061   6.504   4.259
   14CHTO  H120 5689   5.067   6.606   4.297
   14CHTO   N11 5690   4.967   6.520   4.144
   14CHTO  H108 5691   4.958   6.428   4.091
   14CHTO  H109 5692   4.871   6.551   4.179
   14CHTO   C61 5693   5.209   6.463   4.220
   14CHTO  H118 5694   5.254   6.548   4.168
   14CHTO   O40 5695   5.293   6.433   4.335
   14CHTO   C68 5696   5.249   6.480   4.465
   14CHTO  H125 5697   5.253   6.591   4.465
   14CHTO   C72 5698   5.354   6.432   4.568
   14CHTO   O48 5699   5.324   6.475   4.701
   14CHTO  H105 5700   5.389   6.443   4.760
   14CHTO   O38 5701   5.220   6.341   4.144
   14CHTO   C55 5702   5.241   6.348   4.002
   14CHTO  H112 5703   5.208   6.446   3.963
   14CHTO   C56 5704   5.161   6.228   3.935
   14CHTO  H113 5705   5.186   6.138   3.993
   14CHTO   O42 5706   5.020   6.250   3.955
   14CHTO  H100 5707   4.971   6.176   3.925
   14CHTO   C57 5708   5.197   6.209   3.783
   14CHTO  H114 5709   5.155   6.294   3.729
   14CHTO   N10 5710   5.136   6.087   3.725
   14CHTO  H106 5711   5.118   6.100   3.619
   14CHTO  H107 5712   5.200   6.001   3.740
   14CHTO   C58 5713   5.351   6.210   3.765
   14CHTO  H115 5714   5.395   6.122   3.817
   14CHTO   O37 5715   5.406   6.330   3.822
   14CHTO   C59 5716   5.393   6.336   3.965
   14CHTO  H116 5717   5.437   6.247   4.011
   14CHTO   C70 5718   5.472   6.458   4.013
   14CHTO   O46 5719   5.613   6.446   3.991
   14CHTO  H103 5720   5.649   6.380   4.047
   14CHTO   O39 5721   5.390   6.205   3.600
   14CHTO   C60 5722   5.524   6.184   3.550
   14CHTO  H117 5723   5.513   6.156   3.445
   14CHTO   C62 5724   5.611   6.313   3.551
   14CHTO  H119 5725   5.549   6.392   3.503
   14CHTO   O43 5726   5.641   6.355   3.686
   14CHTO  H101 5727   5.688   6.436   3.684
   14CHTO   C66 5728   5.743   6.287   3.464
   14CHTO  H123 5729   5.713   6.251   3.365
   14CHTO   N12 5730   5.821   6.412   3.438
   14CHTO  H110 5731   5.760   6.482   3.384
   14CHTO  H111 5732   5.855   6.454   3.532
   14CHTO   C69 5733   5.828   6.176   3.530
   14CHTO  H126 5734   5.868   6.210   3.628
   14CHTO   O41 5735   5.740   6.048   3.550
   14CHTO   C64 5736   5.601   6.066   3.618
   14CHTO  H121 5737   5.614   6.087   3.727
   14CHTO   C71 5738   5.530   5.930   3.600
   14CHTO   O47 5739   5.420   5.911   3.689
   14CHTO  H104 5740   5.382   5.826   3.675
   14CHTO   O34 5741   5.951   6.138   3.437
   14CHTO   C49 5742   6.038   6.022   3.387
   14CHTO   H91 5743   6.114   6.003   3.464
   14CHTO   C47 5744   6.106   6.066   3.256
   14CHTO   H89 5745   6.174   5.981   3.229
   14CHTO   O33 5746   6.186   6.183   3.276
   14CHTO   H70 5747   6.237   6.202   3.199
   14CHTO   C45 5748   5.995   6.091   3.140
   14CHTO   H87 5749   5.968   6.197   3.142
   14CHTO    N8 5750   6.058   6.062   3.008
   14CHTO   H75 5751   6.080   5.956   3.001
   14CHTO   H76 5752   5.990   6.090   2.929
   14CHTO   C43 5753   5.859   6.012   3.173
   14CHTO   H85 5754   5.806   6.076   3.244
   14CHTO   O29 5755   5.889   5.884   3.231
   14CHTO   C50 5756   5.958   5.890   3.358
   14CHTO   H92 5757   5.884   5.877   3.438
   14CHTO   C54 5758   6.046   5.763   3.369
   14CHTO   O36 5759   6.107   5.751   3.498
   14CHTO   H72 5760   6.172   5.818   3.509
   14CHTO   O27 5761   5.769   6.001   3.062
   14CHTO   C37 5762   5.629   6.033   3.047
   14CHTO   H79 5763   5.592   5.991   2.952
   14CHTO   C38 5764   5.543   5.970   3.162
   14CHTO   H80 5765   5.586   6.001   3.258
   14CHTO   O31 5766   5.555   5.827   3.151
   14CHTO   H68 5767   5.512   5.786   3.223
   14CHTO   C39 5768   5.393   6.019   3.154
   14CHTO   H81 5769   5.351   5.982   3.060
   14CHTO    N7 5770   5.307   5.967   3.265
   14CHTO   H73 5771   5.304   5.859   3.262
   14CHTO   H74 5772   5.346   6.000   3.361
   14CHTO   C40 5773   5.392   6.177   3.148
   14CHTO   H82 5774   5.433   6.215   3.241
   14CHTO   O26 5775   5.468   6.220   3.034
   14CHTO   C41 5776   5.610   6.187   3.044
   14CHTO   H83 5777   5.651   6.230   3.137
   14CHTO   C52 5778   5.683   6.252   2.925
   14CHTO   O35 5779   5.675   6.402   2.928
   14CHTO   H71 5780   5.586   6.429   2.916
   14CHTO   O28 5781   5.261   6.235   3.127
   14CHTO   C42 5782   5.234   6.368   3.182
   14CHTO   H84 5783   5.140   6.396   3.134
   14CHTO   C44 5784   5.337   6.480   3.145
   14CHTO   H86 5785   5.436   6.448   3.176
   14CHTO   O32 5786   5.336   6.491   3.001
   14CHTO   H69 5787   5.402   6.553   2.973
   14CHTO   C48 5788   5.306   6.618   3.216
   14CHTO   H90 5789   5.212   6.657   3.177
   14CHTO    N9 5790   5.411   6.723   3.186
   14CHTO   H77 5791   5.487   6.684   3.120
   14CHTO   H78 5792   5.364   6.811   3.144
   14CHTO   C51 5793   5.290   6.593   3.370
   14CHTO   H93 5794   5.384   6.552   3.408
   14CHTO   O30 5795   5.180   6.502   3.389
   14CHTO   C46 5796   5.208   6.364   3.336
   14CHTO   H88 5797   5.296   6.325   3.386
   14CHTO   C53 5798   5.086   6.275   3.371
   14CHTO   O72 5799   4.963   6.326   3.318
   14CHTO  H199 5800   4.939   6.405   3.362
   14CHTO   O22 5801   5.250   6.710   3.444
   14CHTO   C31 5802   5.308   6.737   3.578
   14CHTO   H59 5803   5.375   6.652   3.601
   14CHTO   C29 5804   5.394   6.865   3.582
   14CHTO   H57 5805   5.330   6.949   3.549
   14CHTO   O21 5806   5.499   6.852   3.484
   14CHTO   H37 5807   5.545   6.934   3.475
   14CHTO   C27 5808   5.450   6.897   3.727
   14CHTO   H55 5809   5.524   6.819   3.753
   14CHTO    N5 5810   5.516   7.029   3.734
   14CHTO   H43 5811   5.444   7.108   3.715
   14CHTO   H44 5812   5.562   7.043   3.831
   14CHTO   C25 5813   5.335   6.884   3.833
   14CHTO   H53 5814   5.262   6.966   3.817
   14CHTO   O17 5815   5.265   6.757   3.818
   14CHTO   C32 5816   5.201   6.741   3.691
   14CHTO   H60 5817   5.133   6.825   3.673
   14CHTO   C36 5818   5.117   6.611   3.696
   14CHTO   O25 5819   5.011   6.622   3.792
   14CHTO   H40 5820   4.961   6.542   3.793
   14CHTO   O15 5821   5.391   6.892   3.980
   14CHTO   C19 5822   5.361   6.849   4.115
   14CHTO   H47 5823   5.334   6.743   4.103
   14CHTO   C20 5824   5.483   6.859   4.213
   14CHTO   H48 5825   5.520   6.962   4.221
   14CHTO   O19 5826   5.588   6.778   4.157
   14CHTO   H35 5827   5.563   6.688   4.154
   14CHTO   C21 5828   5.444   6.810   4.358
   14CHTO   H49 5829   5.418   6.704   4.353
   14CHTO    N4 5830   5.555   6.822   4.457
   14CHTO   H41 5831   5.644   6.863   4.411
   14CHTO   H42 5832   5.579   6.725   4.499
   14CHTO   C22 5833   5.317   6.886   4.404
   14CHTO   H50 5834   5.341   6.992   4.415
   14CHTO   O14 5835   5.211   6.868   4.309
   14CHTO   C23 5836   5.237   6.919   4.178
   14CHTO   H51 5837   5.251   7.028   4.186
   14CHTO   C34 5838   5.110   6.894   4.095
   14CHTO   O23 5839   4.998   6.967   4.145
   14CHTO   H38 5840   4.922   6.947   4.094
   14CHTO   O16 5841   5.262   6.833   4.527
   14CHTO   C24 5842   5.196   6.941   4.624
   14CHTO   H52 5843   5.185   7.038   4.575
   14CHTO   C26 5844   5.286   6.955   4.748
   14CHTO   H54 5845   5.312   6.852   4.784
   14CHTO   O20 5846   5.409   7.019   4.708
   14CHTO   H36 5847   5.458   6.963   4.651
   14CHTO   C30 5848   5.217   7.031   4.865
   14CHTO   H58 5849   5.207   7.138   4.839
   14CHTO    N6 5850   5.298   7.028   4.990
   14CHTO   H45 5851   5.315   6.925   5.021
   14CHTO   H46 5852   5.394   7.075   4.973
   14CHTO   C33 5853   5.072   6.977   4.888
   14CHTO   H61 5854   5.077   6.873   4.922
   14CHTO   O18 5855   5.001   6.982   4.763
   14CHTO   C28 5856   5.053   6.893   4.662
   14CHTO   H56 5857   5.058   6.791   4.699
   14CHTO   C35 5858   4.955   6.901   4.542
   14CHTO   O24 5859   4.973   6.796   4.447
   14CHTO   H39 5860   4.949   6.713   4.485
   14CHTO    O9 5861   5.002   7.049   4.991
   14CHTO   C13 5862   4.861   6.981   5.033
   14CHTO   H26 5863   4.862   6.875   4.999
   14CHTO   C11 5864   4.743   7.064   4.967
   14CHTO   H24 5865   4.743   7.042   4.859
   14CHTO    O8 5866   4.764   7.205   4.986
   14CHTO    H3 5867   4.840   7.233   4.938
   14CHTO    C9 5868   4.609   7.014   5.029
   14CHTO   H22 5869   4.607   6.905   5.011
   14CHTO    N2 5870   4.489   7.063   4.956
   14CHTO   H10 5871   4.480   7.170   4.968
   14CHTO   H11 5872   4.495   7.037   4.852
   14CHTO    C7 5873   4.608   7.038   5.186
   14CHTO   H20 5874   4.569   6.943   5.225
   14CHTO    O4 5875   4.740   7.061   5.239
   14CHTO   C14 5876   4.844   6.974   5.192
   14CHTO   H27 5877   4.817   6.870   5.220
   14CHTO   C18 5878   4.974   7.008   5.269
   14CHTO   O13 5879   4.959   6.987   5.410
   14CHTO    H7 5880   4.951   6.895   5.429
   14CHTO    O2 5881   4.509   7.162   5.241
   14CHTO    C1 5882   4.476   7.145   5.380
   14CHTO   H14 5883   4.533   7.060   5.421
   14CHTO    C2 5884   4.323   7.119   5.406
   14CHTO   H15 5885   4.268   7.207   5.368
   14CHTO    O6 5886   4.283   7.003   5.333
   14CHTO    H1 5887   4.329   6.927   5.363
   14CHTO    C3 5888   4.297   7.101   5.564
   14CHTO   H16 5889   4.344   7.007   5.595
   14CHTO    N1 5890   4.151   7.089   5.597
   14CHTO    H8 5891   4.098   7.179   5.569
   14CHTO    H9 5892   4.138   7.071   5.703
   14CHTO    C4 5893   4.368   7.215   5.648
   14CHTO   H17 5894   4.307   7.306   5.644
   14CHTO    O1 5895   4.502   7.243   5.603
   14CHTO    C5 5896   4.519   7.270   5.463
   14CHTO   H18 5897   4.456   7.354   5.433
   14CHTO   C16 5898   4.667   7.307   5.438
   14CHTO   O11 5899   4.705   7.426   5.507
   14CHTO    H5 5900   4.662   7.500   5.468
   14CHTO    O3 5901   4.385   7.170   5.784
   14CHTO    C6 5902   4.384   7.273   5.888
   14CHTO   H19 5903   4.392   7.374   5.847
   14CHTO    C8 5904   4.253   7.262   5.972
   14CHTO   H21 5905   4.243   7.159   6.007
   14CHTO    O7 5906   4.143   7.292   5.884
   14CHTO    H2 5907   4.133   7.225   5.820
   14CHTO   C12 5908   4.257   7.359   6.097
   14CHTO   H25 5909   4.252   7.463   6.055
   14CHTO    N3 5910   4.135   7.341   6.183
   14CHTO   H12 5911   4.162   7.309   6.283
   14CHTO   H13 5912   4.079   7.434   6.188
   14CHTO   C15 5913   4.392   7.342   6.175
   14CHTO   H28 5914   4.395   7.248   6.229
   14CHTO   O10 5915   4.418   7.459   6.273
   14CHTO    H4 5916   4.493   7.440   6.326
   14CHTO    O5 5917   4.505   7.352   6.087
   14CHTO   C10 5918   4.507   7.253   5.982
   14CHTO   H23 5919   4.503   7.154   6.027
   14CHTO   C17 5920   4.640   7.266   5.907
   14CHTO   O12 5921   4.751   7.238   5.993
   14CHTO    H6 5922   4.752   7.147   6.016
   15CHTO  H203 5923   5.427   5.831   4.753
   15CHTO   O82 5924   5.423   5.785   4.671
   15CHTO  C123 5925   5.335   5.672   4.682
   15CHTO  H227 5926   5.235   5.707   4.712
   15CHTO   O77 5927   5.331   5.620   4.546
   15CHTO  C118 5928   5.251   5.502   4.529
   15CHTO  H222 5929   5.150   5.520   4.570
   15CHTO  C125 5930   5.239   5.471   4.376
   15CHTO   O84 5931   5.172   5.577   4.307
   15CHTO  H205 5932   5.170   5.559   4.215
   15CHTO  C114 5933   5.318   5.387   4.607
   15CHTO  H218 5934   5.421   5.378   4.574
   15CHTO  C116 5935   5.320   5.425   4.759
   15CHTO  H220 5936   5.215   5.428   4.797
   15CHTO   O79 5937   5.385   5.320   4.833
   15CHTO  H201 5938   5.474   5.311   4.807
   15CHTO  C120 5939   5.391   5.564   4.783
   15CHTO  H224 5940   5.499   5.547   4.762
   15CHTO   N21 5941   5.381   5.609   4.924
   15CHTO  H211 5942   5.291   5.667   4.940
   15CHTO  H212 5943   5.468   5.667   4.951
   15CHTO   O75 5944   5.244   5.267   4.577
   15CHTO  C112 5945   5.341   5.127   4.583
   15CHTO  H216 5946   5.432   5.150   4.641
   15CHTO   O73 5947   5.372   5.089   4.448
   15CHTO  C113 5948   5.462   4.977   4.436
   15CHTO  H217 5949   5.561   5.007   4.478
   15CHTO  C124 5950   5.482   4.946   4.287
   15CHTO   O83 5951   5.547   5.051   4.215
   15CHTO  H204 5952   5.636   5.058   4.242
   15CHTO  C109 5953   5.410   4.851   4.510
   15CHTO  H213 5954   5.324   4.813   4.452
   15CHTO  C110 5955   5.364   4.886   4.655
   15CHTO  H214 5956   5.451   4.911   4.715
   15CHTO   O78 5957   5.304   4.769   4.715
   15CHTO  H200 5958   5.227   4.743   4.668
   15CHTO  C111 5959   5.266   5.007   4.652
   15CHTO  H215 5960   5.180   4.980   4.589
   15CHTO   N19 5961   5.213   5.046   4.784
   15CHTO  H207 5962   5.105   5.038   4.785
   15CHTO  H208 5963   5.254   4.985   4.863
   15CHTO   O74 5964   5.514   4.748   4.511
   15CHTO  C115 5965   5.455   4.599   4.499
   15CHTO  H219 5966   5.364   4.587   4.558
   15CHTO   O76 5967   5.411   4.566   4.350
   15CHTO  C122 5968   5.522   4.525   4.269
   15CHTO  H226 5969   5.596   4.605   4.271
   15CHTO  C126 5970   5.477   4.513   4.119
   15CHTO   O85 5971   5.437   4.639   4.065
   15CHTO  H206 5972   5.410   4.628   3.976
   15CHTO  C121 5973   5.586   4.390   4.321
   15CHTO  H225 5974   5.545   4.305   4.262
   15CHTO   O81 5975   5.728   4.395   4.301
   15CHTO  H202 5976   5.747   4.398   4.209
   15CHTO  C119 5977   5.556   4.364   4.473
   15CHTO  H223 5978   5.452   4.332   4.477
   15CHTO  C117 5979   5.566   4.499   4.553
   15CHTO  H221 5980   5.660   4.552   4.544
   15CHTO   N20 5981   5.549   4.477   4.701
   15CHTO  H209 5982   5.560   4.571   4.754
   15CHTO  H210 5983   5.452   4.434   4.721
   15CHTO   O80 5984   5.635   4.232   4.534
   15CHTO  C103 5985   5.557   4.091   4.553
   15CHTO  H190 5986   5.623   4.019   4.601
   15CHTO  C101 5987   5.423   4.094   4.637
   15CHTO  H188 5988   5.359   4.174   4.600
   15CHTO   O68 5989   5.459   4.125   4.786
   15CHTO  H168 5990   5.380   4.136   4.836
   15CHTO   C99 5991   5.344   3.955   4.621
   15CHTO  H186 5992   5.407   3.872   4.659
   15CHTO   N17 5993   5.214   3.948   4.696
   15CHTO  H174 5994   5.232   3.963   4.802
   15CHTO  H175 5995   5.145   4.021   4.658
   15CHTO   C97 5996   5.325   3.928   4.470
   15CHTO  H184 5997   5.267   4.012   4.427
   15CHTO   O64 5998   5.454   3.915   4.409
   15CHTO  C104 5999   5.529   4.038   4.407
   15CHTO  H191 6000   5.474   4.114   4.351
   15CHTO  C108 6001   5.660   4.015   4.331
   15CHTO   O71 6002   5.740   3.911   4.390
   15CHTO  H171 6003   5.818   3.900   4.340
   15CHTO   O62 6004   5.263   3.801   4.438
   15CHTO   C91 6005   5.139   3.807   4.363
   15CHTO  H178 6006   5.098   3.908   4.371
   15CHTO   C92 6007   5.035   3.712   4.433
   15CHTO  H179 6008   5.054   3.708   4.542
   15CHTO   O66 6009   4.904   3.769   4.419
   15CHTO  H166 6010   4.897   3.848   4.469
   15CHTO   C93 6011   5.029   3.567   4.372
   15CHTO  H180 6012   4.941   3.518   4.418
   15CHTO   N16 6013   5.143   3.480   4.410
   15CHTO  H172 6014   5.235   3.523   4.374
   15CHTO  H173 6015   5.129   3.381   4.369
   15CHTO   C94 6016   5.006   3.576   4.216
   15CHTO  H181 6017   5.065   3.502   4.161
   15CHTO   O61 6018   5.037   3.704   4.158
   15CHTO   C95 6019   5.155   3.769   4.209
   15CHTO  H182 6020   5.240   3.703   4.196
   15CHTO  C106 6021   5.181   3.894   4.118
   15CHTO   O69 6022   5.305   3.957   4.150
   15CHTO  H169 6023   5.317   4.033   4.095
   15CHTO   O63 6024   4.855   3.550   4.191
   15CHTO   C96 6025   4.822   3.500   4.047
   15CHTO  H183 6026   4.915   3.472   3.996
   15CHTO   C98 6027   4.748   3.603   3.957
   15CHTO  H185 6028   4.661   3.643   4.012
   15CHTO   O67 6029   4.836   3.716   3.937
   15CHTO  H167 6030   4.850   3.761   4.018
   15CHTO  C102 6031   4.702   3.541   3.816
   15CHTO  H189 6032   4.795   3.531   3.757
   15CHTO   N18 6033   4.614   3.630   3.735
   15CHTO  H176 6034   4.590   3.582   3.641
   15CHTO  H177 6035   4.663   3.724   3.717
   15CHTO  C105 6036   4.640   3.400   3.836
   15CHTO  H192 6037   4.539   3.410   3.875
   15CHTO   O65 6038   4.715   3.316   3.926
   15CHTO  C100 6039   4.733   3.371   4.057
   15CHTO  H187 6040   4.635   3.399   4.098
   15CHTO  C107 6041   4.796   3.265   4.150
   15CHTO   O70 6042   4.704   3.159   4.176
   15CHTO  H170 6043   4.742   3.099   4.237
   15CHTO   O57 6044   4.637   3.328   3.688
   15CHTO   C85 6045   4.555   3.211   3.671
   15CHTO  H157 6046   4.499   3.197   3.766
   15CHTO   C83 6047   4.644   3.084   3.656
   15CHTO  H155 6048   4.704   3.074   3.747
   15CHTO   O56 6049   4.737   3.102   3.548
   15CHTO  H135 6050   4.692   3.108   3.466
   15CHTO   C81 6051   4.552   2.959   3.642
   15CHTO  H153 6052   4.486   2.955   3.729
   15CHTO   N14 6053   4.627   2.831   3.647
   15CHTO  H141 6054   4.559   2.749   3.645
   15CHTO  H142 6055   4.685   2.826   3.737
   15CHTO   C79 6056   4.463   2.974   3.513
   15CHTO  H151 6057   4.392   2.890   3.513
   15CHTO   O52 6058   4.382   3.096   3.520
   15CHTO   C86 6059   4.458   3.219   3.547
   15CHTO  H158 6060   4.514   3.238   3.453
   15CHTO   C90 6061   4.360   3.338   3.563
   15CHTO   O60 6062   4.290   3.365   3.442
   15CHTO  H138 6063   4.348   3.403   3.378
   15CHTO   O50 6064   4.536   2.970   3.389
   15CHTO   C73 6065   4.492   2.936   3.256
   15CHTO  H145 6066   4.397   2.986   3.234
   15CHTO   C74 6067   4.473   2.782   3.241
   15CHTO  H146 6068   4.400   2.751   3.318
   15CHTO   O54 6069   4.409   2.756   3.115
   15CHTO  H133 6070   4.465   2.781   3.044
   15CHTO   C75 6071   4.612   2.709   3.259
   15CHTO  H147 6072   4.649   2.730   3.360
   15CHTO   N13 6073   4.605   2.561   3.250
   15CHTO  H139 6074   4.566   2.532   3.153
   15CHTO  H140 6075   4.539   2.522   3.326
   15CHTO   C76 6076   4.718   2.771   3.156
   15CHTO  H148 6077   4.685   2.745   3.055
   15CHTO   O49 6078   4.724   2.917   3.170
   15CHTO   C77 6079   4.598   2.984   3.152
   15CHTO  H149 6080   4.560   2.965   3.052
   15CHTO   C88 6081   4.621   3.136   3.160
   15CHTO   O58 6082   4.710   3.183   3.051
   15CHTO  H136 6083   4.718   3.276   3.056
   15CHTO   O51 6084   4.868   2.719   3.188
   15CHTO   C78 6085   4.965   2.742   3.065
   15CHTO  H150 6086   4.915   2.803   2.986
   15CHTO   C80 6087   5.007   2.607   3.004
   15CHTO  H152 6088   5.057   2.546   3.083
   15CHTO   O55 6089   4.886   2.539   2.966
   15CHTO  H134 6090   4.906   2.452   2.935
   15CHTO   C84 6091   5.106   2.628   2.882
   15CHTO  H156 6092   5.051   2.682   2.804
   15CHTO   N15 6093   5.152   2.499   2.821
   15CHTO  H143 6094   5.206   2.441   2.893
   15CHTO  H144 6095   5.215   2.518   2.737
   15CHTO   C87 6096   5.225   2.715   2.928
   15CHTO  H159 6097   5.286   2.660   2.999
   15CHTO   O53 6098   5.171   2.845   2.994
   15CHTO   C82 6099   5.091   2.819   3.109
   15CHTO  H154 6100   5.148   2.762   3.183
   15CHTO   C89 6101   5.058   2.955   3.174
   15CHTO   O59 6102   5.000   2.942   3.304
   15CHTO  H137 6103   4.980   3.027   3.338
   15CHTO   O45 6104   5.318   2.758   2.802
   15CHTO   C67 6105   5.440   2.824   2.839
   15CHTO  H124 6106   5.422   2.885   2.928
   15CHTO   C65 6107   5.553   2.719   2.872
   15CHTO  H122 6108   5.524   2.626   2.822
   15CHTO   O44 6109   5.550   2.698   3.015
   15CHTO  H102 6110   5.468   2.659   3.040
   15CHTO   C63 6111   5.692   2.757   2.809
   15CHTO  H120 6112   5.687   2.739   2.701
   15CHTO   N11 6113   5.808   2.669   2.848
   15CHTO  H108 6114   5.782   2.566   2.832
   15CHTO  H109 6115   5.894   2.694   2.789
   15CHTO   C61 6116   5.717   2.911   2.826
   15CHTO  H118 6117   5.812   2.934   2.774
   15CHTO   O40 6118   5.614   2.989   2.760
   15CHTO   C68 6119   5.486   2.926   2.727
   15CHTO  H125 6120   5.495   2.875   2.629
   15CHTO   C72 6121   5.384   3.042   2.709
   15CHTO   O48 6122   5.256   2.999   2.664
   15CHTO  H105 6123   5.261   2.968   2.575
   15CHTO   O38 6124   5.729   2.948   2.966
   15CHTO   C55 6125   5.725   3.088   3.003
   15CHTO  H112 6126   5.654   3.142   2.938
   15CHTO   C56 6127   5.870   3.154   2.999
   15CHTO  H113 6128   5.937   3.090   3.058
   15CHTO   O42 6129   5.921   3.151   2.864
   15CHTO  H100 6130   5.866   3.201   2.807
   15CHTO   C57 6131   5.867   3.301   3.057
   15CHTO  H114 6132   5.810   3.363   2.987
   15CHTO   N10 6133   6.002   3.361   3.070
   15CHTO  H106 6134   6.006   3.434   3.150
   15CHTO  H107 6135   6.030   3.410   2.978
   15CHTO   C58 6136   5.792   3.302   3.194
   15CHTO  H115 6137   5.853   3.245   3.268
   15CHTO   O37 6138   5.662   3.241   3.182
   15CHTO   C59 6139   5.667   3.102   3.146
   15CHTO  H116 6140   5.727   3.046   3.219
   15CHTO   C70 6141   5.525   3.044   3.150
   15CHTO   O46 6142   5.460   3.057   3.277
   15CHTO  H103 6143   5.445   3.148   3.296
   15CHTO   O39 6144   5.767   3.456   3.247
   15CHTO   C60 6145   5.749   3.464   3.389
   15CHTO  H117 6146   5.691   3.378   3.424
   15CHTO   C62 6147   5.886   3.464   3.464
   15CHTO  H119 6148   5.937   3.369   3.436
   15CHTO   O43 6149   5.967   3.574   3.419
   15CHTO  H101 6150   5.993   3.561   3.329
   15CHTO   C66 6151   5.861   3.465   3.622
   15CHTO  H123 6152   5.800   3.378   3.648
   15CHTO   N12 6153   5.986   3.449   3.702
   15CHTO  H110 6154   6.006   3.536   3.763
   15CHTO  H111 6155   6.070   3.427   3.637
   15CHTO   C69 6156   5.780   3.591   3.663
   15CHTO  H126 6157   5.841   3.683   3.647
   15CHTO   O41 6158   5.647   3.601   3.578
   15CHTO   C64 6159   5.668   3.592   3.427
   15CHTO  H121 6160   5.725   3.681   3.392
   15CHTO   C71 6161   5.530   3.595   3.357
   15CHTO   O47 6162   5.444   3.491   3.404
   15CHTO  H104 6163   5.362   3.494   3.359
   15CHTO   O34 6164   5.739   3.583   3.812
   15CHTO   C49 6165   5.706   3.677   3.923
   15CHTO   H91 6166   5.798   3.731   3.946
   15CHTO   C47 6167   5.661   3.593   4.044
   15CHTO   H89 6168   5.649   3.669   4.126
   15CHTO   O33 6169   5.765   3.502   4.084
   15CHTO   H70 6170   5.780   3.438   4.017
   15CHTO   C45 6171   5.523   3.515   4.014
   15CHTO   H87 6172   5.547   3.416   3.973
   15CHTO    N8 6173   5.451   3.496   4.143
   15CHTO   H75 6174   5.444   3.391   4.166
   15CHTO   H76 6175   5.352   3.540   4.138
   15CHTO   C43 6176   5.440   3.590   3.896
   15CHTO   H85 6177   5.484   3.552   3.803
   15CHTO   O29 6178   5.456   3.732   3.908
   15CHTO   C50 6179   5.591   3.778   3.887
   15CHTO   H92 6180   5.602   3.806   3.781
   15CHTO   C54 6181   5.605   3.912   3.963
   15CHTO   O36 6182   5.731   3.976   3.937
   15CHTO   H72 6183   5.735   4.056   3.986
   15CHTO   O27 6184   5.301   3.553   3.890
   15CHTO   C37 6185   5.237   3.475   3.787
   15CHTO   H79 6186   5.310   3.446   3.709
   15CHTO   C38 6187   5.178   3.343   3.845
   15CHTO   H80 6188   5.107   3.369   3.925
   15CHTO   O31 6189   5.286   3.267   3.902
   15CHTO   H68 6190   5.319   3.310   3.978
   15CHTO   C39 6191   5.103   3.261   3.733
   15CHTO   H81 6192   5.178   3.225   3.663
   15CHTO    N7 6193   5.032   3.139   3.788
   15CHTO   H73 6194   5.068   3.050   3.739
   15CHTO   H74 6195   4.925   3.147   3.776
   15CHTO   C40 6196   5.004   3.354   3.651
   15CHTO   H82 6197   4.917   3.374   3.714
   15CHTO   O26 6198   5.069   3.475   3.610
   15CHTO   C41 6199   5.122   3.555   3.720
   15CHTO   H83 6200   5.042   3.575   3.793
   15CHTO   C52 6201   5.167   3.690   3.660
   15CHTO   O35 6202   5.192   3.790   3.762
   15CHTO   H71 6203   5.216   3.871   3.721
   15CHTO   O28 6204   4.952   3.286   3.535
   15CHTO   C42 6205   4.979   3.311   3.393
   15CHTO   H84 6206   4.932   3.227   3.343
   15CHTO   C44 6207   5.128   3.310   3.346
   15CHTO   H86 6208   5.180   3.395   3.392
   15CHTO   O32 6209   5.188   3.189   3.396
   15CHTO   H69 6210   5.150   3.114   3.356
   15CHTO   C48 6211   5.140   3.324   3.189
   15CHTO   H90 6212   5.097   3.234   3.144
   15CHTO    N9 6213   5.282   3.329   3.142
   15CHTO   H77 6214   5.333   3.412   3.187
   15CHTO   H78 6215   5.332   3.236   3.166
   15CHTO   C51 6216   5.056   3.447   3.135
   15CHTO   H93 6217   5.105   3.539   3.168
   15CHTO   O30 6218   4.922   3.437   3.186
   15CHTO   C46 6219   4.912   3.440   3.337
   15CHTO   H88 6220   4.965   3.528   3.375
   15CHTO   C53 6221   4.762   3.449   3.376
   15CHTO   O72 6222   4.704   3.572   3.332
   15CHTO  H199 6223   4.700   3.574   3.238
   15CHTO   O22 6224   5.044   3.444   2.991
   15CHTO   C31 6225   4.997   3.558   2.909
   15CHTO   H59 6226   4.989   3.518   2.805
   15CHTO   C29 6227   4.856   3.611   2.947
   15CHTO   H57 6228   4.860   3.638   3.054
   15CHTO   O21 6229   4.763   3.502   2.935
   15CHTO   H37 6230   4.752   3.477   2.846
   15CHTO   C27 6231   4.813   3.739   2.864
   15CHTO   H55 6232   4.801   3.709   2.759
   15CHTO    N5 6233   4.685   3.798   2.911
   15CHTO   H43 6234   4.696   3.833   3.013
   15CHTO   H44 6235   4.656   3.879   2.847
   15CHTO   C25 6236   4.930   3.843   2.869
   15CHTO   H53 6237   4.946   3.874   2.974
   15CHTO   O17 6238   5.051   3.780   2.819
   15CHTO   C32 6239   5.101   3.674   2.901
   15CHTO   H60 6240   5.121   3.711   3.002
   15CHTO   C36 6241   5.234   3.633   2.835
   15CHTO   O25 6242   5.320   3.563   2.925
   15CHTO   H40 6243   5.402   3.545   2.883
   15CHTO   O15 6244   4.904   3.973   2.780
   15CHTO   C19 6245   4.946   4.108   2.816
   15CHTO   H47 6246   4.936   4.164   2.722
   15CHTO   C20 6247   4.855   4.175   2.925
   15CHTO   H48 6248   4.850   4.114   3.017
   15CHTO   O19 6249   4.722   4.180   2.869
   15CHTO   H35 6250   4.719   4.237   2.795
   15CHTO   C21 6251   4.908   4.319   2.964
   15CHTO   H49 6252   4.902   4.383   2.876
   15CHTO    N4 6253   4.826   4.384   3.070
   15CHTO   H41 6254   4.865   4.483   3.091
   15CHTO   H42 6255   4.830   4.325   3.161
   15CHTO   C22 6256   5.058   4.306   3.002
   15CHTO   H50 6257   5.065   4.239   3.088
   15CHTO   O14 6258   5.132   4.252   2.891
   15CHTO   C23 6259   5.097   4.117   2.857
   15CHTO   H51 6260   5.120   4.054   2.944
   15CHTO   C34 6261   5.187   4.072   2.742
   15CHTO   O23 6262   5.325   4.065   2.782
   15CHTO   H38 6263   5.377   4.038   2.710
   15CHTO   O16 6264   5.120   4.433   3.031
   15CHTO   C24 6265   5.249   4.416   3.125
   15CHTO   H52 6266   5.284   4.313   3.128
   15CHTO   C26 6267   5.215   4.461   3.269
   15CHTO   H54 6268   5.175   4.566   3.264
   15CHTO   O20 6269   5.109   4.378   3.320
   15CHTO   H36 6270   5.138   4.289   3.327
   15CHTO   C30 6271   5.340   4.460   3.361
   15CHTO   H58 6272   5.367   4.356   3.385
   15CHTO    N6 6273   5.313   4.523   3.493
   15CHTO   H45 6274   5.283   4.626   3.480
   15CHTO   H46 6275   5.234   4.470   3.545
   15CHTO   C33 6276   5.466   4.522   3.292
   15CHTO   H61 6277   5.455   4.631   3.289
   15CHTO   O18 6278   5.479   4.474   3.156
   15CHTO   C28 6279   5.366   4.502   3.072
   15CHTO   H56 6280   5.338   4.608   3.079
   15CHTO   C35 6281   5.400   4.472   2.925
   15CHTO   O24 6282   5.429   4.334   2.899
   15CHTO   H39 6283   5.352   4.282   2.911
   15CHTO    O9 6284   5.585   4.497   3.368
   15CHTO   C13 6285   5.717   4.572   3.307
   15CHTO   H26 6286   5.683   4.660   3.249
   15CHTO   C11 6287   5.796   4.469   3.217
   15CHTO   H24 6288   5.741   4.459   3.121
   15CHTO    O8 6289   5.801   4.340   3.280
   15CHTO    H3 6290   5.841   4.277   3.223
   15CHTO    C9 6291   5.938   4.527   3.189
   15CHTO   H22 6292   5.921   4.629   3.153
   15CHTO    N2 6293   6.008   4.458   3.078
   15CHTO   H10 6294   5.947   4.460   2.989
   15CHTO   H11 6295   6.031   4.356   3.106
   15CHTO    C7 6296   6.017   4.534   3.326
   15CHTO   H20 6297   6.085   4.621   3.312
   15CHTO    O4 6298   5.933   4.558   3.441
   15CHTO   C14 6299   5.810   4.631   3.423
   15CHTO   H27 6300   5.837   4.736   3.395
   15CHTO   C18 6301   5.737   4.638   3.559
   15CHTO   O13 6302   5.810   4.715   3.655
   15CHTO    H7 6303   5.889   4.671   3.679
   15CHTO    O2 6304   6.105   4.400   3.358
   15CHTO    C1 6305   6.240   4.424   3.402
   15CHTO   H14 6306   6.253   4.532   3.426
   15CHTO    C2 6307   6.346   4.384   3.291
   15CHTO   H15 6308   6.318   4.284   3.257
   15CHTO    O6 6309   6.335   4.477   3.182
   15CHTO    H1 6310   6.390   4.451   3.111
   15CHTO    C3 6311   6.495   4.382   3.351
   15CHTO   H16 6312   6.526   4.485   3.377
   15CHTO    N1 6313   6.595   4.330   3.251
   15CHTO    H8 6314   6.694   4.331   3.294
   15CHTO    H9 6315   6.594   4.392   3.162
   15CHTO    C4 6316   6.495   4.301   3.485
   15CHTO   H17 6317   6.468   4.198   3.464
   15CHTO    O1 6318   6.401   4.359   3.577
   15CHTO    C5 6319   6.264   4.346   3.534
   15CHTO   H18 6320   6.240   4.241   3.517
   15CHTO   C16 6321   6.173   4.400   3.647
   15CHTO   O11 6322   6.191   4.330   3.770
   15CHTO    H5 6323   6.159   4.242   3.762
   15CHTO    O3 6324   6.624   4.306   3.551
   15CHTO    C6 6325   6.643   4.209   3.659
   15CHTO   H19 6326   6.549   4.177   3.704
   15CHTO    C8 6327   6.717   4.081   3.607
   15CHTO   H21 6328   6.808   4.112   3.556
   15CHTO    O7 6329   6.630   4.014   3.513
   15CHTO    H2 6330   6.620   4.066   3.435
   15CHTO   C12 6331   6.755   3.987   3.728
   15CHTO   H25 6332   6.659   3.950   3.771
   15CHTO    N3 6333   6.832   3.866   3.682
   15CHTO   H12 6334   6.856   3.803   3.767
   15CHTO   H13 6335   6.774   3.811   3.610
   15CHTO   C15 6336   6.830   4.070   3.838
   15CHTO   H28 6337   6.929   4.101   3.805
   15CHTO   O10 6338   6.843   3.994   3.971
   15CHTO    H4 6339   6.900   4.041   4.030
   15CHTO    O5 6340   6.753   4.185   3.878
   15CHTO   C10 6341   6.727   4.277   3.771
   15CHTO   H23 6342   6.822   4.311   3.730
   15CHTO   C17 6343   6.657   4.401   3.829
   15CHTO   O12 6344   6.531   4.369   3.889
   15CHTO    H6 6345   6.491   4.448   3.922
   16CHTO  H203 6346   4.682   4.079   3.152
   16CHTO   O82 6347   4.647   4.021   3.217
   16CHTO  C123 6348   4.740   4.006   3.327
   16CHTO  H227 6349   4.693   3.942   3.403
   16CHTO   O77 6350   4.853   3.937   3.266
   16CHTO  C118 6351   4.958   3.904   3.358
   16CHTO  H222 6352   4.917   3.843   3.440
   16CHTO  C125 6353   5.066   3.820   3.281
   16CHTO   O84 6354   5.126   3.894   3.174
   16CHTO  H205 6355   5.062   3.909   3.106
   16CHTO  C114 6356   5.017   4.034   3.417
   16CHTO  H218 6357   5.056   4.095   3.335
   16CHTO  C116 6358   4.907   4.118   3.487
   16CHTO  H220 6359   4.871   4.063   3.578
   16CHTO   O79 6360   4.967   4.240   3.535
   16CHTO  H201 6361   4.905   4.290   3.584
   16CHTO  C120 6362   4.786   4.144   3.388
   16CHTO  H224 6363   4.826   4.210   3.308
   16CHTO   N21 6364   4.676   4.218   3.455
   16CHTO  H211 6365   4.622   4.277   3.383
   16CHTO  H212 6366   4.609   4.149   3.505
   16CHTO   O75 6367   5.123   3.993   3.505
   16CHTO  C112 6368   5.261   4.074   3.480
   16CHTO  H216 6369   5.237   4.179   3.458
   16CHTO   O73 6370   5.327   4.010   3.370
   16CHTO  C113 6371   5.452   4.069   3.332
   16CHTO  H217 6372   5.435   4.175   3.305
   16CHTO  C124 6373   5.501   3.999   3.205
   16CHTO   O83 6374   5.415   4.023   3.092
   16CHTO  H204 6375   5.420   4.113   3.067
   16CHTO  C109 6376   5.553   4.060   3.450
   16CHTO  H213 6377   5.571   3.953   3.469
   16CHTO  C110 6378   5.492   4.128   3.576
   16CHTO  H214 6379   5.483   4.235   3.557
   16CHTO   O78 6380   5.583   4.112   3.685
   16CHTO  H200 6381   5.552   4.158   3.761
   16CHTO  C111 6382   5.352   4.068   3.609
   16CHTO  H215 6383   5.365   3.962   3.636
   16CHTO   N19 6384   5.284   4.134   3.724
   16CHTO  H207 6385   5.190   4.086   3.744
   16CHTO  H208 6386   5.268   4.239   3.703
   16CHTO   O74 6387   5.680   4.124   3.415
   16CHTO  C115 6388   5.803   4.021   3.378
   16CHTO  H219 6389   5.774   3.916   3.390
   16CHTO   O76 6390   5.846   4.035   3.228
   16CHTO  C122 6391   5.957   3.955   3.184
   16CHTO  H226 6392   5.985   3.991   3.085
   16CHTO  C126 6393   5.908   3.806   3.162
   16CHTO   O85 6394   6.011   3.721   3.111
   16CHTO  H206 6395   5.978   3.634   3.102
   16CHTO  C121 6396   6.082   3.966   3.280
   16CHTO  H225 6397   6.154   3.887   3.252
   16CHTO   O81 6398   6.147   4.092   3.259
   16CHTO  H202 6399   6.229   4.094   3.305
   16CHTO  C119 6400   6.042   3.946   3.429
   16CHTO  H223 6401   5.999   3.846   3.435
   16CHTO  C117 6402   5.928   4.047   3.471
   16CHTO  H221 6403   5.950   4.153   3.460
   16CHTO   N20 6404   5.891   4.029   3.616
   16CHTO  H209 6405   5.787   4.005   3.628
   16CHTO  H210 6406   5.916   4.118   3.672
   16CHTO   O80 6407   6.169   3.933   3.526
   16CHTO  C103 6408   6.204   3.793   3.585
   16CHTO  H190 6409   6.112   3.735   3.598
   16CHTO  C101 6410   6.306   3.706   3.503
   16CHTO  H188 6411   6.397   3.764   3.487
   16CHTO   O68 6412   6.246   3.673   3.365
   16CHTO  H168 6413   6.310   3.630   3.311
   16CHTO   C99 6414   6.345   3.573   3.583
   16CHTO  H186 6415   6.255   3.509   3.591
   16CHTO   N17 6416   6.452   3.489   3.519
   16CHTO  H174 6417   6.411   3.394   3.487
   16CHTO  H175 6418   6.497   3.541   3.436
   16CHTO   C97 6419   6.384   3.609   3.729
   16CHTO  H184 6420   6.481   3.662   3.728
   16CHTO   O64 6421   6.280   3.688   3.789
   16CHTO  C104 6422   6.264   3.817   3.729
   16CHTO  H191 6423   6.358   3.871   3.721
   16CHTO  C108 6424   6.175   3.898   3.824
   16CHTO   O71 6425   6.182   4.038   3.796
   16CHTO  H171 6426   6.128   4.085   3.856
   16CHTO   O62 6427   6.389   3.496   3.818
   16CHTO   C91 6428   6.483   3.501   3.927
   16CHTO  H178 6429   6.580   3.475   3.884
   16CHTO   C92 6430   6.448   3.385   4.027
   16CHTO  H179 6431   6.433   3.291   3.971
   16CHTO   O66 6432   6.564   3.361   4.109
   16CHTO  H166 6433   6.550   3.285   4.163
   16CHTO   C93 6434   6.326   3.419   4.121
   16CHTO  H180 6435   6.330   3.347   4.204
   16CHTO   N16 6436   6.195   3.395   4.055
   16CHTO  H172 6437   6.185   3.458   3.968
   16CHTO  H173 6438   6.115   3.413   4.125
   16CHTO   C94 6439   6.336   3.566   4.180
   16CHTO  H181 6440   6.259   3.632   4.139
   16CHTO   O61 6441   6.463   3.627   4.149
   16CHTO   C95 6442   6.495   3.639   4.009
   16CHTO  H182 6443   6.430   3.714   3.966
   16CHTO  C106 6444   6.640   3.698   3.995
   16CHTO   O69 6445   6.741   3.608   4.042
   16CHTO  H169 6446   6.825   3.648   4.031
   16CHTO   O63 6447   6.325   3.564   4.343
   16CHTO   C96 6448   6.197   3.490   4.410
   16CHTO  H183 6449   6.192   3.390   4.368
   16CHTO   C98 6450   6.058   3.557   4.386
   16CHTO  H185 6451   6.042   3.575   4.278
   16CHTO   O67 6452   5.956   3.463   4.424
   16CHTO  H167 6453   5.871   3.496   4.402
   16CHTO  C102 6454   6.038   3.691   4.472
   16CHTO  H189 6455   5.929   3.707   4.477
   16CHTO   N18 6456   6.093   3.813   4.407
   16CHTO  H176 6457   6.199   3.801   4.389
   16CHTO  H177 6458   6.042   3.831   4.313
   16CHTO  C105 6459   6.091   3.673   4.618
   16CHTO  H192 6460   6.181   3.732   4.633
   16CHTO   O65 6461   6.123   3.536   4.649
   16CHTO  C100 6462   6.226   3.478   4.566
   16CHTO  H187 6463   6.320   3.532   4.588
   16CHTO  C107 6464   6.249   3.331   4.609
   16CHTO   O70 6465   6.133   3.249   4.590
   16CHTO  H170 6466   6.065   3.276   4.650
   16CHTO   O57 6467   5.971   3.725   4.719
   16CHTO   C85 6468   5.931   3.863   4.729
   16CHTO  H157 6469   5.913   3.898   4.625
   16CHTO   C83 6470   6.046   3.953   4.786
   16CHTO  H155 6471   6.131   3.946   4.718
   16CHTO   O56 6472   6.091   3.901   4.912
   16CHTO  H135 6473   6.023   3.908   4.977
   16CHTO   C81 6474   5.997   4.101   4.790
   16CHTO  H153 6475   5.970   4.130   4.688
   16CHTO   N14 6476   6.106   4.196   4.826
   16CHTO  H141 6477   6.071   4.297   4.817
   16CHTO  H142 6478   6.136   4.179   4.928
   16CHTO   C79 6479   5.869   4.115   4.881
   16CHTO  H151 6480   5.832   4.217   4.869
   16CHTO   O52 6481   5.764   4.026   4.832
   16CHTO   C86 6482   5.805   3.886   4.821
   16CHTO  H158 6483   5.825   3.854   4.925
   16CHTO   C90 6484   5.686   3.801   4.773
   16CHTO   O60 6485   5.578   3.800   4.868
   16CHTO  H138 6486   5.539   3.885   4.872
   16CHTO   O50 6487   5.890   4.091   5.021
   16CHTO   C73 6488   5.862   4.080   5.161
   16CHTO  H145 6489   5.948   4.034   5.212
   16CHTO   C74 6490   5.737   3.988   5.185
   16CHTO  H146 6491   5.755   3.893   5.131
   16CHTO   O54 6492   5.733   3.953   5.325
   16CHTO  H133 6493   5.718   4.030   5.377
   16CHTO   C75 6494   5.605   4.060   5.135
   16CHTO  H147 6495   5.614   4.079   5.027
   16CHTO   N13 6496   5.481   3.980   5.153
   16CHTO  H139 6497   5.490   3.888   5.098
   16CHTO  H140 6498   5.396   4.035   5.115
   16CHTO   C76 6499   5.596   4.202   5.208
   16CHTO  H148 6500   5.595   4.182   5.315
   16CHTO   O49 6501   5.715   4.280   5.173
   16CHTO   C77 6502   5.836   4.221   5.224
   16CHTO  H149 6503   5.827   4.210   5.333
   16CHTO   C88 6504   5.951   4.319   5.201
   16CHTO   O58 6505   6.074   4.275   5.271
   16CHTO  H136 6506   6.105   4.195   5.233
   16CHTO   O51 6507   5.468   4.288   5.163
   16CHTO   C78 6508   5.451   4.438   5.234
   16CHTO  H150 6509   5.526   4.509   5.191
   16CHTO   C80 6510   5.466   4.436   5.387
   16CHTO  H152 6511   5.398   4.358   5.429
   16CHTO   O55 6512   5.602   4.401   5.418
   16CHTO  H134 6513   5.612   4.387   5.510
   16CHTO   C84 6514   5.433   4.576   5.454
   16CHTO  H156 6515   5.514   4.644   5.426
   16CHTO   N15 6516   5.431   4.572   5.604
   16CHTO  H143 6517   5.358   4.501   5.638
   16CHTO  H144 6518   5.527   4.543   5.641
   16CHTO   C87 6519   5.301   4.637   5.399
   16CHTO  H159 6520   5.214   4.589   5.444
   16CHTO   O53 6521   5.294   4.624   5.245
   16CHTO   C82 6522   5.312   4.491   5.195
   16CHTO  H154 6523   5.234   4.425   5.233
   16CHTO   C89 6524   5.297   4.495   5.041
   16CHTO   O59 6525   5.164   4.532   5.004
   16CHTO  H137 6526   5.157   4.534   4.911
   16CHTO   O45 6527   5.296   4.803   5.438
   16CHTO   C67 6528   5.361   4.888   5.342
   16CHTO  H124 6529   5.421   4.827   5.275
   16CHTO   C65 6530   5.254   4.965   5.256
   16CHTO  H122 6531   5.165   4.974   5.319
   16CHTO   O44 6532   5.222   4.881   5.144
   16CHTO  H102 6533   5.149   4.917   5.097
   16CHTO   C63 6534   5.297   5.114   5.224
   16CHTO  H120 6535   5.287   5.173   5.315
   16CHTO   N11 6536   5.209   5.190   5.130
   16CHTO  H108 6537   5.239   5.293   5.126
   16CHTO  H109 6538   5.215   5.147   5.032
   16CHTO   C61 6539   5.450   5.113   5.189
   16CHTO  H118 6540   5.480   5.217   5.168
   16CHTO   O40 6541   5.530   5.069   5.302
   16CHTO   C68 6542   5.464   4.990   5.407
   16CHTO  H125 6543   5.410   5.059   5.476
   16CHTO   C72 6544   5.573   4.920   5.490
   16CHTO   O48 6545   5.657   5.012   5.560
   16CHTO  H105 6546   5.722   4.965   5.608
   16CHTO   O38 6547   5.476   5.030   5.074
   16CHTO   C55 6548   5.610   5.018   5.022
   16CHTO  H112 6549   5.683   5.035   5.103
   16CHTO   C56 6550   5.630   5.121   4.904
   16CHTO  H113 6551   5.538   5.117   4.843
   16CHTO   O42 6552   5.637   5.255   4.957
   16CHTO  H100 6553   5.711   5.264   5.013
   16CHTO   C57 6554   5.756   5.089   4.814
   16CHTO  H114 6555   5.844   5.116   4.872
   16CHTO   N10 6556   5.759   5.167   4.688
   16CHTO  H106 6557   5.810   5.261   4.703
   16CHTO  H107 6558   5.658   5.187   4.653
   16CHTO   C58 6559   5.762   4.937   4.782
   16CHTO  H115 6560   5.675   4.910   4.717
   16CHTO   O37 6561   5.757   4.861   4.904
   16CHTO   C59 6562   5.632   4.872   4.973
   16CHTO  H116 6563   5.551   4.841   4.907
   16CHTO   C70 6564   5.634   4.773   5.090
   16CHTO   O46 6565   5.738   4.798   5.185
   16CHTO  H103 6566   5.821   4.781   5.146
   16CHTO   O39 6567   5.900   4.897   4.712
   16CHTO   C60 6568   5.886   4.798   4.608
   16CHTO  H117 6569   5.792   4.745   4.620
   16CHTO   C62 6570   5.884   4.864   4.467
   16CHTO  H119 6571   5.794   4.930   4.465
   16CHTO   O43 6572   6.001   4.947   4.452
   16CHTO  H101 6573   5.997   4.994   4.371
   16CHTO   C66 6574   5.871   4.751   4.354
   16CHTO  H123 6575   5.782   4.691   4.375
   16CHTO   N12 6576   5.852   4.808   4.219
   16CHTO  H110 6577   5.937   4.869   4.192
   16CHTO  H111 6578   5.837   4.728   4.147
   16CHTO   C69 6579   5.994   4.656   4.363
   16CHTO  H126 6580   6.087   4.716   4.348
   16CHTO   O41 6581   5.997   4.591   4.506
   16CHTO   C64 6582   5.999   4.693   4.621
   16CHTO  H121 6583   6.097   4.746   4.623
   16CHTO   C71 6584   5.982   4.617   4.755
   16CHTO   O47 6585   6.096   4.534   4.783
   16CHTO  H104 6586   6.170   4.588   4.804
   16CHTO   O34 6587   5.991   4.541   4.256
   16CHTO   C49 6588   6.118   4.482   4.188
   16CHTO   H91 6589   6.150   4.555   4.113
   16CHTO   C47 6590   6.082   4.349   4.119
   16CHTO   H89 6591   6.172   4.316   4.062
   16CHTO   O33 6592   5.975   4.374   4.026
   16CHTO   H70 6593   5.957   4.297   3.976
   16CHTO   C45 6594   6.044   4.240   4.232
   16CHTO   H87 6595   5.958   4.279   4.288
   16CHTO    N8 6596   6.004   4.110   4.171
   16CHTO   H75 6597   5.899   4.092   4.186
   16CHTO   H76 6598   6.027   4.106   4.066
   16CHTO   C43 6599   6.161   4.225   4.342
   16CHTO   H85 6600   6.117   4.168   4.424
   16CHTO   O29 6601   6.207   4.355   4.386
   16CHTO   C50 6602   6.233   4.458   4.289
   16CHTO   H92 6603   6.249   4.552   4.345
   16CHTO   C54 6604   6.371   4.436   4.220
   16CHTO   O36 6605   6.403   4.541   4.128
   16CHTO   H72 6606   6.420   4.621   4.175
   16CHTO   O27 6607   6.274   4.147   4.298
   16CHTO   C37 6608   6.397   4.095   4.352
   16CHTO   H79 6609   6.476   4.172   4.348
   16CHTO   C38 6610   6.382   4.054   4.502
   16CHTO   H80 6611   6.291   3.992   4.511
   16CHTO   O31 6612   6.361   4.174   4.579
   16CHTO   H68 6613   6.437   4.229   4.575
   16CHTO   C39 6614   6.506   3.973   4.556
   16CHTO   H81 6615   6.588   4.045   4.568
   16CHTO    N7 6616   6.481   3.913   4.691
   16CHTO   H73 6617   6.459   3.991   4.763
   16CHTO   H74 6618   6.398   3.843   4.685
   16CHTO   C40 6619   6.557   3.864   4.454
   16CHTO   H82 6620   6.490   3.777   4.456
   16CHTO   O26 6621   6.568   3.919   4.321
   16CHTO   C41 6622   6.442   3.972   4.269
   16CHTO   H83 6623   6.365   3.894   4.274
   16CHTO   C52 6624   6.460   4.008   4.119
   16CHTO   O35 6625   6.562   4.111   4.095
   16CHTO   H71 6626   6.533   4.193   4.131
   16CHTO   O28 6627   6.693   3.824   4.482
   16CHTO   C42 6628   6.737   3.688   4.520
   16CHTO   H84 6629   6.836   3.683   4.476
   16CHTO   C44 6630   6.657   3.568   4.460
   16CHTO   H86 6631   6.552   3.579   4.487
   16CHTO   O32 6632   6.672   3.580   4.318
   16CHTO   H69 6633   6.617   3.518   4.274
   16CHTO   C48 6634   6.707   3.426   4.510
   16CHTO   H90 6635   6.806   3.407   4.469
   16CHTO    N9 6636   6.618   3.316   4.458
   16CHTO   H77 6637   6.654   3.221   4.494
   16CHTO   H78 6638   6.617   3.317   4.350
   16CHTO   C51 6639   6.717   3.427   4.667
   16CHTO   H93 6640   6.617   3.445   4.707
   16CHTO   O30 6641   6.809   3.531   4.704
   16CHTO   C46 6642   6.755   3.671   4.674
   16CHTO   H88 6643   6.659   3.683   4.724
   16CHTO   C53 6644   6.857   3.774   4.728
   16CHTO   O72 6645   6.876   3.760   4.869
   16CHTO  H199 6646   6.920   3.679   4.887
   16CHTO   O22 6647   6.774   3.306   4.719
   16CHTO   C31 6648   6.740   3.258   4.855
   16CHTO   H59 6649   6.807   3.172   4.875
   16CHTO   C29 6650   6.765   3.362   4.967
   16CHTO   H57 6651   6.709   3.453   4.941
   16CHTO   O21 6652   6.905   3.397   4.964
   16CHTO   H37 6653   6.926   3.441   4.884
   16CHTO   C27 6654   6.719   3.311   5.109
   16CHTO   H55 6655   6.785   3.228   5.140
   16CHTO    N5 6656   6.728   3.418   5.212
   16CHTO   H43 6657   6.700   3.379   5.308
   16CHTO   H44 6658   6.829   3.456   5.216
   16CHTO   C25 6659   6.573   3.253   5.099
   16CHTO   H53 6660   6.503   3.335   5.074
   16CHTO   O17 6661   6.567   3.151   4.996
   16CHTO   C32 6662   6.594   3.201   4.864
   16CHTO   H60 6663   6.524   3.280   4.839
   16CHTO   C36 6664   6.574   3.084   4.764
   16CHTO   O25 6665   6.436   3.045   4.758
   16CHTO   H40 6666   6.386   3.112   4.716
   16CHTO   O15 6667   6.526   3.187   5.228
   16CHTO   C19 6668   6.487   3.198   5.368
   16CHTO   H47 6669   6.579   3.230   5.419
   16CHTO   C20 6670   6.374   3.302   5.395
   16CHTO   H48 6671   6.284   3.281   5.336
   16CHTO   O19 6672   6.423   3.431   5.352
   16CHTO   H35 6673   6.497   3.458   5.404
   16CHTO   C21 6674   6.333   3.306   5.548
   16CHTO   H49 6675   6.418   3.343   5.606
   16CHTO    N4 6676   6.220   3.398   5.576
   16CHTO   H41 6677   6.134   3.345   5.614
   16CHTO   H42 6678   6.192   3.454   5.488
   16CHTO   C22 6679   6.307   3.161   5.597
   16CHTO   H50 6680   6.219   3.121   5.546
   16CHTO   O14 6681   6.422   3.078   5.569
   16CHTO   C23 6682   6.449   3.061   5.429
   16CHTO   H51 6683   6.359   3.018   5.382
   16CHTO   C34 6684   6.563   2.959   5.414
   16CHTO   O23 6685   6.525   2.831   5.464
   16CHTO   H38 6686   6.597   2.771   5.455
   16CHTO   O16 6687   6.288   3.155   5.740
   16CHTO   C24 6688   6.272   3.006   5.801
   16CHTO   H52 6689   6.300   2.930   5.728
   16CHTO   C26 6690   6.127   2.982   5.846
   16CHTO   H54 6691   6.097   3.064   5.916
   16CHTO   O20 6692   6.042   2.989   5.730
   16CHTO   H36 6693   5.952   2.983   5.755
   16CHTO   C30 6694   6.114   2.846   5.922
   16CHTO   H58 6695   6.133   2.763   5.853
   16CHTO    N6 6696   5.977   2.824   5.977
   16CHTO   H45 6697   5.911   2.907   5.954
   16CHTO   H46 6698   5.934   2.734   5.937
   16CHTO   C33 6699   6.223   2.837   6.033
   16CHTO   H61 6700   6.205   2.915   6.109
   16CHTO   O18 6701   6.352   2.861   5.974
   16CHTO   C28 6702   6.368   2.992   5.921
   16CHTO   H56 6703   6.344   3.068   5.995
   16CHTO   C35 6704   6.515   3.010   5.878
   16CHTO   O24 6705   6.604   3.007   5.990
   16CHTO   H39 6706   6.692   3.020   5.961
   16CHTO    O9 6707   6.222   2.712   6.106
   16CHTO   C13 6708   6.337   2.712   6.224
   16CHTO   H26 6709   6.365   2.817   6.245
   16CHTO   C11 6710   6.461   2.628   6.174
   16CHTO   H24 6711   6.508   2.682   6.090
   16CHTO    O8 6712   6.418   2.500   6.124
   16CHTO    H3 6713   6.378   2.449   6.192
   16CHTO    C9 6714   6.563   2.618   6.291
   16CHTO   H22 6715   6.581   2.722   6.323
   16CHTO    N2 6716   6.697   2.570   6.250
   16CHTO   H10 6717   6.730   2.490   6.313
   16CHTO   H11 6718   6.697   2.538   6.146
   16CHTO    C7 6719   6.495   2.542   6.414
   16CHTO   H20 6720   6.525   2.603   6.502
   16CHTO    O4 6721   6.351   2.536   6.406
   16CHTO   C14 6722   6.283   2.655   6.362
   16CHTO   H27 6723   6.298   2.733   6.440
   16CHTO   C18 6724   6.131   2.626   6.357
   16CHTO   O13 6725   6.074   2.619   6.488
   16CHTO    H7 6726   6.104   2.541   6.531
   16CHTO    O2 6727   6.551   2.388   6.435
   16CHTO    C1 6728   6.551   2.347   6.573
   16CHTO   H14 6729   6.478   2.408   6.631
   16CHTO    C2 6730   6.692   2.357   6.642
   16CHTO   H15 6731   6.761   2.297   6.580
   16CHTO    O6 6732   6.734   2.495   6.642
   16CHTO    H1 6733   6.822   2.502   6.674
   16CHTO    C3 6734   6.686   2.297   6.791
   16CHTO   H16 6735   6.623   2.362   6.853
   16CHTO    N1 6736   6.822   2.293   6.856
   16CHTO    H8 6737   6.888   2.230   6.799
   16CHTO    H9 6738   6.813   2.256   6.957
   16CHTO    C4 6739   6.616   2.155   6.791
   16CHTO   H17 6740   6.683   2.082   6.747
   16CHTO    O1 6741   6.491   2.159   6.719
   16CHTO    C5 6742   6.500   2.200   6.582
   16CHTO   H18 6743   6.572   2.137   6.529
   16CHTO   C16 6744   6.361   2.183   6.517
   16CHTO   O11 6745   6.320   2.045   6.516
   16CHTO    H5 6746   6.301   2.017   6.603
   16CHTO    O3 6747   6.573   2.115   6.922
   16CHTO    C6 6748   6.638   1.999   6.984
   16CHTO   H19 6749   6.734   1.975   6.940
   16CHTO    C8 6750   6.659   2.030   7.136
   16CHTO   H21 6751   6.565   2.064   7.178
   16CHTO    O7 6752   6.757   2.136   7.147
   16CHTO    H2 6753   6.721   2.216   7.113
   16CHTO   C12 6754   6.706   1.902   7.217
   16CHTO   H25 6755   6.811   1.881   7.186
   16CHTO    N3 6756   6.709   1.928   7.365
   16CHTO   H12 6757   6.609   1.953   7.400
   16CHTO   H13 6758   6.747   1.842   7.417
   16CHTO   C15 6759   6.618   1.778   7.179
   16CHTO   H28 6760   6.517   1.787   7.220
   16CHTO   O10 6761   6.680   1.644   7.224
   16CHTO    H4 6762   6.684   1.641   7.317
   16CHTO    O5 6763   6.611   1.761   7.036
   16CHTO   C10 6764   6.548   1.872   6.970
   16CHTO   H23 6765   6.451   1.890   7.015
   16CHTO   C17 6766   6.524   1.831   6.824
   16CHTO   O12 6767   6.430   1.723   6.814
   16CHTO    H6 6768   6.344   1.753   6.839
   17CHTO  H203 6769   6.224   6.034   7.815
   17CHTO   O82 6770   6.312   6.033   7.849
   17CHTO  C123 6771   6.344   6.159   7.910
   17CHTO  H227 6772   6.446   6.153   7.953
   17CHTO   O77 6773   6.344   6.254   7.799
   17CHTO  C118 6774   6.384   6.387   7.834
   17CHTO  H222 6775   6.484   6.382   7.878
   17CHTO  C125 6776   6.391   6.473   7.702
   17CHTO   O84 6777   6.264   6.480   7.635
   17CHTO  H205 6778   6.273   6.533   7.558
   17CHTO  C114 6779   6.284   6.447   7.935
   17CHTO  H218 6780   6.185   6.450   7.889
   17CHTO  C116 6781   6.268   6.355   8.061
   17CHTO  H220 6782   6.360   6.359   8.122
   17CHTO   O79 6783   6.162   6.409   8.142
   17CHTO  H201 6784   6.080   6.406   8.096
   17CHTO  C120 6785   6.240   6.205   8.020
   17CHTO  H224 6786   6.138   6.202   7.977
   17CHTO   N21 6787   6.241   6.116   8.139
   17CHTO  H211 6788   6.341   6.079   8.158
   17CHTO  H212 6789   6.174   6.033   8.124
   17CHTO   O75 6790   6.326   6.582   7.961
   17CHTO  C112 6791   6.480   6.612   8.029
   17CHTO  H216 6792   6.558   6.569   7.963
   17CHTO   O73 6793   6.482   6.553   8.159
   17CHTO  C113 6794   6.600   6.582   8.236
   17CHTO  H217 6795   6.690   6.560   8.174
   17CHTO  C124 6796   6.605   6.488   8.357
   17CHTO   O83 6797   6.615   6.350   8.320
   17CHTO  H204 6798   6.699   6.333   8.282
   17CHTO  C109 6799   6.594   6.732   8.272
   17CHTO  H213 6800   6.495   6.750   8.318
   17CHTO  C110 6801   6.607   6.812   8.139
   17CHTO  H214 6802   6.706   6.793   8.097
   17CHTO   O78 6803   6.601   6.953   8.166
   17CHTO  H200 6804   6.519   6.976   8.205
   17CHTO  C111 6805   6.497   6.769   8.037
   17CHTO  H215 6806   6.401   6.809   8.071
   17CHTO   N19 6807   6.519   6.822   7.899
   17CHTO  H207 6808   6.436   6.885   7.870
   17CHTO  H208 6809   6.611   6.878   7.893
   17CHTO   O74 6810   6.699   6.769   8.367
   17CHTO  C115 6811   6.638   6.839   8.500
   17CHTO  H219 6812   6.548   6.897   8.477
   17CHTO   O76 6813   6.589   6.732   8.605
   17CHTO  C122 6814   6.697   6.679   8.683
   17CHTO  H226 6815   6.771   6.639   8.614
   17CHTO  C126 6816   6.646   6.556   8.766
   17CHTO   O85 6817   6.538   6.587   8.854
   17CHTO  H206 6818   6.514   6.511   8.903
   17CHTO  C121 6819   6.763   6.791   8.774
   17CHTO  H225 6820   6.718   6.786   8.875
   17CHTO   O81 6821   6.903   6.761   8.786
   17CHTO  H202 6822   6.943   6.817   8.850
   17CHTO  C119 6823   6.741   6.935   8.716
   17CHTO  H223 6824   6.639   6.962   8.743
   17CHTO  C117 6825   6.749   6.935   8.559
   17CHTO  H221 6826   6.843   6.899   8.517
   17CHTO   N20 6827   6.732   7.073   8.502
   17CHTO  H209 6828   6.807   7.139   8.542
   17CHTO  H210 6829   6.739   7.070   8.395
   17CHTO   O80 6830   6.826   7.046   8.793
   17CHTO  C103 6831   6.780   7.094   8.934
   17CHTO  H190 6832   6.677   7.068   8.953
   17CHTO  C101 6833   6.869   7.044   9.055
   17CHTO  H188 6834   6.974   7.048   9.025
   17CHTO   O68 6835   6.833   6.896   9.083
   17CHTO  H168 6836   6.891   6.861   9.148
   17CHTO   C99 6837   6.851   7.136   9.185
   17CHTO  H186 6838   6.747   7.125   9.222
   17CHTO   N17 6839   6.942   7.098   9.299
   17CHTO  H174 6840   6.919   7.158   9.386
   17CHTO  H175 6841   7.045   7.111   9.269
   17CHTO   C97 6842   6.866   7.284   9.144
   17CHTO  H184 6843   6.968   7.298   9.103
   17CHTO   O64 6844   6.764   7.316   9.047
   17CHTO  C104 6845   6.786   7.252   8.920
   17CHTO  H191 6846   6.883   7.281   8.878
   17CHTO  C108 6847   6.680   7.301   8.821
   17CHTO   O71 6848   6.689   7.442   8.795
   17CHTO  H171 6849   6.664   7.490   8.872
   17CHTO   O62 6850   6.843   7.377   9.252
   17CHTO   C91 6851   6.896   7.510   9.231
   17CHTO  H178 6852   6.974   7.505   9.155
   17CHTO   C92 6853   6.969   7.555   9.362
   17CHTO  H179 6854   7.045   7.480   9.390
   17CHTO   O66 6855   7.046   7.673   9.331
   17CHTO  H166 6856   6.990   7.743   9.303
   17CHTO   C93 6857   6.869   7.588   9.480
   17CHTO  H180 6858   6.915   7.668   9.541
   17CHTO   N16 6859   6.851   7.474   9.572
   17CHTO  H172 6860   6.878   7.501   9.673
   17CHTO  H173 6861   6.749   7.436   9.569
   17CHTO   C94 6862   6.732   7.641   9.423
   17CHTO  H181 6863   6.661   7.560   9.405
   17CHTO   O61 6864   6.752   7.707   9.297
   17CHTO   C95 6865   6.787   7.618   9.189
   17CHTO  H182 6866   6.696   7.566   9.156
   17CHTO  C106 6867   6.834   7.706   9.068
   17CHTO   O69 6868   6.862   7.627   8.952
   17CHTO  H169 6869   6.781   7.593   8.917
   17CHTO   O63 6870   6.671   7.744   9.522
   17CHTO   C96 6871   6.512   7.732   9.533
   17CHTO  H183 6872   6.487   7.626   9.540
   17CHTO   C98 6873   6.433   7.793   9.413
   17CHTO  H185 6874   6.471   7.894   9.392
   17CHTO   O67 6875   6.462   7.716   9.295
   17CHTO  H167 6876   6.433   7.627   9.306
   17CHTO  C102 6877   6.274   7.796   9.440
   17CHTO  H189 6878   6.241   7.691   9.436
   17CHTO   N18 6879   6.196   7.867   9.335
   17CHTO  H176 6880   6.209   7.818   9.240
   17CHTO  H177 6881   6.229   7.970   9.327
   17CHTO  C105 6882   6.245   7.851   9.582
   17CHTO  H192 6883   6.266   7.958   9.585
   17CHTO   O65 6884   6.324   7.787   9.683
   17CHTO  C100 6885   6.466   7.801   9.666
   17CHTO  H187 6886   6.490   7.909   9.661
   17CHTO  C107 6887   6.539   7.742   9.789
   17CHTO   O70 6888   6.509   7.816   9.907
   17CHTO  H170 6889   6.553   7.778   9.980
   17CHTO   O57 6890   6.086   7.823   9.612
   17CHTO   C85 6891   6.018   7.907   9.707
   17CHTO  H157 6892   6.062   8.008   9.697
   17CHTO   C83 6893   6.051   7.860   9.852
   17CHTO  H155 6894   6.159   7.869   9.867
   17CHTO   O56 6895   6.020   7.720   9.866
   17CHTO  H135 6896   5.928   7.705   9.858
   17CHTO   C81 6897   5.979   7.952   9.955
   17CHTO  H153 6898   6.011   8.055   9.936
   17CHTO   N14 6899   6.017   7.925   0.014
   17CHTO  H141 6900   6.073   8.007   0.054
   17CHTO  H142 6901   6.075   7.836   0.022
   17CHTO   C79 6902   5.823   7.947   9.932
   17CHTO  H151 6903   5.778   8.022   9.996
   17CHTO   O52 6904   5.790   7.984   9.794
   17CHTO   C86 6905   5.860   7.909   9.690
   17CHTO  H158 6906   5.817   7.807   9.695
   17CHTO   C90 6907   5.817   7.967   9.553
   17CHTO   O60 6908   5.859   7.884   9.444
   17CHTO  H138 6909   5.835   7.924   9.363
   17CHTO   O50 6910   5.763   7.820   9.964
   17CHTO   C73 6911   5.646   7.753  10.011
   17CHTO  H145 6912   5.576   7.825  10.057
   17CHTO   C74 6913   5.686   7.646   0.036
   17CHTO  H146 6914   5.740   7.699   0.115
   17CHTO   O54 6915   5.565   7.596   0.096
   17CHTO  H133 6916   5.586   7.537   0.166
   17CHTO   C75 6917   5.775   7.535  10.049
   17CHTO  H147 6918   5.870   7.581  10.018
   17CHTO   N13 6919   5.816   7.425   0.059
   17CHTO  H139 6920   5.877   7.354   0.007
   17CHTO  H140 6921   5.728   7.375   0.097
   17CHTO   C76 6922   5.704   7.479   9.916
   17CHTO  H148 6923   5.617   7.420   9.946
   17CHTO   O49 6924   5.661   7.589   9.830
   17CHTO   C77 6925   5.573   7.682   9.893
   17CHTO  H149 6926   5.486   7.628   9.932
   17CHTO   C88 6927   5.518   7.778   9.787
   17CHTO   O58 6928   5.419   7.865   9.843
   17CHTO  H136 6929   5.389   7.923   9.777
   17CHTO   O51 6930   5.808   7.395   9.826
   17CHTO   C78 6931   5.741   7.343   9.690
   17CHTO  H150 6932   5.641   7.390   9.673
   17CHTO   C80 6933   5.723   7.189   9.695
   17CHTO  H152 6934   5.822   7.143   9.717
   17CHTO   O55 6935   5.633   7.161   9.804
   17CHTO  H134 6936   5.624   7.069   9.815
   17CHTO   C84 6937   5.668   7.134   9.557
   17CHTO  H156 6938   5.567   7.173   9.543
   17CHTO   N15 6939   5.657   6.984   9.555
   17CHTO  H143 6940   5.588   6.952   9.630
   17CHTO  H144 6941   5.753   6.940   9.573
   17CHTO   C87 6942   5.756   7.186   9.440
   17CHTO  H159 6943   5.855   7.140   9.446
   17CHTO   O53 6944   5.768   7.338   9.449
   17CHTO   C82 6945   5.830   7.382   9.571
   17CHTO  H154 6946   5.929   7.337   9.582
   17CHTO   C89 6947   5.851   7.535   9.564
   17CHTO   O59 6948   5.944   7.570   9.462
   17CHTO  H137 6949   5.955   7.663   9.461
   17CHTO   O45 6950   5.689   7.154   9.295
   17CHTO   C67 6951   5.783   7.123   9.191
   17CHTO  H124 6952   5.879   7.095   9.234
   17CHTO   C65 6953   5.730   7.004   9.105
   17CHTO  H122 6954   5.658   6.950   9.167
   17CHTO   O44 6955   5.840   6.916   9.074
   17CHTO  H102 6956   5.808   6.838   9.033
   17CHTO   C63 6957   5.651   7.058   8.980
   17CHTO  H120 6958   5.578   7.132   9.015
   17CHTO   N11 6959   5.564   6.958   8.908
   17CHTO  H108 6960   5.460   6.980   8.924
   17CHTO  H109 6961   5.585   6.859   8.941
   17CHTO   C61 6962   5.753   7.135   8.888
   17CHTO  H118 6963   5.694   7.197   8.819
   17CHTO   O40 6964   5.841   7.224   8.962
   17CHTO   C68 6965   5.810   7.252   9.102
   17CHTO  H125 6966   5.720   7.318   9.105
   17CHTO   C72 6967   5.927   7.335   9.161
   17CHTO   O48 6968   5.935   7.466   9.104
   17CHTO  H105 6969   6.008   7.512   9.142
   17CHTO   O38 6970   5.842   7.047   8.816
   17CHTO   C55 6971   5.883   7.076   8.680
   17CHTO  H112 6972   5.968   7.008   8.660
   17CHTO   C56 6973   5.922   7.228   8.653
   17CHTO  H113 6974   5.835   7.290   8.677
   17CHTO   O42 6975   6.028   7.266   8.743
   17CHTO  H100 6976   5.997   7.265   8.831
   17CHTO   C57 6977   5.963   7.247   8.501
   17CHTO  H114 6978   6.051   7.186   8.484
   17CHTO   N10 6979   5.997   7.387   8.465
   17CHTO  H106 6980   6.068   7.388   8.384
   17CHTO  H107 6981   6.040   7.438   8.550
   17CHTO   C58 6982   5.848   7.194   8.412
   17CHTO  H115 6983   5.755   7.254   8.431
   17CHTO   O37 6984   5.820   7.056   8.443
   17CHTO   C59 6985   5.774   7.033   8.578
   17CHTO  H116 6986   5.681   7.089   8.595
   17CHTO   C70 6987   5.743   6.883   8.592
   17CHTO   O46 6988   5.631   6.843   8.514
   17CHTO  H103 6989   5.616   6.751   8.525
   17CHTO   O39 6990   5.886   7.195   8.246
   17CHTO   C60 6991   5.814   7.295   8.172
   17CHTO  H117 6992   5.757   7.358   8.241
   17CHTO   C62 6993   5.910   7.388   8.092
   17CHTO  H119 6994   5.985   7.425   8.166
   17CHTO   O43 6995   5.980   7.313   7.991
   17CHTO  H101 6996   6.036   7.249   8.030
   17CHTO   C66 6997   5.827   7.512   8.035
   17CHTO  H123 6998   5.775   7.560   8.118
   17CHTO   N12 6999   5.914   7.617   7.976
   17CHTO  H110 7000   5.853   7.700   7.941
   17CHTO  H111 7001   5.972   7.575   7.895
   17CHTO   C69 7002   5.718   7.462   7.936
   17CHTO  H126 7003   5.764   7.424   7.843
   17CHTO   O41 7004   5.629   7.343   8.005
   17CHTO   C64 7005   5.711   7.231   8.075
   17CHTO  H121 7006   5.765   7.171   7.998
   17CHTO   C71 7007   5.614   7.136   8.149
   17CHTO   O47 7008   5.526   7.068   8.058
   17CHTO  H104 7009   5.465   7.129   8.022
   17CHTO   O34 7010   5.620   7.582   7.898
   17CHTO   C49 7011   5.545   7.657   7.787
   17CHTO   H91 7012   5.612   7.735   7.751
   17CHTO   C47 7013   5.417   7.721   7.847
   17CHTO   H89 7014   5.376   7.784   7.764
   17CHTO   O33 7015   5.449   7.807   7.957
   17CHTO   H70 7016   5.502   7.879   7.928
   17CHTO   C45 7017   5.310   7.608   7.893
   17CHTO   H87 7018   5.323   7.590   8.001
   17CHTO    N8 7019   5.171   7.657   7.872
   17CHTO   H75 7020   5.169   7.751   7.819
   17CHTO   H76 7021   5.112   7.584   7.819
   17CHTO   C43 7022   5.345   7.467   7.824
   17CHTO   H85 7023   5.429   7.429   7.881
   17CHTO   O29 7024   5.379   7.490   7.686
   17CHTO   C50 7025   5.502   7.565   7.668
   17CHTO   H92 7026   5.583   7.493   7.650
   17CHTO   C54 7027   5.489   7.641   7.533
   17CHTO   O36 7028   5.612   7.704   7.494
   17CHTO   H72 7029   5.674   7.638   7.468
   17CHTO   O27 7030   5.246   7.364   7.838
   17CHTO   C37 7031   5.259   7.224   7.869
   17CHTO   H79 7032   5.319   7.211   7.960
   17CHTO   C38 7033   5.118   7.162   7.898
   17CHTO   H80 7034   5.051   7.189   7.815
   17CHTO   O31 7035   5.069   7.224   8.019
   17CHTO   H68 7036   4.981   7.197   8.035
   17CHTO   C39 7037   5.123   7.004   7.913
   17CHTO   H81 7038   5.179   6.983   8.004
   17CHTO    N7 7039   4.988   6.942   7.928
   17CHTO   H73 7040   4.997   6.835   7.941
   17CHTO   H74 7041   4.927   6.963   7.841
   17CHTO   C40 7042   5.202   6.940   7.792
   17CHTO   H82 7043   5.142   6.951   7.701
   17CHTO   O26 7044   5.329   7.005   7.779
   17CHTO   C41 7045   5.327   7.147   7.751
   17CHTO   H83 7046   5.272   7.166   7.658
   17CHTO   C52 7047   5.475   7.185   7.730
   17CHTO   O35 7048   5.529   7.128   7.614
   17CHTO   H71 7049   5.620   7.151   7.607
   17CHTO   O28 7050   5.228   6.799   7.806
   17CHTO   C42 7051   5.338   6.732   7.879
   17CHTO   H84 7052   5.318   6.627   7.863
   17CHTO   C44 7053   5.343   6.752   8.035
   17CHTO   H86 7054   5.359   6.858   8.056
   17CHTO   O32 7055   5.215   6.714   8.087
   17CHTO   H69 7056   5.200   6.622   8.074
   17CHTO   C48 7057   5.463   6.670   8.100
   17CHTO   H90 7058   5.442   6.564   8.090
   17CHTO    N9 7059   5.475   6.695   8.248
   17CHTO   H77 7060   5.491   6.800   8.267
   17CHTO   H78 7061   5.386   6.661   8.299
   17CHTO   C51 7062   5.596   6.704   8.024
   17CHTO   H93 7063   5.618   6.810   8.038
   17CHTO   O30 7064   5.576   6.671   7.886
   17CHTO   C46 7065   5.481   6.760   7.821
   17CHTO   H88 7066   5.510   6.863   7.842
   17CHTO   C53 7067   5.489   6.734   7.669
   17CHTO   O72 7068   5.620   6.765   7.620
   17CHTO  H199 7069   5.634   6.858   7.622
   17CHTO   O22 7070   5.710   6.624   8.062
   17CHTO   C31 7071   5.847   6.676   8.041
   17CHTO   H59 7072   5.915   6.588   8.051
   17CHTO   C29 7073   5.875   6.737   7.901
   17CHTO   H57 7074   5.797   6.813   7.883
   17CHTO   O21 7075   5.854   6.633   7.803
   17CHTO   H37 7076   5.854   6.669   7.717
   17CHTO   C27 7077   6.017   6.804   7.888
   17CHTO   H55 7078   6.094   6.725   7.890
   17CHTO    N5 7079   6.032   6.880   7.761
   17CHTO   H43 7080   5.960   6.960   7.757
   17CHTO   H44 7081   6.018   6.813   7.677
   17CHTO   C25 7082   6.044   6.897   8.012
   17CHTO   H53 7083   5.974   6.983   8.009
   17CHTO   O17 7084   6.024   6.824   8.135
   17CHTO   C32 7085   5.890   6.775   8.154
   17CHTO   H60 7086   5.821   6.860   8.154
   17CHTO   C36 7087   5.883   6.708   8.293
   17CHTO   O25 7088   5.974   6.599   8.305
   17CHTO   H40 7089   6.062   6.631   8.305
   17CHTO   O15 7090   6.190   6.951   8.013
   17CHTO   C19 7091   6.273   7.069   8.034
   17CHTO   H47 7092   6.373   7.028   8.052
   17CHTO   C20 7093   6.281   7.165   7.912
   17CHTO   H48 7094   6.181   7.204   7.884
   17CHTO   O19 7095   6.330   7.087   7.801
   17CHTO   H35 7096   6.328   7.137   7.722
   17CHTO   C21 7097   6.376   7.288   7.940
   17CHTO   H49 7098   6.478   7.251   7.950
   17CHTO    N4 7099   6.377   7.388   7.830
   17CHTO   H41 7100   6.413   7.342   7.739
   17CHTO   H42 7101   6.277   7.426   7.813
   17CHTO   C22 7102   6.339   7.352   8.077
   17CHTO   H50 7103   6.242   7.401   8.067
   17CHTO   O14 7104   6.333   7.254   8.182
   17CHTO   C23 7105   6.236   7.150   8.162
   17CHTO   H51 7106   6.138   7.198   8.153
   17CHTO   C34 7107   6.230   7.062   8.288
   17CHTO   O23 7108   6.356   7.002   8.321
   17CHTO   H38 7109   6.380   6.939   8.256
   17CHTO   O16 7110   6.440   7.446   8.121
   17CHTO   C24 7111   6.379   7.557   8.218
   17CHTO   H52 7112   6.277   7.532   8.250
   17CHTO   C26 7113   6.380   7.693   8.148
   17CHTO   H54 7114   6.485   7.720   8.122
   17CHTO   O20 7115   6.305   7.681   8.025
   17CHTO   H36 7116   6.313   7.760   7.974
   17CHTO   C30 7117   6.321   7.803   8.241
   17CHTO   H58 7118   6.212   7.788   8.250
   17CHTO    N6 7119   6.336   7.939   8.183
   17CHTO   H45 7120   6.287   7.944   8.087
   17CHTO   H46 7121   6.293   8.013   8.249
   17CHTO   C33 7122   6.376   7.797   8.387
   17CHTO   H61 7123   6.473   7.849   8.394
   17CHTO   O18 7124   6.395   7.661   8.433
   17CHTO   C28 7125   6.464   7.570   8.347
   17CHTO   H56 7126   6.563   7.609   8.321
   17CHTO   C35 7127   6.483   7.435   8.421
   17CHTO   O24 7128   6.360   7.375   8.464
   17CHTO   H39 7129   6.378   7.293   8.506
   17CHTO    O9 7130   6.287   7.870   8.474
   17CHTO   C13 7131   6.295   7.844   8.638
   17CHTO   H26 7132   6.402   7.845   8.666
   17CHTO   C11 7133   6.225   7.706   8.676
   17CHTO   H24 7134   6.290   7.624   8.641
   17CHTO    O8 7135   6.099   7.692   8.607
   17CHTO    H3 7136   6.113   7.690   8.514
   17CHTO    C9 7137   6.215   7.696   8.830
   17CHTO   H22 7138   6.317   7.714   8.867
   17CHTO    N2 7139   6.180   7.561   8.880
   17CHTO   H10 7140   6.250   7.488   8.841
   17CHTO   H11 7141   6.079   7.535   8.851
   17CHTO    C7 7142   6.122   7.811   8.882
   17CHTO   H20 7143   6.123   7.801   8.993
   17CHTO    O4 7144   6.178   7.940   8.848
   17CHTO   C14 7145   6.229   7.968   8.716
   17CHTO   H27 7146   6.310   8.040   8.734
   17CHTO   C18 7147   6.121   8.044   8.633
   17CHTO   O13 7148   6.004   7.967   8.602
   17CHTO    H7 7149   6.026   7.898   8.543
   17CHTO    O2 7150   5.966   7.805   8.826
   17CHTO    C1 7151   5.867   7.746   8.912
   17CHTO   H14 7152   5.917   7.693   8.996
   17CHTO    C2 7153   5.776   7.642   8.833
   17CHTO   H15 7154   5.740   7.696   8.744
   17CHTO    O6 7155   5.858   7.531   8.793
   17CHTO    H1 7156   5.808   7.473   8.739
   17CHTO    C3 7157   5.651   7.594   8.922
   17CHTO   H16 7158   5.688   7.535   9.008
   17CHTO    N1 7159   5.557   7.507   8.845
   17CHTO    H8 7160   5.609   7.419   8.810
   17CHTO    H9 7161   5.475   7.477   8.908
   17CHTO    C4 7162   5.580   7.720   8.983
   17CHTO   H17 7163   5.538   7.779   8.902
   17CHTO    O1 7164   5.675   7.798   9.057
   17CHTO    C5 7165   5.778   7.857   8.976
   17CHTO   H18 7166   5.734   7.916   8.896
   17CHTO   C16 7167   5.855   7.952   9.071
   17CHTO   O11 7168   5.940   8.042   8.998
   17CHTO    H5 7169   5.887   8.103   8.951
   17CHTO    O3 7170   5.477   7.685   9.079
   17CHTO    C6 7171   5.378   7.792   9.099
   17CHTO   H19 7172   5.413   7.889   9.063
   17CHTO    C8 7173   5.245   7.758   9.025
   17CHTO   H21 7174   5.207   7.664   9.064
   17CHTO    O7 7175   5.276   7.745   8.885
   17CHTO    H2 7176   5.200   7.717   8.838
   17CHTO   C12 7177   5.138   7.871   9.054
   17CHTO   H25 7178   5.179   7.965   9.010
   17CHTO    N3 7179   5.007   7.844   8.985
   17CHTO   H12 7180   5.023   7.839   8.878
   17CHTO   H13 7181   4.936   7.922   9.009
   17CHTO   C15 7182   5.124   7.890   9.209
   17CHTO   H28 7183   5.075   7.805   9.256
   17CHTO   O10 7184   5.047   8.020   9.247
   17CHTO    H4 7185   5.086   8.095   9.206
   17CHTO    O5 7186   5.252   7.913   9.271
   17CHTO   C10 7187   5.349   7.809   9.250
   17CHTO   H23 7188   5.310   7.715   9.291
   17CHTO   C17 7189   5.476   7.844   9.328
   17CHTO   O12 7190   5.451   7.856   9.469
   17CHTO    H6 7191   5.433   7.772   9.506
   18CHTO  H203 7192   5.803   8.499   0.501
   18CHTO   O82 7193   5.762   8.437   0.558
   18CHTO  C123 7194   5.857   8.341   0.607
   18CHTO  H227 7195   5.806   8.272   0.676
   18CHTO   O77 7196   5.899   8.269   0.487
   18CHTO  C118 7197   5.990   8.161   0.514
   18CHTO  H222 7198   5.946   8.093   0.589
   18CHTO  C125 7199   6.013   8.080   0.382
   18CHTO   O84 7200   5.893   8.015   0.340
   18CHTO  H205 7201   5.908   7.968   0.260
   18CHTO  C114 7202   6.122   8.217   0.568
   18CHTO  H218 7203   6.167   8.280   0.492
   18CHTO  C116 7204   6.099   8.305   0.696
   18CHTO  H220 7205   6.076   8.237   0.781
   18CHTO   O79 7206   6.223   8.371   0.728
   18CHTO  H201 7207   6.213   8.419   0.808
   18CHTO  C120 7208   5.982   8.409   0.675
   18CHTO  H224 7209   6.022   8.489   0.609
   18CHTO   N21 7210   5.946   8.474   0.804
   18CHTO  H211 7211   5.870   8.417   0.856
   18CHTO  H212 7212   5.911   8.575   0.786
   18CHTO   O75 7213   6.203   8.100   0.590
   18CHTO  C112 7214   6.364   8.121   0.618
   18CHTO  H216 7215   6.378   8.145   0.725
   18CHTO   O73 7216   6.410   8.228   0.533
   18CHTO  C113 7217   6.549   8.257   0.551
   18CHTO  H217 7218   6.570   8.275   0.659
   18CHTO  C124 7219   6.582   8.388   0.477
   18CHTO   O83 7220   6.511   8.501   0.529
   18CHTO  H204 7221   6.543   8.522   0.615
   18CHTO  C109 7222   6.633   8.137   0.500
   18CHTO  H213 7223   6.607   8.123   0.394
   18CHTO  C110 7224   6.595   8.010   0.582
   18CHTO  H214 7225   6.630   8.024   0.685
   18CHTO   O78 7226   6.665   7.897   0.528
   18CHTO  H200 7227   6.638   7.880   0.440
   18CHTO  C111 7228   6.440   7.987   0.582
   18CHTO  H215 7229   6.410   7.958   0.481
   18CHTO   N19 7230   6.397   7.878   0.674
   18CHTO  H207 7231   6.290   7.866   0.669
   18CHTO  H208 7232   6.445   7.785   0.645
   18CHTO   O74 7233   6.776   8.165   0.511
   18CHTO  C115 7234   6.856   8.125   0.377
   18CHTO  H219 7235   6.817   8.033   0.333
   18CHTO   O76 7236   6.837   8.233   0.265
   18CHTO  C122 7237   6.918   8.349   0.287
   18CHTO  H226 7238   6.896   8.387   0.387
   18CHTO  C126 7239   6.875   8.462   0.188
   18CHTO   O85 7240   6.946   8.584   0.211
   18CHTO  H206 7241   7.036   8.573   0.188
   18CHTO  C121 7242   7.072   8.313   0.274
   18CHTO  H225 7243   7.106   8.337   0.171
   18CHTO   O81 7244   7.145   8.396   0.366
   18CHTO  H202 7245   7.138   8.486   0.341
   18CHTO  C119 7246   7.101   8.162   0.302
   18CHTO  H223 7247   7.075   8.110   0.210
   18CHTO  C117 7248   7.008   8.105   0.416
   18CHTO  H221 7249   7.020   8.153   0.513
   18CHTO   N20 7250   7.037   7.960   0.441
   18CHTO  H209 7251   7.014   7.901   0.353
   18CHTO  H210 7252   6.979   7.924   0.525
   18CHTO   O80 7253   7.265   8.127   0.314
   18CHTO  C103 7254   7.350   8.079   0.182
   18CHTO  H190 7255   7.447   8.040   0.214
   18CHTO  C101 7256   7.283   7.970   0.090
   18CHTO  H188 7257   7.185   8.006   0.060
   18CHTO   O68 7258   7.266   7.842   0.171
   18CHTO  H168 7259   7.349   7.805   0.191
   18CHTO   C99 7260   7.369   7.950  10.038
   18CHTO  H186 7261   7.471   7.915  10.065
   18CHTO   N17 7262   7.313   7.849   9.942
   18CHTO  H174 7263   7.217   7.812   9.977
   18CHTO  H175 7264   7.382   7.767   9.928
   18CHTO   C97 7265   7.388   8.088   9.970
   18CHTO  H184 7266   7.289   8.125   9.938
   18CHTO   O64 7267   7.453   8.179  10.061
   18CHTO  C104 7268   7.378   8.209   0.098
   18CHTO  H191 7269   7.283   8.256   0.072
   18CHTO  C108 7270   7.455   8.314   0.180
   18CHTO   O71 7271   7.586   8.268   0.215
   18CHTO  H171 7272   7.630   8.334   0.266
   18CHTO   O62 7273   7.482   8.089   9.860
   18CHTO   C91 7274   7.430   8.112   9.727
   18CHTO  H178 7275   7.331   8.067   9.719
   18CHTO   C92 7276   7.522   8.035   9.626
   18CHTO  H179 7277   7.626   8.068   9.641
   18CHTO   O66 7278   7.520   7.895   9.660
   18CHTO  H166 7279   7.433   7.860   9.650
   18CHTO   C93 7280   7.479   8.055   9.475
   18CHTO  H180 7281   7.387   7.996   9.459
   18CHTO   N16 7282   7.578   8.001   9.378
   18CHTO  H172 7283   7.543   8.016   9.277
   18CHTO  H173 7284   7.594   7.896   9.397
   18CHTO   C94 7285   7.446   8.206   9.442
   18CHTO  H181 7286   7.536   8.266   9.429
   18CHTO   O61 7287   7.368   8.268   9.545
   18CHTO   C95 7288   7.423   8.262   9.677
   18CHTO  H182 7289   7.523   8.305   9.676
   18CHTO  C106 7290   7.336   8.354   9.769
   18CHTO   O69 7291   7.198   8.315   9.770
   18CHTO  H169 7292   7.189   8.232   9.812
   18CHTO   O63 7293   7.355   8.209   9.306
   18CHTO   C96 7294   7.338   8.350   9.230
   18CHTO  H183 7295   7.287   8.329   9.136
   18CHTO   C98 7296   7.468   8.427   9.194
   18CHTO  H185 7297   7.526   8.449   9.286
   18CHTO   O67 7298   7.550   8.338   9.117
   18CHTO  H167 7299   7.633   8.378   9.098
   18CHTO  C102 7300   7.436   8.562   9.113
   18CHTO  H189 7301   7.398   8.530   9.015
   18CHTO   N18 7302   7.555   8.647   9.084
   18CHTO  H176 7303   7.547   8.744   9.130
   18CHTO  H177 7304   7.569   8.658   8.978
   18CHTO  C105 7305   7.322   8.642   9.183
   18CHTO  H192 7306   7.363   8.693   9.271
   18CHTO   O65 7307   7.212   8.561   9.228
   18CHTO  C100 7308   7.247   8.449   9.311
   18CHTO  H187 7309   7.302   8.486   9.399
   18CHTO  C107 7310   7.118   8.379   9.362
   18CHTO   O70 7311   7.046   8.463   9.453
   18CHTO  H170 7312   7.009   8.536   9.407
   18CHTO   O57 7313   7.269   8.753   9.071
   18CHTO   C85 7314   7.222   8.880   9.120
   18CHTO  H157 7315   7.288   8.906   9.204
   18CHTO   C83 7316   7.080   8.864   9.181
   18CHTO  H155 7317   7.085   8.787   9.259
   18CHTO   O56 7318   6.990   8.813   9.079
   18CHTO  H135 7319   6.906   8.796   9.117
   18CHTO   C81 7320   7.037   8.998   9.245
   18CHTO  H153 7321   7.112   9.026   9.319
   18CHTO   N14 7322   6.911   8.986   9.323
   18CHTO  H141 7323   6.890   9.079   9.372
   18CHTO  H142 7324   6.921   8.909   9.397
   18CHTO   C79 7325   7.033   9.111   9.134
   18CHTO  H151 7326   7.017   9.206   9.186
   18CHTO   O52 7327   7.162   9.122   9.066
   18CHTO   C86 7328   7.215   8.996   9.012
   18CHTO  H158 7329   7.147   8.971   8.928
   18CHTO   C90 7330   7.353   9.025   8.949
   18CHTO   O60 7331   7.400   8.915   8.871
   18CHTO  H138 7332   7.483   8.937   8.832
   18CHTO   O50 7333   6.927   9.096   9.039
   18CHTO   C73 7334   6.849   9.174   8.946
   18CHTO  H145 7335   6.909   9.197   8.857
   18CHTO   C74 7336   6.802   9.308   9.011
   18CHTO  H146 7337   6.892   9.363   9.042
   18CHTO   O54 7338   6.739   9.388   8.908
   18CHTO  H133 7339   6.712   9.471   8.943
   18CHTO   C75 7340   6.708   9.276   9.133
   18CHTO  H147 7341   6.765   9.219   9.207
   18CHTO   N13 7342   6.661   9.397   9.205
   18CHTO  H139 7343   6.745   9.452   9.243
   18CHTO  H140 7344   6.598   9.368   9.288
   18CHTO   C76 7345   6.587   9.182   9.084
   18CHTO  H148 7346   6.526   9.240   9.015
   18CHTO   O49 7347   6.639   9.063   9.016
   18CHTO   C77 7348   6.724   9.092   8.903
   18CHTO  H149 7349   6.668   9.148   8.828
   18CHTO   C88 7350   6.764   8.960   8.836
   18CHTO   O58 7351   6.838   8.983   8.709
   18CHTO  H136 7352   6.920   9.024   8.727
   18CHTO   O51 7353   6.503   9.128   9.214
   18CHTO   C78 7354   6.367   9.043   9.186
   18CHTO  H150 7355   6.385   8.964   9.110
   18CHTO   C80 7356   6.252   9.134   9.137
   18CHTO  H152 7357   6.247   9.223   9.203
   18CHTO   O55 7358   6.285   9.178   9.004
   18CHTO  H134 7359   6.222   9.239   8.973
   18CHTO   C84 7360   6.112   9.059   9.139
   18CHTO  H156 7361   6.115   8.978   9.066
   18CHTO   N15 7362   5.997   9.148   9.100
   18CHTO  H143 7363   5.905   9.093   9.102
   18CHTO  H144 7364   6.013   9.186   9.002
   18CHTO   C87 7365   6.090   8.996   9.279
   18CHTO  H159 7366   6.084   9.075   9.355
   18CHTO   O53 7367   6.206   8.903   9.307
   18CHTO   C82 7368   6.331   8.973   9.318
   18CHTO  H154 7369   6.324   9.046   9.399
   18CHTO   C89 7370   6.440   8.871   9.360
   18CHTO   O59 7371   6.453   8.762   9.269
   18CHTO  H137 7372   6.517   8.701   9.301
   18CHTO   O45 7373   5.952   8.904   9.287
   18CHTO   C67 7374   5.911   8.880   9.423
   18CHTO  H124 7375   5.990   8.911   9.491
   18CHTO   C65 7376   5.781   8.962   9.457
   18CHTO  H122 7377   5.723   8.967   9.365
   18CHTO   O44 7378   5.826   9.094   9.492
   18CHTO  H102 7379   5.753   9.152   9.501
   18CHTO   C63 7380   5.686   8.887   9.560
   18CHTO  H120 7381   5.629   8.812   9.506
   18CHTO   N11 7382   5.575   8.969   9.619
   18CHTO  H108 7383   5.519   9.017   9.541
   18CHTO  H109 7384   5.616   9.044   9.685
   18CHTO   C61 7385   5.774   8.809   9.664
   18CHTO  H118 7386   5.705   8.754   9.730
   18CHTO   O40 7387   5.859   8.710   9.599
   18CHTO   C68 7388   5.887   8.727   9.456
   18CHTO  H125 7389   5.800   8.688   9.398
   18CHTO   C72 7390   6.008   8.637   9.421
   18CHTO   O48 7391   6.035   8.629   9.281
   18CHTO  H105 7392   5.965   8.585   9.237
   18CHTO   O38 7393   5.855   8.900   9.742
   18CHTO   C55 7394   5.922   8.847   9.859
   18CHTO  H112 7395   5.930   8.738   9.852
   18CHTO   C56 7396   5.848   8.893   9.991
   18CHTO  H113 7397   5.838   9.002   9.986
   18CHTO   O42 7398   5.715   8.839   9.991
   18CHTO  H100 7399   5.667   8.871  10.065
   18CHTO   C57 7400   5.931   8.853   0.038
   18CHTO  H114 7401   5.936   8.744   0.040
   18CHTO   N10 7402   5.869   8.897   0.165
   18CHTO  H106 7403   5.902   8.997   0.192
   18CHTO  H107 7404   5.762   8.896   0.158
   18CHTO   C58 7405   6.075   8.908   0.022
   18CHTO  H115 7406   6.071   9.020   0.017
   18CHTO   O37 7407   6.134   8.858   9.982
   18CHTO   C59 7408   6.069   8.900   9.861
   18CHTO  H116 7409   6.071   9.009   9.854
   18CHTO   C70 7410   6.147   8.842   9.742
   18CHTO   O46 7411   6.280   8.893   9.733
   18CHTO  H103 7412   6.323   8.856   9.658
   18CHTO   O39 7413   6.176   8.864   0.154
   18CHTO   C60 7414   6.248   8.741   0.135
   18CHTO  H117 7415   6.187   8.673   0.074
   18CHTO   C62 7416   6.384   8.766   0.063
   18CHTO  H119 7417   6.361   8.822  10.051
   18CHTO   O43 7418   6.467   8.850   0.144
   18CHTO  H101 7419   6.547   8.870   0.098
   18CHTO   C66 7420   6.448   8.625   0.025
   18CHTO  H123 7421   6.378   8.571  10.044
   18CHTO   N12 7422   6.571   8.639  10.025
   18CHTO  H110 7423   6.549   8.692   9.934
   18CHTO  H111 7424   6.612   8.541  10.002
   18CHTO   C69 7425   6.472   8.541   0.153
   18CHTO  H126 7426   6.552   8.588   0.215
   18CHTO   O41 7427   6.337   8.533   0.240
   18CHTO   C64 7428   6.274   8.667   0.270
   18CHTO  H121 7429   6.342   8.727   0.333
   18CHTO   C71 7430   6.144   8.640   0.351
   18CHTO   O47 7431   6.095   8.761   0.411
   18CHTO  H104 7432   6.018   8.741   0.461
   18CHTO   O34 7433   6.516   8.394   0.119
   18CHTO   C49 7434   6.492   8.247   0.078
   18CHTO   H91 7435   6.579   8.191   0.114
   18CHTO   C47 7436   6.484   8.235  10.006
   18CHTO   H89 7437   6.494   8.125   9.987
   18CHTO   O33 7438   6.594   8.301   9.943
   18CHTO   H70 7439   6.591   8.394   9.958
   18CHTO   C45 7440   6.345   8.292   9.945
   18CHTO   H87 7441   6.364   8.393   9.905
   18CHTO    N8 7442   6.302   8.205   9.832
   18CHTO   H75 7443   6.380   8.199   9.758
   18CHTO   H76 7444   6.212   8.244   9.787
   18CHTO   C43 7445   6.237   8.314  10.061
   18CHTO   H85 7446   6.266   8.405   0.031
   18CHTO   O29 7447   6.238   8.200   0.068
   18CHTO   C50 7448   6.362   8.187   0.142
   18CHTO   H92 7449   6.347   8.237   0.238
   18CHTO   C54 7450   6.381   8.039   0.183
   18CHTO   O36 7451   6.386   7.951   0.070
   18CHTO   H72 7452   6.398   7.863   0.099
   18CHTO   O27 7453   6.107   8.346  10.010
   18CHTO   C37 7454   5.966   8.353  10.036
   18CHTO   H79 7455   5.923   8.252  10.041
   18CHTO   C38 7456   5.935   8.424   0.088
   18CHTO   H80 7457   5.978   8.525   0.085
   18CHTO   O31 7458   5.999   8.350   0.193
   18CHTO   H68 7459   5.991   8.395   0.275
   18CHTO   C39 7460   5.779   8.433   0.111
   18CHTO   H81 7461   5.745   8.331   0.130
   18CHTO    N7 7462   5.742   8.513   0.232
   18CHTO   H73 7463   5.776   8.615   0.221
   18CHTO   H74 7464   5.635   8.511   0.247
   18CHTO   C40 7465   5.701   8.484  10.064
   18CHTO   H82 7466   5.707   8.593  10.058
   18CHTO   O26 7467   5.750   8.421   9.945
   18CHTO   C41 7468   5.894   8.433   9.924
   18CHTO   H83 7469   5.923   8.538   9.931
   18CHTO   C52 7470   5.929   8.386   9.780
   18CHTO   O35 7471   5.891   8.250   9.754
   18CHTO   H71 7472   5.797   8.243   9.751
   18CHTO   O28 7473   5.561   8.449  10.076
   18CHTO   C42 7474   5.464   8.436   9.966
   18CHTO   H84 7475   5.368   8.431  10.018
   18CHTO   C44 7476   5.475   8.304   9.883
   18CHTO   H86 7477   5.573   8.300   9.836
   18CHTO   O32 7478   5.465   8.195   9.976
   18CHTO   H69 7479   5.379   8.192  10.015
   18CHTO   C48 7480   5.367   8.297   9.768
   18CHTO   H90 7481   5.268   8.292   9.814
   18CHTO    N9 7482   5.381   8.171   9.686
   18CHTO   H77 7483   5.290   8.114   9.688
   18CHTO   H78 7484   5.410   8.194   9.584
   18CHTO   C51 7485   5.373   8.428   9.680
   18CHTO   H93 7486   5.471   8.432   9.631
   18CHTO   O30 7487   5.352   8.542   9.765
   18CHTO   C46 7488   5.459   8.561   9.873
   18CHTO   H88 7489   5.556   8.575   9.825
   18CHTO   C53 7490   5.421   8.686   9.955
   18CHTO   O72 7491   5.425   8.804   9.874
   18CHTO  H199 7492   5.353   8.803   9.813
   18CHTO   O22 7493   5.266   8.434   9.584
   18CHTO   C31 7494   5.283   8.491   9.448
   18CHTO   H59 7495   5.181   8.491   9.404
   18CHTO   C29 7496   5.335   8.637   9.443
   18CHTO   H57 7497   5.433   8.639   9.494
   18CHTO   O21 7498   5.245   8.718   9.522
   18CHTO   H37 7499   5.280   8.805   9.530
   18CHTO   C27 7500   5.351   8.689   9.295
   18CHTO   H55 7501   5.252   8.689   9.246
   18CHTO    N5 7502   5.408   8.825   9.286
   18CHTO   H43 7503   5.508   8.827   9.328
   18CHTO   H44 7504   5.411   8.858   9.183
   18CHTO   C25 7505   5.440   8.585   9.217
   18CHTO   H53 7506   5.539   8.580   9.266
   18CHTO   O17 7507   5.377   8.455   9.223
   18CHTO   C32 7508   5.368   8.399   9.355
   18CHTO   H60 7509   5.468   8.389   9.398
   18CHTO   C36 7510   5.306   8.259   9.340
   18CHTO   O25 7511   5.390   8.174   9.260
   18CHTO   H40 7512   5.351   8.089   9.253
   18CHTO   O15 7513   5.458   8.618   9.063
   18CHTO   C19 7514   5.576   8.610   8.976
   18CHTO   H47 7515   5.536   8.567   8.883
   18CHTO   C20 7516   5.638   8.749   8.945
   18CHTO   H48 7517   5.664   8.804   9.037
   18CHTO   O19 7518   5.536   8.825   8.877
   18CHTO   H35 7519   5.565   8.913   8.862
   18CHTO   C21 7520   5.769   8.738   8.856
   18CHTO   H49 7521   5.741   8.699   8.758
   18CHTO    N4 7522   5.836   8.870   8.833
   18CHTO   H41 7523   5.782   8.950   8.882
   18CHTO   H42 7524   5.842   8.891   8.727
   18CHTO   C22 7525   5.864   8.635   8.920
   18CHTO   H50 7526   5.895   8.672   9.018
   18CHTO   O14 7527   5.796   8.509   8.935
   18CHTO   C23 7528   5.686   8.511   9.027
   18CHTO   H51 7529   5.725   8.541   9.125
   18CHTO   C34 7530   5.633   8.368   9.038
   18CHTO   O23 7531   5.727   8.281   9.102
   18CHTO   H38 7532   5.802   8.269   9.047
   18CHTO   O16 7533   5.978   8.602   8.838
   18CHTO   C24 7534   6.116   8.589   8.923
   18CHTO   H52 7535   6.101   8.613   9.029
   18CHTO   C26 7536   6.221   8.685   8.864
   18CHTO   H54 7537   6.237   8.658   8.757
   18CHTO   O20 7538   6.170   8.819   8.870
   18CHTO   H36 7539   6.099   8.830   8.811
   18CHTO   C30 7540   6.356   8.671   8.941
   18CHTO   H58 7541   6.344   8.711   9.043
   18CHTO    N6 7542   6.463   8.752   8.878
   18CHTO   H45 7543   6.482   8.718   8.777
   18CHTO   H46 7544   6.555   8.744   8.935
   18CHTO   C33 7545   6.399   8.521   8.957
   18CHTO   H61 7546   6.437   8.482   8.861
   18CHTO   O18 7547   6.289   8.439   8.999
   18CHTO   C28 7548   6.171   8.445   8.917
   18CHTO   H56 7549   6.195   8.420   8.814
   18CHTO   C35 7550   6.071   8.340   8.970
   18CHTO   O24 7551   6.032   8.360   9.107
   18CHTO   H39 7552   5.984   8.440   9.115
   18CHTO    O9 7553   6.510   8.511   9.049
   18CHTO   C13 7554   6.608   8.382   9.029
   18CHTO   H26 7555   6.638   8.378   8.922
   18CHTO   C11 7556   6.533   8.249   9.073
   18CHTO   H24 7557   6.458   8.225   8.995
   18CHTO    O8 7558   6.463   8.270   9.197
   18CHTO    H3 7559   6.413   8.194   9.220
   18CHTO    C9 7560   6.638   8.134   9.080
   18CHTO   H22 7561   6.689   8.135   8.983
   18CHTO    N2 7562   6.576   8.000   9.087
   18CHTO   H10 7563   6.507   7.986   9.005
   18CHTO   H11 7564   6.526   7.987   9.181
   18CHTO    C7 7565   6.745   8.167   9.193
   18CHTO   H20 7566   6.841   8.134   9.149
   18CHTO    O4 7567   6.753   8.309   9.224
   18CHTO   C14 7568   6.744   8.399   9.111
   18CHTO   H27 7569   6.829   8.376   9.043
   18CHTO   C18 7570   6.763   8.544   9.162
   18CHTO   O13 7571   6.896   8.566   9.210
   18CHTO    H7 7572   6.957   8.563   9.138
   18CHTO    O2 7573   6.719   8.085   9.335
   18CHTO    C1 7574   6.814   8.101   9.441
   18CHTO   H14 7575   6.854   8.205   9.438
   18CHTO    C2 7576   6.937   7.999   9.433
   18CHTO   H15 7577   6.892   7.901   9.412
   18CHTO    O6 7578   7.022   8.037   9.324
   18CHTO    H1 7579   7.060   8.122   9.340
   18CHTO    C3 7580   7.017   7.993   9.573
   18CHTO   H16 7581   7.065   8.090   9.593
   18CHTO    N1 7582   7.125   7.888   9.572
   18CHTO    H8 7583   7.176   7.887   9.667
   18CHTO    H9 7584   7.195   7.909   9.493
   18CHTO    C4 7585   6.913   7.972   9.689
   18CHTO   H17 7586   6.858   7.879   9.670
   18CHTO    O1 7587   6.823   8.084   9.689
   18CHTO    C5 7588   6.735   8.088   9.575
   18CHTO   H18 7589   6.677   7.996   9.572
   18CHTO   C16 7590   6.640   8.208   9.599
   18CHTO   O11 7591   6.532   8.211   9.506
   18CHTO    H5 7592   6.480   8.287   9.520
   18CHTO    O3 7593   6.972   7.967   9.821
   18CHTO    C6 7594   6.879   7.919   9.925
   18CHTO   H19 7595   6.775   7.921   9.892
   18CHTO    C8 7596   6.913   7.772   9.968
   18CHTO   H21 7597   7.017   7.770  10.002
   18CHTO    O7 7598   6.900   7.688   9.852
   18CHTO    H2 7599   6.811   7.686   9.822
   18CHTO   C12 7600   6.819   7.726   0.004
   18CHTO   H25 7601   6.717   7.717  10.042
   18CHTO    N3 7602   6.854   7.590   0.057
   18CHTO   H12 7603   6.940   7.549   0.004
   18CHTO   H13 7604   6.770   7.523   0.049
   18CHTO   C15 7605   6.815   7.835   0.118
   18CHTO   H28 7606   6.907   7.837   0.176
   18CHTO   O10 7607   6.693   7.816   0.214
   18CHTO    H4 7608   6.700   7.874   0.287
   18CHTO    O5 7609   6.789   7.966   0.064
   18CHTO   C10 7610   6.889   8.009  10.051
   18CHTO   H23 7611   6.987   7.999   0.016
   18CHTO   C17 7612   6.866   8.158  10.023
   18CHTO   O12 7613   6.976   8.218   9.953
   18CHTO    H6 7614   6.979   8.186   9.865
   19CHTO  H203 7615   5.691   9.179   1.081
   19CHTO   O82 7616   5.716   9.097   1.043
   19CHTO  C123 7617   5.678   9.093   0.905
   19CHTO  H227 7618   5.729   9.175   0.852
   19CHTO   O77 7619   5.732   8.965   0.860
   19CHTO  C118 7620   5.715   8.939   0.720
   19CHTO  H222 7621   5.756   9.023   0.661
   19CHTO  C125 7622   5.796   8.808   0.688
   19CHTO   O84 7623   5.811   8.786   0.547
   19CHTO  H205 7624   5.866   8.852   0.510
   19CHTO  C114 7625   5.564   8.925   0.693
   19CHTO  H218 7626   5.524   8.846   0.757
   19CHTO  C116 7627   5.489   9.057   0.732
   19CHTO  H220 7628   5.521   9.138   0.663
   19CHTO   O79 7629   5.348   9.039   0.711
   19CHTO  H201 7630   5.314   8.972   0.767
   19CHTO  C120 7631   5.522   9.097   0.882
   19CHTO  H224 7632   5.473   9.020   0.947
   19CHTO   N21 7633   5.465   9.229   0.919
   19CHTO  H211 7634   5.365   9.217   0.958
   19CHTO  H212 7635   5.465   9.296   0.834
   19CHTO   O75 7636   5.551   8.891   0.554
   19CHTO  C112 7637   5.436   8.776   0.522
   19CHTO  H216 7638   5.336   8.819   0.541
   19CHTO   O73 7639   5.462   8.662   0.606
   19CHTO  C113 7640   5.366   8.556   0.590
   19CHTO  H217 7641   5.264   8.598   0.602
   19CHTO  C124 7642   5.384   8.452   0.702
   19CHTO   O83 7643   5.513   8.391   0.704
   19CHTO  H204 7644   5.518   8.330   0.776
   19CHTO  C109 7645   5.380   8.496   0.447
   19CHTO  H213 7646   5.483   8.457   0.439
   19CHTO  C110 7647   5.355   8.608   0.342
   19CHTO  H214 7648   5.250   8.638   0.347
   19CHTO   O78 7649   5.376   8.555   0.210
   19CHTO  H200 7650   5.465   8.527   0.199
   19CHTO  C111 7651   5.446   8.732   0.370
   19CHTO  H215 7652   5.551   8.703   0.352
   19CHTO   N19 7653   5.418   8.848   0.281
   19CHTO  H207 7654   5.315   8.879   0.292
   19CHTO  H208 7655   5.438   8.821   0.178
   19CHTO   O74 7656   5.286   8.385   0.431
   19CHTO  C115 7657   5.341   8.264   0.339
   19CHTO  H219 7658   5.384   8.300   0.245
   19CHTO   O76 7659   5.458   8.185   0.412
   19CHTO  C122 7660   5.507   8.069   0.344
   19CHTO  H226 7661   5.577   8.019   0.411
   19CHTO  C126 7662   5.591   8.110   0.217
   19CHTO   O85 7663   5.650   7.998   0.151
   19CHTO  H206 7664   5.674   8.022   0.064
   19CHTO  C121 7665   5.390   7.969   0.307
   19CHTO  H225 7666   5.432   7.889   0.242
   19CHTO   O81 7667   5.344   7.906   0.427
   19CHTO  H202 7668   5.286   7.835   0.406
   19CHTO  C119 7669   5.273   8.039   0.231
   19CHTO  H223 7670   5.316   8.070   0.135
   19CHTO  C117 7671   5.221   8.168   0.304
   19CHTO  H221 7672   5.171   8.151   0.400
   19CHTO   N20 7673   5.119   8.241   0.220
   19CHTO  H209 7674   5.110   8.196   0.122
   19CHTO  H210 7675   5.143   8.346   0.211
   19CHTO   O80 7676   5.160   7.934   0.182
   19CHTO  C103 7677   5.199   7.822   0.082
   19CHTO  H190 7678   5.298   7.841   0.041
   19CHTO  C101 7679   5.196   7.674   0.135
   19CHTO  H188 7680   5.096   7.651   0.171
   19CHTO   O68 7681   5.293   7.660   0.253
   19CHTO  H168 7682   5.381   7.676   0.224
   19CHTO   C99 7683   5.232   7.573   0.016
   19CHTO  H186 7684   5.336   7.592  10.067
   19CHTO   N17 7685   5.224   7.428   0.054
   19CHTO  H174 7686   5.285   7.410   0.142
   19CHTO  H175 7687   5.258   7.366  10.054
   19CHTO   C97 7688   5.145   7.603   9.972
   19CHTO  H184 7689   5.043   7.563   9.988
   19CHTO   O64 7690   5.143   7.743   9.939
   19CHTO  C104 7691   5.097   7.830  10.044
   19CHTO  H191 7692   4.999   7.797  10.079
   19CHTO  C108 7693   5.077   7.972   9.990
   19CHTO   O71 7694   5.199   8.031   9.944
   19CHTO  H171 7695   5.182   8.116   9.908
   19CHTO   O62 7696   5.203   7.541   9.855
   19CHTO   C91 7697   5.118   7.528   9.739
   19CHTO  H178 7698   5.030   7.591   9.754
   19CHTO   C92 7699   5.066   7.381   9.729
   19CHTO  H179 7700   5.032   7.347   9.828
   19CHTO   O66 7701   4.948   7.382   9.646
   19CHTO  H166 7702   4.906   7.298   9.648
   19CHTO   C93 7703   5.170   7.282   9.665
   19CHTO  H180 7704   5.113   7.192   9.637
   19CHTO   N16 7705   5.273   7.232   9.759
   19CHTO  H172 7706   5.372   7.264   9.731
   19CHTO  H173 7707   5.251   7.262   9.861
   19CHTO   C94 7708   5.234   7.344   9.533
   19CHTO  H181 7709   5.342   7.360   9.543
   19CHTO   O61 7710   5.178   7.473   9.500
   19CHTO   C95 7711   5.190   7.572   9.603
   19CHTO  H182 7712   5.296   7.590   9.622
   19CHTO  C106 7713   5.130   7.706   9.548
   19CHTO   O69 7714   5.153   7.815   9.638
   19CHTO  H169 7715   5.102   7.803   9.716
   19CHTO   O63 7716   5.204   7.247   9.415
   19CHTO   C96 7717   5.319   7.238   9.310
   19CHTO  H183 7718   5.412   7.220   9.365
   19CHTO   C98 7719   5.338   7.365   9.222
   19CHTO  H185 7720   5.332   7.457   9.283
   19CHTO   O67 7721   5.471   7.364   9.167
   19CHTO  H167 7722   5.535   7.373   9.235
   19CHTO  C102 7723   5.233   7.371   9.101
   19CHTO  H189 7724   5.268   7.452   9.036
   19CHTO   N18 7725   5.094   7.407   9.139
   19CHTO  H176 7726   5.087   7.425   9.245
   19CHTO  H177 7727   5.024   7.330   9.110
   19CHTO  C105 7728   5.242   7.238   9.019
   19CHTO  H192 7729   5.141   7.198   9.001
   19CHTO   O65 7730   5.319   7.133   9.081
   19CHTO  C100 7731   5.289   7.110   9.220
   19CHTO  H187 7732   5.181   7.087   9.226
   19CHTO  C107 7733   5.366   6.985   9.267
   19CHTO   O70 7734   5.330   6.950   9.401
   19CHTO  H170 7735   5.377   6.873   9.427
   19CHTO   O57 7736   5.308   7.282   8.877
   19CHTO   C85 7737   5.237   7.256   8.754
   19CHTO  H157 7738   5.152   7.189   8.778
   19CHTO   C83 7739   5.328   7.174   8.656
   19CHTO  H155 7740   5.354   7.080   8.705
   19CHTO   O56 7741   5.452   7.244   8.634
   19CHTO  H135 7742   5.438   7.324   8.587
   19CHTO   C81 7743   5.248   7.142   8.526
   19CHTO  H153 7744   5.160   7.085   8.554
   19CHTO   N14 7745   5.321   7.052   8.433
   19CHTO  H141 7746   5.349   6.962   8.483
   19CHTO  H142 7747   5.409   7.101   8.396
   19CHTO   C79 7748   5.199   7.276   8.457
   19CHTO  H151 7749   5.131   7.247   8.376
   19CHTO   O52 7750   5.120   7.355   8.551
   19CHTO   C86 7751   5.190   7.385   8.676
   19CHTO  H158 7752   5.277   7.448   8.645
   19CHTO   C90 7753   5.102   7.476   8.764
   19CHTO   O60 7754   5.076   7.602   8.700
   19CHTO  H138 7755   5.155   7.652   8.696
   19CHTO   O50 7756   5.303   7.357   8.401
   19CHTO   C73 7757   5.335   7.450   8.296
   19CHTO  H145 7758   5.312   7.405   8.198
   19CHTO   C74 7759   5.487   7.483   8.300
   19CHTO  H146 7760   5.541   7.388   8.292
   19CHTO   O54 7761   5.521   7.559   8.182
   19CHTO  H133 7762   5.477   7.642   8.183
   19CHTO   C75 7763   5.520   7.559   8.435
   19CHTO  H147 7764   5.495   7.492   8.519
   19CHTO   N13 7765   5.664   7.591   8.451
   19CHTO  H139 7766   5.697   7.656   8.371
   19CHTO  H140 7767   5.681   7.640   8.546
   19CHTO   C76 7768   5.427   7.688   8.446
   19CHTO  H148 7769   5.453   7.755   8.363
   19CHTO   O49 7770   5.286   7.650   8.434
   19CHTO   C77 7771   5.255   7.584   8.310
   19CHTO  H149 7772   5.282   7.650   8.227
   19CHTO   C88 7773   5.103   7.567   8.300
   19CHTO   O58 7774   5.063   7.506   8.173
   19CHTO  H136 7775   4.970   7.496   8.171
   19CHTO   O51 7776   5.440   7.759   8.589
   19CHTO   C78 7777   5.444   7.918   8.576
   19CHTO  H150 7778   5.436   7.951   8.470
   19CHTO   C80 7779   5.575   7.974   8.636
   19CHTO  H152 7780   5.587   7.934   8.739
   19CHTO   O55 7781   5.683   7.923   8.556
   19CHTO  H134 7782   5.766   7.948   8.593
   19CHTO   C84 7783   5.574   8.133   8.642
   19CHTO  H156 7784   5.566   8.170   8.540
   19CHTO   N15 7785   5.700   8.190   8.701
   19CHTO  H143 7786   5.694   8.297   8.701
   19CHTO  H144 7787   5.784   8.160   8.642
   19CHTO   C87 7788   5.448   8.176   8.721
   19CHTO  H159 7789   5.452   8.134   8.822
   19CHTO   O53 7790   5.327   8.119   8.643
   19CHTO   C82 7791   5.322   7.976   8.650
   19CHTO  H154 7792   5.320   7.945   8.754
   19CHTO   C89 7793   5.189   7.929   8.585
   19CHTO   O59 7794   5.075   7.976   8.658
   19CHTO  H137 7795   5.071   7.934   8.742
   19CHTO   O45 7796   5.429   8.344   8.734
   19CHTO   C67 7797   5.292   8.381   8.761
   19CHTO  H124 7798   5.228   8.321   8.696
   19CHTO   C65 7799   5.249   8.356   8.910
   19CHTO  H122 7800   5.334   8.384   8.972
   19CHTO   O44 7801   5.225   8.214   8.923
   19CHTO  H102 7802   5.305   8.167   8.912
   19CHTO   C63 7803   5.130   8.452   8.955
   19CHTO  H120 7804   5.173   8.548   8.984
   19CHTO   N11 7805   5.056   8.414   9.080
   19CHTO  H108 7806   5.125   8.397   9.160
   19CHTO  H109 7807   4.988   8.492   9.107
   19CHTO   C61 7808   5.039   8.480   8.830
   19CHTO  H118 7809   4.959   8.548   8.863
   19CHTO   O40 7810   5.114   8.551   8.725
   19CHTO   C68 7811   5.260   8.531   8.722
   19CHTO  H125 7812   5.306   8.599   8.797
   19CHTO   C72 7813   5.316   8.572   8.584
   19CHTO   O48 7814   5.259   8.499   8.474
   19CHTO  H105 7815   5.168   8.522   8.465
   19CHTO   O38 7816   4.984   8.358   8.777
   19CHTO   C55 7817   4.855   8.365   8.712
   19CHTO  H112 7818   4.837   8.466   8.674
   19CHTO   C56 7819   4.742   8.318   8.814
   19CHTO  H113 7820   4.775   8.223   8.858
   19CHTO   O42 7821   4.734   8.411   8.923
   19CHTO  H100 7822   4.710   8.497   8.892
   19CHTO   C57 7823   4.601   8.301   8.743
   19CHTO  H114 7824   4.566   8.401   8.717
   19CHTO   N10 7825   4.497   8.239   8.830
   19CHTO  H106 7826   4.542   8.170   8.899
   19CHTO  H107 7827   4.422   8.188   8.772
   19CHTO   C58 7828   4.619   8.220   8.612
   19CHTO  H115 7829   4.648   8.115   8.637
   19CHTO   O37 7830   4.721   8.279   8.530
   19CHTO   C59 7831   4.852   8.271   8.587
   19CHTO  H116 7832   4.875   8.168   8.615
   19CHTO   C70 7833   4.951   8.317   8.479
   19CHTO   O46 7834   5.083   8.268   8.500
   19CHTO  H103 7835   5.120   8.308   8.576
   19CHTO   O39 7836   4.484   8.219   8.521
   19CHTO   C60 7837   4.492   8.126   8.412
   19CHTO  H117 7838   4.597   8.107   8.387
   19CHTO   C62 7839   4.429   7.989   8.450
   19CHTO  H119 7840   4.485   7.952   8.539
   19CHTO   O43 7841   4.290   8.007   8.487
   19CHTO  H101 7842   4.284   8.058   8.565
   19CHTO   C66 7843   4.450   7.887   8.328
   19CHTO  H123 7844   4.557   7.879   8.307
   19CHTO   N12 7845   4.406   7.749   8.361
   19CHTO  H110 7846   4.301   7.748   8.386
   19CHTO  H111 7847   4.465   7.709   8.442
   19CHTO   C69 7848   4.383   7.943   8.200
   19CHTO  H126 7849   4.272   7.947   8.212
   19CHTO   O41 7850   4.438   8.087   8.170
   19CHTO   C64 7851   4.425   8.184   8.285
   19CHTO  H121 7852   4.318   8.204   8.306
   19CHTO   C71 7853   4.492   8.318   8.244
   19CHTO   O47 7854   4.425   8.376   8.132
   19CHTO  H104 7855   4.465   8.457   8.109
   19CHTO   O34 7856   4.414   7.854   8.078
   19CHTO   C49 7857   4.428   7.852   7.928
   19CHTO   H91 7858   4.327   7.860   7.887
   19CHTO   C47 7859   4.492   7.718   7.889
   19CHTO   H89 7860   4.491   7.718   7.777
   19CHTO   O33 7861   4.412   7.607   7.934
   19CHTO   H70 7862   4.408   7.605   8.028
   19CHTO   C45 7863   4.643   7.707   7.947
   19CHTO   H87 7864   4.639   7.657   8.045
   19CHTO    N8 7865   4.724   7.622   7.855
   19CHTO   H75 7866   4.677   7.525   7.844
   19CHTO   H76 7867   4.824   7.610   7.894
   19CHTO   C43 7868   4.703   7.854   7.978
   19CHTO   H85 7869   4.663   7.882   8.075
   19CHTO   O29 7870   4.661   7.946   7.875
   19CHTO   C50 7871   4.519   7.968   7.871
   19CHTO   H92 7872   4.497   8.060   7.927
   19CHTO   C54 7873   4.482   8.005   7.725
   19CHTO   O36 7874   4.347   8.052   7.713
   19CHTO   H72 7875   4.329   8.073   7.624
   19CHTO   O27 7876   4.846   7.855   7.997
   19CHTO   C37 7877   4.957   7.939   8.033
   19CHTO   H79 7878   5.048   7.879   8.043
   19CHTO   C38 7879   4.984   8.045   7.922
   19CHTO   H80 7880   4.891   8.101   7.904
   19CHTO   O31 7881   5.020   7.975   7.801
   19CHTO   H68 7882   4.946   7.929   7.767
   19CHTO   C39 7883   5.098   8.146   7.965
   19CHTO   H81 7884   5.191   8.089   7.965
   19CHTO    N7 7885   5.115   8.259   7.867
   19CHTO   H73 7886   5.095   8.355   7.913
   19CHTO   H74 7887   5.215   8.258   7.826
   19CHTO   C40 7888   5.074   8.199   8.113
   19CHTO   H82 7889   4.993   8.273   8.112
   19CHTO   O26 7890   5.047   8.091   8.203
   19CHTO   C41 7891   4.930   8.012   8.167
   19CHTO   H83 7892   4.842   8.079   8.155
   19CHTO   C52 7893   4.899   7.914   8.281
   19CHTO   O35 7894   4.856   7.982   8.403
   19CHTO   H71 7895   4.838   7.919   8.470
   19CHTO   O28 7896   5.188   8.265   8.174
   19CHTO   C42 7897   5.331   8.242   8.149
   19CHTO   H84 7898   5.340   8.230   8.042
   19CHTO   C44 7899   5.398   8.116   8.213
   19CHTO   H86 7900   5.396   8.126   8.322
   19CHTO   O32 7901   5.320   8.001   8.175
   19CHTO   H69 7902   5.352   7.924   8.218
   19CHTO   C48 7903   5.549   8.104   8.166
   19CHTO   H90 7904   5.550   8.088   8.058
   19CHTO    N9 7905   5.619   7.984   8.224
   19CHTO   H77 7906   5.721   7.979   8.188
   19CHTO   H78 7907   5.618   7.989   8.332
   19CHTO   C51 7908   5.627   8.238   8.197
   19CHTO   H93 7909   5.636   8.248   8.305
   19CHTO   O30 7910   5.559   8.349   8.138
   19CHTO   C46 7911   5.416   8.367   8.188
   19CHTO   H88 7912   5.418   8.377   8.296
   19CHTO   C53 7913   5.358   8.498   8.126
   19CHTO   O72 7914   5.360   8.496   7.983
   19CHTO  H199 7915   5.299   8.433   7.951
   19CHTO   O22 7916   5.757   8.238   8.134
   19CHTO   C31 7917   5.881   8.304   8.182
   19CHTO   H59 7918   5.906   8.380   8.105
   19CHTO   C29 7919   5.875   8.378   8.318
   19CHTO   H57 7920   5.845   8.304   8.394
   19CHTO   O21 7921   5.772   8.478   8.313
   19CHTO   H37 7922   5.795   8.546   8.253
   19CHTO   C27 7923   6.016   8.440   8.359
   19CHTO   H55 7924   6.038   8.523   8.290
   19CHTO    N5 7925   6.017   8.493   8.498
   19CHTO   H43 7926   6.000   8.412   8.568
   19CHTO   H44 7927   5.940   8.568   8.509
   19CHTO   C25 7928   6.131   8.335   8.338
   19CHTO   H53 7929   6.121   8.255   8.414
   19CHTO   O17 7930   6.124   8.273   8.207
   19CHTO   C32 7931   6.000   8.204   8.182
   19CHTO   H60 7932   5.984   8.131   8.262
   19CHTO   C36 7933   6.012   8.125   8.049
   19CHTO   O25 7934   6.038   8.210   7.937
   19CHTO   H40 7935   6.040   8.158   7.859
   19CHTO   O15 7936   6.273   8.403   8.355
   19CHTO   C19 7937   6.408   8.357   8.383
   19CHTO   H47 7938   6.461   8.450   8.411
   19CHTO   C20 7939   6.419   8.256   8.502
   19CHTO   H48 7940   6.360   8.165   8.483
   19CHTO   O19 7941   6.363   8.322   8.617
   19CHTO   H35 7942   6.271   8.332   8.608
   19CHTO   C21 7943   6.569   8.213   8.527
   19CHTO   H49 7944   6.626   8.301   8.558
   19CHTO    N4 7945   6.583   8.112   8.636
   19CHTO   H41 7946   6.544   8.152   8.728
   19CHTO   H42 7947   6.688   8.088   8.650
   19CHTO   C22 7948   6.630   8.164   8.393
   19CHTO   H50 7949   6.579   8.073   8.362
   19CHTO   O14 7950   6.617   8.266   8.292
   19CHTO   C23 7951   6.481   8.301   8.258
   19CHTO   H51 7952   6.432   8.210   8.219
   19CHTO   C34 7953   6.485   8.404   8.145
   19CHTO   O23 7954   6.548   8.352   8.027
   19CHTO   H38 7955   6.641   8.342   8.042
   19CHTO   O16 7956   6.773   8.143   8.402
   19CHTO   C24 7957   6.841   8.025   8.304
   19CHTO   H52 7958   6.949   8.037   8.296
   19CHTO   C26 7959   6.782   8.029   8.161
   19CHTO   H54 7960   6.671   8.023   8.167
   19CHTO   O20 7961   6.817   8.156   8.102
   19CHTO   H36 7962   6.910   8.164   8.092
   19CHTO   C30 7963   6.832   7.909   8.074
   19CHTO   H58 7964   6.939   7.921   8.052
   19CHTO    N6 7965   6.764   7.904   7.942
   19CHTO   H45 7966   6.784   7.994   7.886
   19CHTO   H46 7967   6.657   7.895   7.956
   19CHTO   C33 7968   6.819   7.774   8.152
   19CHTO   H61 7969   6.712   7.748   8.163
   19CHTO   O18 7970   6.877   7.786   8.283
   19CHTO   C28 7971   6.816   7.886   8.367
   19CHTO   H56 7972   6.709   7.869   8.376
   19CHTO   C35 7973   6.880   7.879   8.508
   19CHTO   O24 7974   6.856   7.754   8.574
   19CHTO   H39 7975   6.905   7.686   8.532
   19CHTO    O9 7976   6.878   7.665   8.079
   19CHTO   C13 7977   6.846   7.518   8.139
   19CHTO   H26 7978   6.761   7.527   8.210
   19CHTO   C11 7979   6.977   7.464   8.212
   19CHTO   H24 7980   6.995   7.526   8.301
   19CHTO    O8 7981   7.091   7.476   8.124
   19CHTO    H3 7982   7.111   7.567   8.110
   19CHTO    C9 7983   6.950   7.317   8.256
   19CHTO   H22 7984   6.862   7.322   8.321
   19CHTO    N2 7985   7.057   7.261   8.344
   19CHTO   H10 7986   7.019   7.248   8.445
   19CHTO   H11 7987   7.144   7.324   8.344
   19CHTO    C7 7988   6.912   7.227   8.130
   19CHTO   H20 7989   6.816   7.180   8.162
   19CHTO    O4 7990   6.889   7.305   8.011
   19CHTO   C14 7991   6.799   7.416   8.026
   19CHTO   H27 7992   6.699   7.376   8.054
   19CHTO   C18 7993   6.783   7.483   7.887
   19CHTO   O13 7994   6.729   7.392   7.790
   19CHTO    H7 7995   6.723   7.435   7.707
   19CHTO    O2 7996   7.024   7.105   8.091
   19CHTO    C1 7997   6.964   6.975   8.075
   19CHTO   H14 7998   6.858   6.978   8.107
   19CHTO    C2 7999   7.039   6.863   8.158
   19CHTO   H15 8000   7.144   6.867   8.126
   19CHTO    O6 8001   7.031   6.895   8.298
   19CHTO    H1 8002   6.941   6.895   8.327
   19CHTO    C3 8003   6.977   6.717   8.129
   19CHTO   H16 8004   6.880   6.711   8.180
   19CHTO    N1 8005   7.061   6.607   8.187
   19CHTO    H8 8006   7.016   6.511   8.166
   19CHTO    H9 8007   7.071   6.620   8.293
   19CHTO    C4 8008   6.947   6.695   7.976
   19CHTO   H17 8009   7.038   6.664   7.924
   19CHTO    O1 8010   6.890   6.810   7.913
   19CHTO    C5 8011   6.964   6.932   7.926
   19CHTO   H18 8012   7.067   6.917   7.894
   19CHTO   C16 8013   6.898   7.036   7.831
   19CHTO   O11 8014   6.908   6.996   7.694
   19CHTO    H5 8015   6.854   6.921   7.679
   19CHTO    O3 8016   6.841   6.598   7.958
   19CHTO    C6 8017   6.870   6.475   7.885
   19CHTO   H19 8018   6.977   6.453   7.878
   19CHTO    C8 8019   6.801   6.356   7.959
   19CHTO   H21 8020   6.695   6.381   7.973
   19CHTO    O7 8021   6.865   6.343   8.087
   19CHTO    H2 8022   6.820   6.280   8.140
   19CHTO   C12 8023   6.811   6.222   7.874
   19CHTO   H25 8024   6.918   6.195   7.871
   19CHTO    N3 8025   6.739   6.109   7.941
   19CHTO   H12 8026   6.781   6.091   8.039
   19CHTO   H13 8027   6.747   6.020   7.881
   19CHTO   C15 8028   6.762   6.249   7.727
   19CHTO   H28 8029   6.654   6.269   7.723
   19CHTO   O10 8030   6.796   6.132   7.629
   19CHTO    H4 8031   6.887   6.111   7.634
   19CHTO    O5 8032   6.834   6.359   7.669
   19CHTO   C10 8033   6.817   6.484   7.738
   19CHTO   H23 8034   6.710   6.509   7.739
   19CHTO   C17 8035   6.889   6.592   7.656
   19CHTO   O12 8036   6.829   6.609   7.527
   19CHTO    H6 8037   6.876   6.675   7.479
   20CHTO  H203 8038   6.443   1.357   7.878
   20CHTO   O82 8039   6.516   1.416   7.865
   20CHTO  C123 8040   6.469   1.544   7.819
   20CHTO  H227 8041   6.398   1.529   7.736
   20CHTO   O77 8042   6.400   1.598   7.936
   20CHTO  C118 8043   6.333   1.723   7.909
   20CHTO  H222 8044   6.264   1.710   7.823
   20CHTO  C125 8045   6.248   1.761   8.036
   20CHTO   O84 8046   6.145   1.664   8.062
   20CHTO  H205 8047   6.080   1.669   7.995
   20CHTO  C114 8048   6.437   1.831   7.877
   20CHTO  H218 8049   6.499   1.848   7.965
   20CHTO  C116 8050   6.532   1.788   7.760
   20CHTO  H220 8051   6.475   1.797   7.664
   20CHTO   O79 8052   6.640   1.883   7.751
   20CHTO  H201 8053   6.694   1.864   7.677
   20CHTO  C120 8054   6.586   1.641   7.778
   20CHTO  H224 8055   6.662   1.645   7.859
   20CHTO   N21 8056   6.656   1.594   7.655
   20CHTO  H211 8057   6.732   1.522   7.680
   20CHTO  H212 8058   6.585   1.551   7.585
   20CHTO   O75 8059   6.358   1.949   7.848
   20CHTO  C112 8060   6.428   2.090   7.894
   20CHTO  H216 8061   6.536   2.075   7.908
   20CHTO   O73 8062   6.363   2.132   8.016
   20CHTO  C113 8063   6.422   2.250   8.074
   20CHTO  H217 8064   6.530   2.231   8.092
   20CHTO  C124 8065   6.356   2.275   8.210
   20CHTO   O83 8066   6.380   2.170   8.303
   20CHTO  H204 8067   6.336   2.188   8.384
   20CHTO  C109 8068   6.406   2.372   7.979
   20CHTO  H213 8069   6.299   2.398   7.976
   20CHTO  C110 8070   6.458   2.338   7.836
   20CHTO  H214 8071   6.567   2.335   7.840
   20CHTO   O78 8072   6.422   2.445   7.747
   20CHTO  H200 8073   6.468   2.524   7.770
   20CHTO  C111 8074   6.405   2.201   7.785
   20CHTO  H215 8075   6.297   2.210   7.767
   20CHTO   N19 8076   6.466   2.159   7.656
   20CHTO  H207 8077   6.573   2.148   7.667
   20CHTO  H208 8078   6.423   2.066   7.623
   20CHTO   O74 8079   6.482   2.487   8.030
   20CHTO  C115 8080   6.396   2.613   8.081
   20CHTO  H219 8081   6.295   2.584   8.109
   20CHTO   O76 8082   6.457   2.676   8.209
   20CHTO  C122 8083   6.597   2.707   8.195
   20CHTO  H226 8084   6.652   2.614   8.208
   20CHTO  C126 8085   6.638   2.798   8.315
   20CHTO   O85 8086   6.778   2.825   8.320
   20CHTO  H206 8087   6.797   2.881   8.393
   20CHTO  C121 8088   6.634   2.774   8.054
   20CHTO  H225 8089   6.704   2.858   8.071
   20CHTO   O81 8090   6.702   2.679   7.971
   20CHTO  H202 8091   6.783   2.653   8.011
   20CHTO  C119 8092   6.507   2.828   7.982
   20CHTO  H223 8093   6.471   2.908   8.048
   20CHTO  C117 8094   6.392   2.721   7.965
   20CHTO  H221 8095   6.399   2.662   7.874
   20CHTO   N20 8096   6.257   2.787   7.956
   20CHTO  H209 8097   6.235   2.839   8.048
   20CHTO  H210 8098   6.255   2.855   7.873
   20CHTO   O80 8099   6.541   2.909   7.852
   20CHTO  C103 8100   6.494   3.058   7.836
   20CHTO  H190 8101   6.398   3.074   7.885
   20CHTO  C101 8102   6.597   3.167   7.887
   20CHTO  H188 8103   6.696   3.140   7.850
   20CHTO   O68 8104   6.601   3.161   8.043
   20CHTO  H168 8105   6.518   3.187   8.078
   20CHTO   C99 8106   6.560   3.313   7.833
   20CHTO  H186 8107   6.463   3.345   7.876
   20CHTO   N17 8108   6.661   3.418   7.869
   20CHTO  H174 8109   6.627   3.515   7.836
   20CHTO  H175 8110   6.678   3.418   7.975
   20CHTO   C97 8111   6.537   3.307   7.679
   20CHTO  H184 8112   6.633   3.281   7.632
   20CHTO   O64 8113   6.435   3.210   7.650
   20CHTO  C104 8114   6.471   3.075   7.681
   20CHTO  H191 8115   6.561   3.045   7.627
   20CHTO  C108 8116   6.357   2.987   7.628
   20CHTO   O71 8117   6.391   2.848   7.627
   20CHTO  H171 8118   6.318   2.798   7.596
   20CHTO   O62 8119   6.487   3.430   7.621
   20CHTO   C91 8120   6.494   3.440   7.477
   20CHTO  H178 8121   6.518   3.341   7.436
   20CHTO   C92 8122   6.612   3.534   7.436
   20CHTO  H179 8123   6.604   3.628   7.493
   20CHTO   O66 8124   6.734   3.472   7.481
   20CHTO  H166 8125   6.807   3.530   7.467
   20CHTO   C93 8126   6.618   3.562   7.281
   20CHTO  H180 8127   6.650   3.469   7.232
   20CHTO   N16 8128   6.718   3.664   7.243
   20CHTO  H172 8129   6.720   3.677   7.135
   20CHTO  H173 8130   6.696   3.758   7.292
   20CHTO   C94 8131   6.475   3.601   7.226
   20CHTO  H181 8132   6.440   3.696   7.267
   20CHTO   O61 8133   6.378   3.502   7.266
   20CHTO   C95 8134   6.361   3.488   7.408
   20CHTO  H182 8135   6.331   3.585   7.450
   20CHTO  C106 8136   6.244   3.388   7.435
   20CHTO   O69 8137   6.119   3.435   7.383
   20CHTO  H169 8138   6.091   3.510   7.433
   20CHTO   O63 8139   6.474   3.609   7.061
   20CHTO   C96 8140   6.492   3.469   6.986
   20CHTO  H183 8141   6.543   3.401   7.054
   20CHTO   C98 8142   6.579   3.480   6.856
   20CHTO  H185 8143   6.678   3.520   6.880
   20CHTO   O67 8144   6.602   3.346   6.808
   20CHTO  H167 8145   6.662   3.348   6.736
   20CHTO  C102 8146   6.505   3.565   6.741
   20CHTO  H189 8147   6.545   3.526   6.646
   20CHTO   N18 8148   6.537   3.710   6.742
   20CHTO  H176 8149   6.506   3.754   6.835
   20CHTO  H177 8150   6.488   3.759   6.659
   20CHTO  C105 8151   6.351   3.539   6.744
   20CHTO  H192 8152   6.301   3.620   6.796
   20CHTO   O65 8153   6.316   3.416   6.811
   20CHTO  C100 8154   6.347   3.411   6.952
   20CHTO  H187 8155   6.271   3.470   7.005
   20CHTO  C107 8156   6.330   3.263   6.995
   20CHTO   O70 8157   6.351   3.243   7.135
   20CHTO  H170 8158   6.441   3.258   7.156
   20CHTO   O57 8159   6.307   3.535   6.590
   20CHTO   C85 8160   6.172   3.568   6.552
   20CHTO  H157 8161   6.150   3.665   6.602
   20CHTO   C83 8162   6.072   3.464   6.612
   20CHTO  H155 8163   6.077   3.470   6.720
   20CHTO   O56 8164   6.115   3.331   6.575
   20CHTO  H135 8165   6.198   3.312   6.614
   20CHTO   C81 8166   5.927   3.499   6.567
   20CHTO  H153 8167   5.905   3.601   6.600
   20CHTO   N14 8168   5.824   3.416   6.634
   20CHTO  H141 8169   5.726   3.450   6.606
   20CHTO  H142 8170   5.834   3.422   6.740
   20CHTO   C79 8171   5.917   3.495   6.410
   20CHTO  H151 8172   5.817   3.529   6.384
   20CHTO   O52 8173   6.011   3.590   6.352
   20CHTO   C86 8174   6.151   3.576   6.394
   20CHTO  H158 8175   6.186   3.483   6.344
   20CHTO   C90 8176   6.232   3.692   6.331
   20CHTO   O60 8177   6.373   3.676   6.348
   20CHTO  H138 8178   6.403   3.603   6.296
   20CHTO   O50 8179   5.935   3.364   6.353
   20CHTO   C73 8180   5.914   3.307   6.222
   20CHTO  H145 8181   5.976   3.361   6.148
   20CHTO   C74 8182   5.764   3.318   6.179
   20CHTO  H146 8183   5.736   3.424   6.184
   20CHTO   O54 8184   5.756   3.280   6.040
   20CHTO  H133 8185   5.668   3.291   6.009
   20CHTO   C75 8186   5.675   3.229   6.275
   20CHTO  H147 8187   5.685   3.268   6.377
   20CHTO   N13 8188   5.530   3.233   6.243
   20CHTO  H139 8189   5.494   3.335   6.251
   20CHTO  H140 8190   5.475   3.172   6.313
   20CHTO   C76 8191   5.732   3.079   6.277
   20CHTO  H148 8192   5.722   3.038   6.176
   20CHTO   O49 8193   5.874   3.081   6.314
   20CHTO   C77 8194   5.957   3.157   6.224
   20CHTO  H149 8195   5.949   3.117   6.123
   20CHTO   C88 8196   6.103   3.138   6.266
   20CHTO   O58 8197   6.195   3.197   6.173
   20CHTO  H136 8198   6.193   3.150   6.092
   20CHTO   O51 8199   5.654   2.988   6.390
   20CHTO   C78 8200   5.721   2.845   6.416
   20CHTO  H150 8201   5.832   2.850   6.406
   20CHTO   C80 8202   5.668   2.737   6.319
   20CHTO  H152 8203   5.557   2.733   6.328
   20CHTO   O55 8204   5.701   2.779   6.185
   20CHTO  H134 8205   5.651   2.854   6.161
   20CHTO   C84 8206   5.730   2.595   6.351
   20CHTO  H156 8207   5.836   2.599   6.327
   20CHTO   N15 8208   5.672   2.485   6.266
   20CHTO  H143 8209   5.566   2.479   6.282
   20CHTO  H144 8210   5.691   2.504   6.163
   20CHTO   C87 8211   5.717   2.562   6.502
   20CHTO  H159 8212   5.613   2.539   6.526
   20CHTO   O53 8213   5.767   2.681   6.587
   20CHTO   C82 8214   5.691   2.800   6.560
   20CHTO  H154 8215   5.585   2.782   6.574
   20CHTO   C89 8216   5.731   2.909   6.663
   20CHTO   O59 8217   5.701   2.868   6.796
   20CHTO  H137 8218   5.730   2.934   6.857
   20CHTO   O45 8219   5.810   2.433   6.541
   20CHTO   C67 8220   5.805   2.399   6.680
   20CHTO  H124 8221   5.818   2.490   6.739
   20CHTO   C65 8222   5.668   2.333   6.720
   20CHTO  H122 8223   5.624   2.298   6.626
   20CHTO   O44 8224   5.586   2.438   6.773
   20CHTO  H102 8225   5.498   2.408   6.785
   20CHTO   C63 8226   5.686   2.203   6.807
   20CHTO  H120 8227   5.725   2.124   6.744
   20CHTO   N11 8228   5.558   2.141   6.856
   20CHTO  H108 8229   5.579   2.047   6.903
   20CHTO  H109 8230   5.511   2.206   6.927
   20CHTO   C61 8231   5.795   2.230   6.918
   20CHTO  H118 8232   5.812   2.133   6.967
   20CHTO   O40 8233   5.922   2.273   6.863
   20CHTO   C68 8234   5.927   2.306   6.721
   20CHTO  H125 8235   5.924   2.212   6.663
   20CHTO   C72 8236   6.064   2.372   6.692
   20CHTO   O48 8237   6.085   2.492   6.768
   20CHTO  H105 8238   6.171   2.526   6.749
   20CHTO   O38 8239   5.752   2.329   7.014
   20CHTO   C55 8240   5.826   2.338   7.137
   20CHTO  H112 8241   5.932   2.314   7.120
   20CHTO   C56 8242   5.760   2.242   7.246
   20CHTO  H113 8243   5.652   2.260   7.242
   20CHTO   O42 8244   5.781   2.105   7.207
   20CHTO  H100 8245   5.734   2.048   7.265
   20CHTO   C57 8246   5.816   2.269   7.392
   20CHTO  H114 8247   5.919   2.233   7.393
   20CHTO   N10 8248   5.742   2.195   7.497
   20CHTO  H106 8249   5.704   2.101   7.459
   20CHTO  H107 8250   5.807   2.174   7.581
   20CHTO   C58 8251   5.815   2.421   7.420
   20CHTO  H115 8252   5.710   2.458   7.423
   20CHTO   O37 8253   5.888   2.490   7.317
   20CHTO   C59 8254   5.824   2.485   7.188
   20CHTO  H116 8255   5.722   2.524   7.195
   20CHTO   C70 8256   5.905   2.578   7.096
   20CHTO   O46 8257   5.841   2.604   6.970
   20CHTO  H103 8258   5.836   2.525   6.920
   20CHTO   O39 8259   5.889   2.453   7.560
   20CHTO   C60 8260   5.886   2.591   7.598
   20CHTO  H117 8261   5.890   2.654   7.510
   20CHTO   C62 8262   5.756   2.626   7.677
   20CHTO  H119 8263   5.671   2.604   7.608
   20CHTO   O43 8264   5.745   2.540   7.792
   20CHTO  H101 8265   5.730   2.451   7.766
   20CHTO   C66 8266   5.754   2.782   7.714
   20CHTO  H123 8267   5.760   2.840   7.622
   20CHTO   N12 8268   5.628   2.824   7.780
   20CHTO  H110 8269   5.646   2.861   7.880
   20CHTO  H111 8270   5.555   2.744   7.781
   20CHTO   C69 8271   5.881   2.818   7.796
   20CHTO  H126 8272   5.878   2.766   7.895
   20CHTO   O41 8273   6.010   2.771   7.716
   20CHTO   C64 8274   6.012   2.625   7.684
   20CHTO  H121 8275   6.010   2.565   7.778
   20CHTO   C71 8276   6.144   2.594   7.609
   20CHTO   O47 8277   6.166   2.453   7.590
   20CHTO  H104 8278   6.179   2.412   7.673
   20CHTO   O34 8279   5.893   2.971   7.821
   20CHTO   C49 8280   5.910   3.121   7.819
   20CHTO   H91 8281   5.899   3.154   7.923
   20CHTO   C47 8282   5.801   3.187   7.732
   20CHTO   H89 8283   5.815   3.297   7.750
   20CHTO   O33 8284   5.669   3.152   7.777
   20CHTO   H70 8285   5.654   3.060   7.766
   20CHTO   C45 8286   5.820   3.151   7.575
   20CHTO   H87 8287   5.753   3.068   7.550
   20CHTO    N8 8288   5.778   3.270   7.496
   20CHTO   H75 8289   5.690   3.247   7.439
   20CHTO   H76 8290   5.857   3.302   7.430
   20CHTO   C43 8291   5.969   3.095   7.545
   20CHTO   H85 8292   5.967   2.991   7.577
   20CHTO   O29 8293   6.065   3.172   7.621
   20CHTO   C50 8294   6.049   3.167   7.764
   20CHTO   H92 8295   6.125   3.099   7.805
   20CHTO   C54 8296   6.086   3.305   7.825
   20CHTO   O36 8297   6.221   3.343   7.794
   20CHTO   H72 8298   6.238   3.427   7.830
   20CHTO   O27 8299   6.004   3.089   7.405
   20CHTO   C37 8300   5.985   3.016   7.283
   20CHTO   H79 8301   5.911   2.936   7.297
   20CHTO   C38 8302   5.931   3.110   7.171
   20CHTO   H80 8303   5.992   3.202   7.171
   20CHTO   O31 8304   5.795   3.146   7.204
   20CHTO   H68 8305   5.793   3.200   7.280
   20CHTO   C39 8306   5.934   3.045   7.027
   20CHTO   H81 8307   5.855   2.971   7.023
   20CHTO    N7 8308   5.905   3.145   6.918
   20CHTO   H73 8309   5.980   3.224   6.919
   20CHTO   H74 8310   5.903   3.096   6.822
   20CHTO   C40 8311   6.070   2.970   7.000
   20CHTO   H82 8312   6.151   3.041   6.981
   20CHTO   O26 8313   6.101   2.883   7.110
   20CHTO   C41 8314   6.119   2.952   7.236
   20CHTO   H83 8315   6.195   3.030   7.226
   20CHTO   C52 8316   6.171   2.848   7.338
   20CHTO   O35 8317   6.303   2.796   7.301
   20CHTO   H71 8318   6.332   2.735   7.366
   20CHTO   O28 8319   6.060   2.880   6.888
   20CHTO   C42 8320   6.175   2.847   6.802
   20CHTO   H84 8321   6.137   2.767   6.739
   20CHTO   C44 8322   6.302   2.791   6.873
   20CHTO   H86 8323   6.339   2.866   6.943
   20CHTO   O32 8324   6.260   2.675   6.947
   20CHTO   H69 8325   6.332   2.642   6.998
   20CHTO   C48 8326   6.418   2.759   6.769
   20CHTO   H90 8327   6.384   2.678   6.704
   20CHTO    N9 8328   6.543   2.709   6.835
   20CHTO   H77 8329   6.581   2.783   6.904
   20CHTO   H78 8330   6.523   2.616   6.887
   20CHTO   C51 8331   6.444   2.886   6.679
   20CHTO   H93 8332   6.482   2.967   6.743
   20CHTO   O30 8333   6.321   2.922   6.615
   20CHTO   C46 8334   6.214   2.965   6.708
   20CHTO   H88 8335   6.252   3.048   6.768
   20CHTO   C53 8336   6.096   3.013   6.622
   20CHTO   O72 8337   6.049   2.912   6.531
   20CHTO  H199 8338   6.009   2.842   6.579
   20CHTO   O22 8339   6.535   2.862   6.570
   20CHTO   C31 8340   6.607   2.972   6.501
   20CHTO   H59 8341   6.652   2.925   6.411
   20CHTO   C29 8342   6.518   3.088   6.451
   20CHTO   H57 8343   6.465   3.129   6.538
   20CHTO   O21 8344   6.418   3.032   6.363
   20CHTO   H37 8345   6.354   3.098   6.342
   20CHTO   C27 8346   6.600   3.204   6.382
   20CHTO   H55 8347   6.642   3.165   6.288
   20CHTO    N5 8348   6.516   3.322   6.350
   20CHTO   H43 8349   6.433   3.293   6.288
   20CHTO   H44 8350   6.575   3.397   6.300
   20CHTO   C25 8351   6.722   3.243   6.473
   20CHTO   H53 8352   6.684   3.290   6.565
   20CHTO   O17 8353   6.800   3.126   6.509
   20CHTO   C32 8354   6.726   3.028   6.584
   20CHTO   H60 8355   6.687   3.074   6.675
   20CHTO   C36 8356   6.824   2.916   6.628
   20CHTO   O25 8357   6.884   2.847   6.517
   20CHTO   H40 8358   6.940   2.905   6.469
   20CHTO   O15 8359   6.817   3.344   6.400
   20CHTO   C19 8360   6.922   3.432   6.448
   20CHTO   H47 8361   6.948   3.492   6.360
   20CHTO   C20 8362   6.876   3.528   6.562
   20CHTO   H48 8363   6.834   3.473   6.648
   20CHTO   O19 8364   6.771   3.610   6.507
   20CHTO   H35 8365   6.734   3.664   6.574
   20CHTO   C21 8366   6.994   3.620   6.616
   20CHTO   H49 8367   7.015   3.696   6.541
   20CHTO    N4 8368   6.959   3.693   6.740
   20CHTO   H41 8369   6.933   3.623   6.818
   20CHTO   H42 8370   6.874   3.758   6.722
   20CHTO   C22 8371   7.126   3.539   6.632
   20CHTO   H50 8372   7.118   3.476   6.721
   20CHTO   O14 8373   7.151   3.456   6.517
   20CHTO   C23 8374   7.051   3.358   6.490
   20CHTO   H51 8375   7.037   3.297   6.581
   20CHTO   C34 8376   7.103   3.267   6.378
   20CHTO   O23 8377   7.219   3.193   6.419
   20CHTO   H38 8378   7.195   3.129   6.484
   20CHTO   O16 8379   7.241   3.625   6.642
   20CHTO   C24 8380   7.374   3.542   6.688
   20CHTO   H52 8381   7.356   3.434   6.689
   20CHTO   C26 8382   7.419   3.587   6.827
   20CHTO   H54 8383   7.450   3.695   6.821
   20CHTO   O20 8384   7.308   3.576   6.918
   20CHTO   H36 8385   7.243   3.640   6.898
   20CHTO   C30 8386   7.541   3.502   6.874
   20CHTO   H58 8387   7.504   3.401   6.897
   20CHTO    N6 8388   7.599   3.552   7.001
   20CHTO   H45 8389   7.637   3.652   6.988
   20CHTO   H46 8390   7.679   3.488   7.034
   20CHTO   C33 8391   7.651   3.483   6.764
   20CHTO   H61 8392   7.726   3.563   6.772
   20CHTO   O18 8393   7.600   3.483   6.629
   20CHTO   C28 8394   7.490   3.566   6.589
   20CHTO   H56 8395   7.518   3.672   6.592
   20CHTO   C35 8396   7.450   3.527   6.446
   20CHTO   O24 8397   7.553   3.547   6.349
   20CHTO   H39 8398   7.623   3.488   6.365
   20CHTO    O9 8399   7.722   3.361   6.794
   20CHTO   C13 8400   7.783   3.260   6.667
   20CHTO   H26 8401   7.860   3.319   6.612
   20CHTO   C11 8402   7.667   3.210   6.570
   20CHTO   H24 8403   7.643   3.291   6.500
   20CHTO    O8 8404   7.548   3.182   6.648
   20CHTO    H3 8405   7.564   3.111   6.707
   20CHTO    C9 8406   7.716   3.088   6.488
   20CHTO   H22 8407   7.810   3.121   6.441
   20CHTO    N2 8408   7.628   3.055   6.373
   20CHTO   H10 8409   7.533   3.018   6.409
   20CHTO   H11 8410   7.676   2.981   6.311
   20CHTO    C7 8411   7.749   2.968   6.586
   20CHTO   H20 8412   7.838   2.920   6.540
   20CHTO    O4 8413   7.783   3.013   6.719
   20CHTO   C14 8414   7.861   3.134   6.728
   20CHTO   H27 8415   7.955   3.118   6.670
   20CHTO   C18 8416   7.902   3.152   6.876
   20CHTO   O13 8417   7.991   3.263   6.893
   20CHTO    H7 8418   8.074   3.244   6.855
   20CHTO    O2 8419   7.622   2.850   6.594
   20CHTO    C1 8420   7.561   2.825   6.722
   20CHTO   H14 8421   7.573   2.913   6.788
   20CHTO    C2 8422   7.621   2.698   6.795
   20CHTO   H15 8423   7.617   2.616   6.722
   20CHTO    O6 8424   7.759   2.725   6.828
   20CHTO    H1 8425   7.799   2.647   6.863
   20CHTO    C3 8426   7.537   2.660   6.927
   20CHTO   H16 8427   7.562   2.733   7.006
   20CHTO    N1 8428   7.575   2.525   6.980
   20CHTO    H8 8429   7.680   2.524   7.006
   20CHTO    H9 8430   7.556   2.449   6.905
   20CHTO    C4 8431   7.381   2.673   6.905
   20CHTO   H17 8432   7.345   2.585   6.851
   20CHTO    O1 8433   7.347   2.792   6.833
   20CHTO    C5 8434   7.408   2.803   6.704
   20CHTO   H18 8435   7.394   2.711   6.647
   20CHTO   C16 8436   7.340   2.920   6.628
   20CHTO   O11 8437   7.203   2.892   6.601
   20CHTO    H5 8438   7.196   2.824   6.537
   20CHTO    O3 8439   7.313   2.689   7.031
   20CHTO    C6 8440   7.189   2.612   7.050
   20CHTO   H19 8441   7.166   2.546   6.966
   20CHTO    C8 8442   7.201   2.523   7.179
   20CHTO   H21 8443   7.231   2.587   7.262
   20CHTO    O7 8444   7.305   2.426   7.153
   20CHTO    H2 8445   7.323   2.377   7.231
   20CHTO   C12 8446   7.063   2.453   7.214
   20CHTO   H25 8447   7.045   2.379   7.134
   20CHTO    N3 8448   7.072   2.378   7.343
   20CHTO   H12 8449   7.095   2.445   7.424
   20CHTO   H13 8450   6.979   2.326   7.362
   20CHTO   C15 8451   6.947   2.559   7.212
   20CHTO   H28 8452   6.955   2.628   7.296
   20CHTO   O10 8453   6.806   2.492   7.211
   20CHTO    H4 8454   6.740   2.558   7.221
   20CHTO    O5 8455   6.947   2.633   7.089
   20CHTO   C10 8456   7.067   2.708   7.067
   20CHTO   H23 8457   7.083   2.774   7.152
   20CHTO   C17 8458   7.044   2.799   6.945
   20CHTO   O12 8459   7.020   2.724   6.826
   20CHTO    H6 8460   7.005   2.782   6.754
   21GLOH   H03 8461   7.129   6.585   7.145
   21GLOH    O1 8462   7.112   6.488   7.126
   21GLOH    C1 8463   7.023   6.433   7.225
   21GLOH   H02 8464   6.924   6.479   7.219
   21GLOH   H08 8465   7.061   6.451   7.325
   21GLOH    C2 8466   7.008   6.281   7.204
   21GLOH   H04 8467   7.108   6.236   7.213
   21GLOH    O2 8468   6.923   6.223   7.304
   21GLOH   H05 8469   6.976   6.219   7.389
   21GLOH    C3 8470   6.959   6.250   7.061
   21GLOH   H06 8471   6.855   6.284   7.051
   21GLOH   H07 8472   6.960   6.143   7.046
   21GLOH    O3 8473   7.043   6.315   6.964
   21GLOH   H01 8474   7.080   6.394   7.015
   22GLOH   H03 8475   1.248   9.728   4.394
   22GLOH    O1 8476   1.260   9.676   4.311
   22GLOH    C1 8477   1.135   9.614   4.274
   22GLOH   H02 8478   1.141   9.577   4.171
   22GLOH   H08 8479   1.055   9.687   4.276
   22GLOH    C2 8480   1.095   9.496   4.365
   22GLOH   H04 8481   1.180   9.426   4.368
   22GLOH    O2 8482   1.064   9.537   4.500
   22GLOH   H05 8483   1.124   9.611   4.527
   22GLOH    C3 8484   0.976   9.421   4.302
   22GLOH   H06 8485   0.947   9.340   4.368
   22GLOH   H07 8486   1.010   9.375   4.209
   22GLOH    O3 8487   0.865   9.508   4.276
   22GLOH   H01 8488   0.800   9.460   4.218
   23GLOH   H03 8489   7.902   7.549   4.074
   23GLOH    O1 8490   7.831   7.516   4.137
   23GLOH    C1 8491   7.763   7.403   4.079
   23GLOH   H02 8492   7.829   7.316   4.077
   23GLOH   H08 8493   7.735   7.424   3.976
   23GLOH    C2 8494   7.635   7.365   4.157
   23GLOH   H04 8495   7.667   7.344   4.260
   23GLOH    O2 8496   7.540   7.474   4.161
   23GLOH   H05 8497   7.554   7.520   4.250
   23GLOH    C3 8498   7.571   7.237   4.102
   23GLOH   H06 8499   7.563   7.246   3.993
   23GLOH   H07 8500   7.470   7.229   4.140
   23GLOH    O3 8501   7.646   7.119   4.136
   23GLOH   H01 8502   7.625   7.097   4.231
   24GLOH   H03 8503   0.649   3.655   4.532
   24GLOH    O1 8504   0.556   3.638   4.561
   24GLOH    C1 8505   0.550   3.511   4.629
   24GLOH   H02 8506   0.454   3.500   4.679
   24GLOH   H08 8507   0.626   3.506   4.707
   24GLOH    C2 8508   0.569   3.390   4.535
   24GLOH   H04 8509   0.657   3.409   4.473
   24GLOH    O2 8510   0.592   3.268   4.609
   24GLOH   H05 8511   0.589   3.191   4.544
   24GLOH    C3 8512   0.446   3.375   4.441
   24GLOH   H06 8513   0.357   3.369   4.503
   24GLOH   H07 8514   0.454   3.280   4.389
   24GLOH    O3 8515   0.434   3.482   4.346
   24GLOH   H01 8516   0.523   3.498   4.307
   25GLOH   H03 8517   5.384   5.373   2.102
   25GLOH    O1 8518   5.379   5.413   2.193
   25GLOH    C1 8519   5.261   5.496   2.202
   25GLOH   H02 8520   5.171   5.437   2.180
   25GLOH   H08 8521   5.265   5.577   2.130
   25GLOH    C2 8522   5.246   5.556   2.343
   25GLOH   H04 8523   5.334   5.620   2.363
   25GLOH    O2 8524   5.127   5.636   2.351
   25GLOH   H05 8525   5.136   5.703   2.426
   25GLOH    C3 8526   5.242   5.444   2.449
   25GLOH   H06 8527   5.148   5.390   2.440
   25GLOH   H07 8528   5.244   5.490   2.548
   25GLOH    O3 8529   5.354   5.355   2.433
   25GLOH   H01 8530   5.383   5.367   2.338
   26GLOH   H03 8531   7.485   3.281   7.468
   26GLOH    O1 8532   7.582   3.268   7.447
   26GLOH    C1 8533   7.646   3.204   7.560
   26GLOH   H02 8534   7.743   3.164   7.530
   26GLOH   H08 8535   7.587   3.119   7.594
   26GLOH    C2 8536   7.667   3.299   7.679
   26GLOH   H04 8537   7.704   3.395   7.640
   26GLOH    O2 8538   7.545   3.324   7.752
   26GLOH   H05 8539   7.525   3.423   7.747
   26GLOH    C3 8540   7.776   3.244   7.773
   26GLOH   H06 8541   7.750   3.141   7.800
   26GLOH   H07 8542   7.775   3.302   7.865
   26GLOH    O3 8543   7.906   3.248   7.712
   26GLOH   H01 8544   7.930   3.345   7.707
   27GLOH   H03 8545   2.479   2.170   6.749
   27GLOH    O1 8546   2.397   2.205   6.792
   27GLOH    C1 8547   2.406   2.349   6.795
   27GLOH   H02 8548   2.469   2.384   6.713
   27GLOH   H08 8549   2.454   2.382   6.887
   27GLOH    C2 8550   2.270   2.420   6.782
   27GLOH   H04 8551   2.224   2.392   6.686
   27GLOH    O2 8552   2.180   2.384   6.889
   27GLOH   H05 8553   2.197   2.289   6.915
   27GLOH    C3 8554   2.290   2.573   6.784
   27GLOH   H06 8555   2.329   2.602   6.882
   27GLOH   H07 8556   2.192   2.620   6.774
   27GLOH    O3 8557   2.378   2.620   6.681
   27GLOH   H01 8558   2.455   2.665   6.724
   28GLOH   H03 8559   7.393   9.290   8.528
   28GLOH    O1 8560   7.385   9.228   8.451
   28GLOH    C1 8561   7.266   9.151   8.469
   28GLOH   H02 8562   7.287   9.062   8.529
   28GLOH   H08 8563   7.229   9.116   8.373
   28GLOH    C2 8564   7.154   9.231   8.539
   28GLOH   H04 8565   7.129   9.318   8.476
   28GLOH    O2 8566   7.037   9.150   8.556
   28GLOH   H05 8567   6.966   9.181   8.494
   28GLOH    C3 8568   7.203   9.282   8.676
   28GLOH   H06 8569   7.219   9.195   8.740
   28GLOH   H07 8570   7.123   9.340   8.721
   28GLOH    O3 8571   7.324   9.360   8.666
   28GLOH   H01 8572   7.337   9.409   8.750
   29GLOH   H03 8573   4.303   3.682   4.309
   29GLOH    O1 8574   4.382   3.691   4.368
   29GLOH    C1 8575   4.385   3.823   4.424
   29GLOH   H02 8576   4.395   3.897   4.343
   29GLOH   H08 8577   4.473   3.835   4.487
   29GLOH    C2 8578   4.260   3.858   4.507
   29GLOH   H04 8579   4.173   3.851   4.441
   29GLOH    O2 8580   4.243   3.767   4.618
   29GLOH   H05 8581   4.222   3.676   4.581
   29GLOH    C3 8582   4.270   4.004   4.558
   29GLOH   H06 8583   4.358   4.012   4.621
   29GLOH   H07 8584   4.184   4.024   4.622
   29GLOH    O3 8585   4.276   4.101   4.452
   29GLOH   H01 8586   4.184   4.122   4.420
   30GLOH   H03 8587   6.739   8.984   5.104
   30GLOH    O1 8588   6.809   8.942   5.047
   30GLOH    C1 8589   6.755   8.822   4.988
   30GLOH   H02 8590   6.648   8.814   5.010
   30GLOH   H08 8591   6.803   8.734   5.031
   30GLOH    C2 8592   6.773   8.818   4.834
   30GLOH   H04 8593   6.728   8.910   4.793
   30GLOH    O2 8594   6.911   8.812   4.794
   30GLOH   H05 8595   6.964   8.877   4.850
   30GLOH    C3 8596   6.695   8.698   4.776
   30GLOH   H06 8597   6.726   8.608   4.830
   30GLOH   H07 8598   6.725   8.685   4.672
   30GLOH    O3 8599   6.553   8.715   4.786
   30GLOH   H01 8600   6.522   8.677   4.873
   31GLOH   H03 8601   1.535   9.185   6.309
   31GLOH    O1 8602   1.463   9.150   6.253
   31GLOH    C1 8603   1.518   9.088   6.135
   31GLOH   H02 8604   1.451   9.010   6.099
   31GLOH   H08 8605   1.613   9.039   6.159
   31GLOH    C2 8606   1.543   9.189   6.021
   31GLOH   H04 8607   1.451   9.248   6.009
   31GLOH    O2 8608   1.651   9.280   6.052
   31GLOH   H05 8609   1.624   9.335   6.132
   31GLOH    C3 8610   1.568   9.114   5.889
   31GLOH   H06 8611   1.649   9.044   5.904
   31GLOH   H07 8612   1.600   9.186   5.813
   31GLOH    O3 8613   1.449   9.046   5.844
   31GLOH   H01 8614   1.467   9.000   5.758
   32GLOH   H03 8615   6.594   5.574   0.514
   32GLOH    O1 8616   6.538   5.642   0.468
   32GLOH    C1 8617   6.583   5.653   0.332
   32GLOH   H02 8618   6.564   5.560   0.278
   32GLOH   H08 8619   6.691   5.670   0.329
   32GLOH    C2 8620   6.513   5.768   0.257
   32GLOH   H04 8621   6.519   5.858   0.319
   32GLOH    O2 8622   6.578   5.795   0.131
   32GLOH   H05 8623   6.517   5.854   0.081
   32GLOH    C3 8624   6.364   5.735   0.233
   32GLOH   H06 8625   6.322   5.692   0.324
   32GLOH   H07 8626   6.358   5.657   0.156
   32GLOH    O3 8627   6.290   5.852   0.193
   32GLOH   H01 8628   6.198   5.828   0.168
   33GLOH   H03 8629   4.741   4.009   6.128
   33GLOH    O1 8630   4.729   4.036   6.032
   33GLOH    C1 8631   4.824   3.963   5.951
   33GLOH   H02 8632   4.826   4.004   5.850
   33GLOH   H08 8633   4.791   3.859   5.942
   33GLOH    C2 8634   4.967   3.965   6.008
   33GLOH   H04 8635   4.962   3.955   6.118
   33GLOH    O2 8636   5.043   3.855   5.954
   33GLOH   H05 8637   5.123   3.841   6.012
   33GLOH    C3 8638   5.041   4.096   5.975
   33GLOH   H06 8639   5.060   4.098   5.868
   33GLOH   H07 8640   5.138   4.093   6.024
   33GLOH    O3 8641   4.971   4.216   6.013
   33GLOH   H01 8642   4.944   4.214   6.108
   34GLOH   H03 8643   7.609   1.925  10.009
   34GLOH    O1 8644   7.615   1.929   0.026
   34GLOH    C1 8645   7.568   1.801   0.074
   34GLOH   H02 8646   7.459   1.803   0.085
   34GLOH   H08 8647   7.609   1.780   0.173
   34GLOH    C2 8648   7.606   1.686  10.061
   34GLOH   H04 8649   7.716   1.678  10.058
   34GLOH    O2 8650   7.550   1.561   0.026
   34GLOH   H05 8651   7.609   1.522   0.097
   34GLOH    C3 8652   7.555   1.716   9.918
   34GLOH   H06 8653   7.446   1.712   9.919
   34GLOH   H07 8654   7.590   1.636   9.853
   34GLOH    O3 8655   7.600   1.844   9.869
   34GLOH   H01 8656   7.590   1.846   9.772
   35GLOH   H03 8657   1.423   3.583   1.276
   35GLOH    O1 8658   1.474   3.501   1.251
   35GLOH    C1 8659   1.405   3.383   1.296
   35GLOH   H02 8660   1.476   3.300   1.307
   35GLOH   H08 8661   1.332   3.351   1.221
   35GLOH    C2 8662   1.333   3.402   1.430
   35GLOH   H04 8663   1.258   3.481   1.414
   35GLOH    O2 8664   1.261   3.283   1.469
   35GLOH   H05 8665   1.164   3.304   1.460
   35GLOH    C3 8666   1.430   3.455   1.538
   35GLOH   H06 8667   1.372   3.471   1.629
   35GLOH   H07 8668   1.466   3.553   1.507
   35GLOH    O3 8669   1.543   3.369   1.567
   35GLOH   H01 8670   1.612   3.374   1.496
   36GLOH   H03 8671   5.244   8.968   6.734
   36GLOH    O1 8672   5.199   8.923   6.658
   36GLOH    C1 8673   5.244   8.787   6.648
   36GLOH   H02 8674   5.169   8.719   6.689
   36GLOH   H08 8675   5.335   8.771   6.705
   36GLOH    C2 8676   5.272   8.747   6.502
   36GLOH   H04 8677   5.184   8.773   6.442
   36GLOH    O2 8678   5.385   8.820   6.450
   36GLOH   H05 8679   5.350   8.909   6.417
   36GLOH    C3 8680   5.295   8.595   6.488
   36GLOH   H06 8681   5.381   8.568   6.549
   36GLOH   H07 8682   5.321   8.573   6.385
   36GLOH    O3 8683   5.180   8.519   6.528
   36GLOH   H01 8684   5.100   8.552   6.480
   37GLOH   H03 8685   6.403   4.479   9.960
   37GLOH    O1 8686   6.327   4.452  10.017
   37GLOH    C1 8687   6.299   4.560   0.028
   37GLOH   H02 8688   6.277   4.652  10.055
   37GLOH   H08 8689   6.385   4.581   0.091
   37GLOH    C2 8690   6.179   4.527   0.119
   37GLOH   H04 8691   6.198   4.431   0.169
   37GLOH    O2 8692   6.163   4.630   0.219
   37GLOH   H05 8693   6.117   4.590   0.298
   37GLOH    C3 8694   6.052   4.514   0.034
   37GLOH   H06 8695   6.030   4.611  10.069
   37GLOH   H07 8696   5.968   4.490   0.099
   37GLOH    O3 8697   6.069   4.413  10.015
   37GLOH   H01 8698   6.165   4.415   9.990
   38GLOH   H03 8699   0.652   8.350   5.993
   38GLOH    O1 8700   0.568   8.302   5.976
   38GLOH    C1 8701   0.558   8.288   5.833
   38GLOH   H02 8702   0.538   8.384   5.786
   38GLOH   H08 8703   0.475   8.222   5.807
   38GLOH    C2 8704   0.688   8.230   5.773
   38GLOH   H04 8705   0.712   8.135   5.824
   38GLOH    O2 8706   0.670   8.204   5.632
   38GLOH   H05 8707   0.599   8.134   5.619
   38GLOH    C3 8708   0.804   8.328   5.794
   38GLOH   H06 8709   0.786   8.416   5.732
   38GLOH   H07 8710   0.895   8.282   5.755
   38GLOH    O3 8711   0.823   8.367   5.931
   38GLOH   H01 8712   0.879   8.449   5.926
   39GLOH   H03 8713   8.468   3.352   6.320
   39GLOH    O1 8714   8.505   3.327   6.230
   39GLOH    C1 8715   8.577   3.442   6.182
   39GLOH   H02 8716   8.621   3.422   6.084
   39GLOH   H08 8717   8.660   3.465   6.250
   39GLOH    C2 8718   8.487   3.567   6.171
   39GLOH   H04 8719   8.441   3.582   6.269
   39GLOH    O2 8720   8.564   3.685   6.138
   39GLOH   H05 8721   8.598   3.725   6.222
   39GLOH    C3 8722   8.372   3.541   6.071
   39GLOH   H06 8723   8.313   3.458   6.109
   39GLOH   H07 8724   8.416   3.508   5.977
   39GLOH    O3 8725   8.288   3.656   6.050
   39GLOH   H01 8726   8.274   3.701   6.138
   40GLOH   H03 8727   1.343   7.117   2.576
   40GLOH    O1 8728   1.398   7.189   2.533
   40GLOH    C1 8729   1.375   7.186   2.390
   40GLOH   H02 8730   1.409   7.279   2.345
   40GLOH   H08 8731   1.268   7.178   2.369
   40GLOH    C2 8732   1.447   7.069   2.319
   40GLOH   H04 8733   1.415   6.975   2.367
   40GLOH    O2 8734   1.411   7.064   2.180
   40GLOH   H05 8735   1.428   6.971   2.147
   40GLOH    C3 8736   1.600   7.081   2.333
   40GLOH   H06 8737   1.629   7.179   2.295
   40GLOH   H07 8738   1.646   7.008   2.267
   40GLOH    O3 8739   1.646   7.064   2.468
   40GLOH   H01 8740   1.620   7.143   2.521
   41GLOH   H03 8741   8.514   6.776   5.055
   41GLOH    O1 8742   8.565   6.731   4.982
   41GLOH    C1 8743   8.584   6.825   4.874
   41GLOH   H02 8744   8.690   6.846   4.862
   41GLOH   H08 8745   8.536   6.921   4.897
   41GLOH    C2 8746   8.530   6.774   4.740
   41GLOH   H04 8747   8.424   6.748   4.755
   41GLOH    O2 8748   8.536   6.874   4.637
   41GLOH   H05 8749   8.620   6.928   4.650
   41GLOH    C3 8750   8.603   6.645   4.697
   41GLOH   H06 8751   8.568   6.618   4.597
   41GLOH   H07 8752   8.571   6.566   4.763
   41GLOH    O3 8753   8.747   6.656   4.698
   41GLOH   H01 8754   8.780   6.643   4.605
   42GLOH   H03 8755   5.165   9.807   4.441
   42GLOH    O1 8756   5.208   9.797   4.352
   42GLOH    C1 8757   5.196   9.922   4.281
   42GLOH   H02 8758   5.103   9.972   4.307
   42GLOH   H08 8759   5.191   9.902   4.174
   42GLOH    C2 8760   5.313   0.020   4.306
   42GLOH   H04 8761   5.296   0.107   4.241
   42GLOH    O2 8762   5.320   0.067   4.443
   42GLOH   H05 8763   5.400   0.027   4.488
   42GLOH    C3 8764   5.446   9.956   4.262
   42GLOH   H06 8765   5.458   9.862   4.316
   42GLOH   H07 8766   5.528   0.021   4.292
   42GLOH    O3 8767   5.451   9.932   4.120
   42GLOH   H01 8768   5.422   9.839   4.102
   43GLOH   H03 8769   5.808   0.985   9.409
   43GLOH    O1 8770   5.790   0.970   9.313
   43GLOH    C1 8771   5.647   0.972   9.297
   43GLOH   H02 8772   5.607   0.870   9.304
   43GLOH   H08 8773   5.621   1.009   9.198
   43GLOH    C2 8774   5.577   1.060   9.402
   43GLOH   H04 8775   5.610   1.164   9.387
   43GLOH    O2 8776   5.434   1.053   9.389
   43GLOH   H05 8777   5.404   1.109   9.316
   43GLOH    C3 8778   5.621   1.016   9.544
   43GLOH   H06 8779   5.585   0.915   9.560
   43GLOH   H07 8780   5.570   1.080   9.616
   43GLOH    O3 8781   5.763   1.024   9.562
   43GLOH   H01 8782   5.784   1.018   9.657
   44GLOH   H03 8783   0.940   2.733   0.159
   44GLOH    O1 8784   0.944   2.816   0.104
   44GLOH    C1 8785   1.075   2.875   0.120
   44GLOH   H02 8786   1.152   2.806   0.089
   44GLOH   H08 8787   1.093   2.898   0.225
   44GLOH    C2 8788   1.091   3.006   0.039
   44GLOH   H04 8789   1.018   3.079   0.077
   44GLOH    O2 8790   1.224   3.058   0.057
   44GLOH   H05 8791   1.221   3.123   0.133
   44GLOH    C3 8792   1.061   2.981   9.972
   44GLOH   H06 8793   1.138   2.917   9.930
   44GLOH   H07 8794   1.067   3.077   9.919
   44GLOH    O3 8795   0.931   2.923   9.955
   44GLOH   H01 8796   0.913   2.874  10.039
   45GLOH   H03 8797   5.949   5.889   1.833
   45GLOH    O1 8798   6.006   5.957   1.880
   45GLOH    C1 8799   6.085   5.891   1.981
   45GLOH   H02 8800   6.165   5.957   2.013
   45GLOH   H08 8801   6.131   5.801   1.941
   45GLOH    C2 8802   6.002   5.851   2.105
   45GLOH   H04 8803   5.926   5.778   2.073
   45GLOH    O2 8804   6.087   5.791   2.205
   45GLOH   H05 8805   6.032   5.720   2.250
   45GLOH    C3 8806   5.927   5.973   2.162
   45GLOH   H06 8807   6.000   6.047   2.195
   45GLOH   H07 8808   5.871   5.942   2.251
   45GLOH    O3 8809   5.839   6.031   2.065
   45GLOH   H01 8810   5.892   6.035   1.981
   46GLOH   H03 8811   9.385   3.915   7.889
   46GLOH    O1 8812   9.361   3.970   7.968
   46GLOH    C1 8813   9.485   4.009   8.031
   46GLOH   H02 8814   9.517   3.931   8.101
   46GLOH   H08 8815   9.470   4.100   8.089
   46GLOH    C2 8816   9.598   4.033   7.929
   46GLOH   H04 8817   9.567   4.118   7.866
   46GLOH    O2 8818   9.721   4.067   7.996
   46GLOH   H05 8819   9.741   4.002   8.066
   46GLOH    C3 8820   9.617   3.910   7.838
   46GLOH   H06 8821   9.657   3.829   7.899
   46GLOH   H07 8822   9.693   3.934   7.764
   46GLOH    O3 8823   9.495   3.867   7.773
   46GLOH   H01 8824   9.512   3.774   7.740
   47GLOH   H03 8825   9.599   6.002   9.570
   47GLOH    O1 8826   9.696   5.988   9.567
   47GLOH    C1 8827   9.744   6.030   9.438
   47GLOH   H02 8828   9.746   5.945   9.369
   47GLOH   H08 8829   9.846   6.067   9.446
   47GLOH    C2 8830   9.657   6.142   9.376
   47GLOH   H04 8831   9.666   6.231   9.440
   47GLOH    O2 8832   9.704   6.176   9.244
   47GLOH   H05 8833   9.728   6.097   9.193
   47GLOH    C3 8834   9.509   6.100   9.372
   47GLOH   H06 8835   9.499   6.016   9.303
   47GLOH   H07 8836   9.451   6.182   9.330
   47GLOH    O3 8837   9.458   6.064   9.502
   47GLOH   H01 8838   9.368   6.100   9.513
   48GLOH   H03 8839   0.701   7.369   0.842
   48GLOH    O1 8840   0.617   7.401   0.798
   48GLOH    C1 8841   0.603   7.329   0.674
   48GLOH   H02 8842   0.504   7.346   0.632
   48GLOH   H08 8843   0.610   7.221   0.693
   48GLOH    C2 8844   0.708   7.367   0.569
   48GLOH   H04 8845   0.710   7.476   0.562
   48GLOH    O2 8846   0.841   7.321   0.604
   48GLOH   H05 8847   0.899   7.402   0.616
   48GLOH    C3 8848   0.666   7.313   0.431
   48GLOH   H06 8849   0.749   7.329   0.362
   48GLOH   H07 8850   0.584   7.375   0.395
   48GLOH    O3 8851   0.629   7.174   0.433
   48GLOH   H01 8852   0.712   7.122   0.419
   49GLOH   H03 8853   4.594   8.977   9.704
   49GLOH    O1 8854   4.570   8.904   9.764
   49GLOH    C1 8855   4.584   8.947   9.901
   49GLOH   H02 8856   4.542   9.046   9.915
   49GLOH   H08 8857   4.690   8.953   9.928
   49GLOH    C2 8858   4.514   8.849   9.998
   49GLOH   H04 8859   4.406   8.853   9.978
   49GLOH    O2 8860   4.563   8.716   9.975
   49GLOH   H05 8861   4.568   8.706   9.877
   49GLOH    C3 8862   4.538   8.892   0.062
   49GLOH   H06 8863   4.645   8.888   0.082
   49GLOH   H07 8864   4.490   8.819   0.128
   49GLOH    O3 8865   4.488   9.025   0.090
   49GLOH   H01 8866   4.388   9.022   0.082
   50GLOH   H03 8867   3.121   8.763   1.251
   50GLOH    O1 8868   3.038   8.731   1.206
   50GLOH    C1 8869   2.928   8.734   1.297
   50GLOH   H02 8870   2.839   8.695   1.247
   50GLOH   H08 8871   2.905   8.836   1.326
   50GLOH    C2 8872   2.950   8.651   1.426
   50GLOH   H04 8873   2.981   8.549   1.395
   50GLOH    O2 8874   3.054   8.706   1.510
   50GLOH   H05 8875   3.056   8.806   1.499
   50GLOH    C3 8876   2.819   8.638   1.504
   50GLOH   H06 8877   2.787   8.738   1.533
   50GLOH   H07 8878   2.839   8.584   1.597
   50GLOH    O3 8879   2.716   8.572   1.429
   50GLOH   H01 8880   2.635   8.630   1.433
   51GLOH   H03 8881   1.426   0.499   3.782
   51GLOH    O1 8882   1.472   0.580   3.818
   51GLOH    C1 8883   1.476   0.572   3.962
   51GLOH   H02 8884   1.513   0.475   3.994
   51GLOH   H08 8885   1.376   0.584   4.004
   51GLOH    C2 8886   1.567   0.681   4.022
   51GLOH   H04 8887   1.529   0.779   3.990
   51GLOH    O2 8888   1.567   0.678   4.167
   51GLOH   H05 8889   1.491   0.734   4.198
   51GLOH    C3 8890   1.710   0.667   3.967
   51GLOH   H06 8891   1.749   0.570   3.997
   51GLOH   H07 8892   1.774   0.743   4.012
   51GLOH    O3 8893   1.708   0.680   3.824
   51GLOH   H01 8894   1.622   0.639   3.796
   52GLOH   H03 8895   5.749   9.363   8.113
   52GLOH    O1 8896   5.825   9.414   8.078
   52GLOH    C1 8897   5.861   9.355   7.952
   52GLOH   H02 8898   5.944   9.410   7.907
   52GLOH   H08 8899   5.778   9.361   7.881
   52GLOH    C2 8900   5.902   9.207   7.966
   52GLOH   H04 8901   5.983   9.201   8.040
   52GLOH    O2 8902   5.791   9.127   8.013
   52GLOH   H05 8903   5.715   9.123   7.949
   52GLOH    C3 8904   5.958   9.155   7.832
   52GLOH   H06 8905   5.882   9.172   7.755
   52GLOH   H07 8906   5.972   9.047   7.840
   52GLOH    O3 8907   6.081   9.221   7.794
   52GLOH   H01 8908   6.148   9.200   7.862
   53GLOH   H03 8909   5.027   0.532   2.771
   53GLOH    O1 8910   5.117   0.558   2.805
   53GLOH    C1 8911   5.113   0.541   2.949
   53GLOH   H02 8912   5.069   0.445   2.974
   53GLOH   H08 8913   5.050   0.618   2.994
   53GLOH    C2 8914   5.253   0.550   3.013
   53GLOH   H04 8915   5.290   0.653   3.000
   53GLOH    O2 8916   5.249   0.520   3.154
   53GLOH   H05 8917   5.168   0.466   3.177
   53GLOH    C3 8918   5.352   0.457   2.942
   53GLOH   H06 8919   5.324   0.354   2.965
   53GLOH   H07 8920   5.452   0.473   2.984
   53GLOH    O3 8921   5.355   0.478   2.799
   53GLOH   H01 8922   5.263   0.511   2.780
   54GLOH   H03 8923   9.698   5.154   8.921
   54GLOH    O1 8924   9.756   5.108   8.985
   54GLOH    C1 8925   9.874   5.062   8.918
   54GLOH   H02 8926   9.939   5.147   8.893
   54GLOH   H08 8927   9.849   5.013   8.824
   54GLOH    C2 8928   9.955   4.963   9.004
   54GLOH   H04 8929   9.893   4.873   9.019
   54GLOH    O2 8930   0.076   4.925   8.935
   54GLOH   H05 8931   0.132   4.880   9.001
   54GLOH    C3 8932   9.987   5.024   9.141
   54GLOH   H06 8933   9.893   5.045   9.193
   54GLOH   H07 8934   0.037   5.119   9.126
   54GLOH    O3 8935   0.069   4.936   9.221
   54GLOH   H01 8936   0.082   4.975   9.310
   55GLOH   H03 8937   4.572   6.532   2.547
   55GLOH    O1 8938   4.613   6.482   2.472
   55GLOH    C1 8939   4.650   6.353   2.525
   55GLOH   H02 8940   4.671   6.283   2.445
   55GLOH   H08 8941   4.566   6.311   2.581
   55GLOH    C2 8942   4.773   6.361   2.618
   55GLOH   H04 8943   4.774   6.459   2.668
   55GLOH    O2 8944   4.764   6.259   2.719
   55GLOH   H05 8945   4.686   6.283   2.776
   55GLOH    C3 8946   4.903   6.347   2.537
   55GLOH   H06 8947   4.899   6.256   2.479
   55GLOH   H07 8948   4.986   6.336   2.607
   55GLOH    O3 8949   4.926   6.461   2.452
   55GLOH   H01 8950   4.932   6.432   2.357
   56GLOH   H03 8951   9.013   7.695   3.882
   56GLOH    O1 8952   9.042   7.744   3.800
   56GLOH    C1 8953   9.168   7.684   3.762
   56GLOH   H02 8954   9.168   7.577   3.782
   56GLOH   H08 8955   9.249   7.728   3.821
   56GLOH    C2 8956   9.201   7.704   3.613
   56GLOH   H04 8957   9.203   7.813   3.594
   56GLOH    O2 8958   9.331   7.650   3.582
   56GLOH   H05 8959   9.402   7.703   3.630
   56GLOH    C3 8960   9.092   7.642   3.525
   56GLOH   H06 8961   9.116   7.663   3.421
   56GLOH   H07 8962   8.998   7.694   3.546
   56GLOH    O3 8963   9.074   7.500   3.545
   56GLOH   H01 8964   8.977   7.482   3.535
   57GLOH   H03 8965   5.811   3.583   8.884
   57GLOH    O1 8966   5.799   3.548   8.975
   57GLOH    C1 8967   5.896   3.606   9.064
   57GLOH   H02 8968   5.877   3.713   9.076
   57GLOH   H08 8969   5.997   3.597   9.022
   57GLOH    C2 8970   5.896   3.541   9.203
   57GLOH   H04 8971   5.923   3.434   9.191
   57GLOH    O2 8972   5.993   3.605   9.288
   57GLOH   H05 8973   6.005   3.553   9.370
   57GLOH    C3 8974   5.755   3.549   9.265
   57GLOH   H06 8975   5.728   3.654   9.277
   57GLOH   H07 8976   5.757   3.504   9.364
   57GLOH    O3 8977   5.660   3.482   9.182
   57GLOH   H01 8978   5.690   3.495   9.089
   58GLOH   H03 8979   0.556   4.720   7.379
   58GLOH    O1 8980   0.536   4.630   7.415
   58GLOH    C1 8981   0.658   4.559   7.442
   58GLOH   H02 8982   0.636   4.458   7.477
   58GLOH   H08 8983   0.712   4.609   7.523
   58GLOH    C2 8984   0.752   4.548   7.321
   58GLOH   H04 8985   0.778   4.650   7.288
   58GLOH    O2 8986   0.872   4.481   7.365
   58GLOH   H05 8987   0.929   4.549   7.411
   58GLOH    C3 8988   0.686   4.473   7.204
   58GLOH   H06 8989   0.582   4.505   7.196
   58GLOH   H07 8990   0.684   4.367   7.226
   58GLOH    O3 8991   0.755   4.496   7.080
   58GLOH   H01 8992   0.700   4.563   7.031
   59GLOH   H03 8993   3.986   1.340   3.045
   59GLOH    O1 8994   4.014   1.266   2.987
   59GLOH    C1 8995   3.962   1.280   2.853
   59GLOH   H02 8996   3.948   1.182   2.808
   59GLOH   H08 8997   4.034   1.332   2.790
   59GLOH    C2 8998   3.828   1.356   2.840
   59GLOH   H04 8999   3.793   1.343   2.736
   59GLOH    O2 9000   3.727   1.304   2.929
   59GLOH   H05 9001   3.712   1.206   2.913
   59GLOH    C3 9002   3.847   1.507   2.863
   59GLOH   H06 9003   3.897   1.522   2.959
   59GLOH   H07 9004   3.748   1.554   2.872
   59GLOH    O3 9005   3.921   1.571   2.758
   59GLOH   H01 9006   3.962   1.654   2.796
   60GLOH   H03 9007   3.013   1.024   3.444
   60GLOH    O1 9008   3.052   1.107   3.407
   60GLOH    C1 9009   2.966   1.154   3.301
   60GLOH   H02 9010   2.883   1.085   3.284
   60GLOH   H08 9011   3.022   1.159   3.208
   60GLOH    C2 9012   2.907   1.294   3.329
   60GLOH   H04 9013   2.991   1.365   3.336
   60GLOH    O2 9014   2.821   1.336   3.221
   60GLOH   H05 9015   2.845   1.288   3.137
   60GLOH    C3 9016   2.830   1.298   3.463
   60GLOH   H06 9017   2.764   1.212   3.467
   60GLOH   H07 9018   2.765   1.386   3.462
   60GLOH    O3 9019   2.914   1.302   3.580
   60GLOH   H01 9020   2.972   1.221   3.583
   61GLOH   H03 9021   0.655   3.018   5.030
   61GLOH    O1 9022   0.738   3.026   4.976
   61GLOH    C1 9023   0.722   3.140   4.889
   61GLOH   H02 9024   0.684   3.226   4.945
   61GLOH   H08 9025   0.648   3.117   4.812
   61GLOH    C2 9026   0.854   3.180   4.820
   61GLOH   H04 9027   0.893   3.092   4.767
   61GLOH    O2 9028   0.828   3.286   4.725
   61GLOH   H05 9029   0.739   3.273   4.683
   61GLOH    C3 9030   0.957   3.224   4.927
   61GLOH   H06 9031   0.960   3.148   5.005
   61GLOH   H07 9032   0.921   3.315   4.973
   61GLOH    O3 9033   1.091   3.245   4.875
   61GLOH   H01 9034   1.084   3.257   4.777
   62GLOH   H03 9035   8.170   2.425   7.350
   62GLOH    O1 9036   8.106   2.435   7.426
   62GLOH    C1 9037   8.177   2.491   7.539
   62GLOH   H02 9038   8.201   2.596   7.520
   62GLOH   H08 9039   8.272   2.439   7.554
   62GLOH    C2 9040   8.094   2.481   7.668
   62GLOH   H04 9041   8.054   2.379   7.676
   62GLOH    O2 9042   8.177   2.510   7.783
   62GLOH   H05 9043   8.206   2.423   7.824
   62GLOH    C3 9044   7.975   2.579   7.662
   62GLOH   H06 9045   7.896   2.542   7.729
   62GLOH   H07 9046   7.933   2.578   7.561
   62GLOH    O3 9047   8.014   2.712   7.700
   62GLOH   H01 9048   8.066   2.699   7.781
   63GLOH   H03 9049   8.125   0.540   1.142
   63GLOH    O1 9050   8.066   0.469   1.180
   63GLOH    C1 9051   7.939   0.531   1.208
   63GLOH   H02 9052   7.878   0.530   1.118
   63GLOH   H08 9053   7.953   0.636   1.234
   63GLOH    C2 9054   7.861   0.462   1.321
   63GLOH   H04 9055   7.849   0.356   1.295
   63GLOH    O2 9056   7.932   0.472   1.447
   63GLOH   H05 9057   7.978   0.383   1.462
   63GLOH    C3 9058   7.722   0.525   1.333
   63GLOH   H06 9059   7.733   0.629   1.363
   63GLOH   H07 9060   7.668   0.475   1.414
   63GLOH    O3 9061   7.646   0.516   1.211
   63GLOH   H01 9062   7.569   0.579   1.222
   64GLOH   H03 9063   4.784   7.153   2.339
   64GLOH    O1 9064   4.685   7.155   2.350
   64GLOH    C1 9065   4.629   7.107   2.225
   64GLOH   H02 9066   4.522   7.091   2.235
   64GLOH   H08 9067   4.673   7.011   2.198
   64GLOH    C2 9068   4.653   7.207   2.110
   64GLOH   H04 9069   4.759   7.236   2.111
   64GLOH    O2 9070   4.623   7.145   1.983
   64GLOH   H05 9071   4.592   7.214   1.922
   64GLOH    C3 9072   4.570   7.335   2.132
   64GLOH   H06 9073   4.592   7.374   2.232
   64GLOH   H07 9074   4.465   7.308   2.131
   64GLOH    O3 9075   4.597   7.436   2.033
   64GLOH   H01 9076   4.694   7.456   2.032
   65GLOH   H03 9077   1.741   7.557   0.405
   65GLOH    O1 9078   1.658   7.603   0.373
   65GLOH    C1 9079   1.688   7.743   0.364
   65GLOH   H02 9080   1.709   7.770   0.260
   65GLOH   H08 9081   1.778   7.768   0.421
   65GLOH    C2 9082   1.573   7.832   0.414
   65GLOH   H04 9083   1.557   7.810   0.521
   65GLOH    O2 9084   1.608   7.971   0.400
   65GLOH   H05 9085   1.629   7.990   0.303
   65GLOH    C3 9086   1.443   7.799   0.339
   65GLOH   H06 9087   1.453   7.830   0.235
   65GLOH   H07 9088   1.363   7.858   0.383
   65GLOH    O3 9089   1.412   7.659   0.348
   65GLOH   H01 9090   1.499   7.613   0.360
   66GLOH   H03 9091   3.499   4.782   8.296
   66GLOH    O1 9092   3.549   4.751   8.218
   66GLOH    C1 9093   3.551   4.854   8.117
   66GLOH   H02 9094   3.557   4.953   8.163
   66GLOH   H08 9095   3.459   4.852   8.058
   66GLOH    C2 9096   3.671   4.838   8.023
   66GLOH   H04 9097   3.763   4.861   8.079
   66GLOH    O2 9098   3.678   4.702   7.973
   66GLOH   H05 9099   3.652   4.647   8.051
   66GLOH    C3 9100   3.660   4.938   7.906
   66GLOH   H06 9101   3.573   4.912   7.846
   66GLOH   H07 9102   3.747   4.927   7.843
   66GLOH    O3 9103   3.649   5.072   7.955
   66GLOH   H01 9104   3.651   5.134   7.877
   67GLOH   H03 9105   7.680   4.856   9.342
   67GLOH    O1 9106   7.648   4.891   9.427
   67GLOH    C1 9107   7.545   4.989   9.405
   67GLOH   H02 9108   7.462   4.945   9.349
   67GLOH   H08 9109   7.583   5.072   9.345
   67GLOH    C2 9110   7.491   5.046   9.537
   67GLOH   H04 9111   7.447   4.963   9.595
   67GLOH    O2 9112   7.597   5.106   9.614
   67GLOH   H05 9113   7.673   5.044   9.610
   67GLOH    C3 9114   7.381   5.150   9.509
   67GLOH   H06 9115   7.424   5.230   9.450
   67GLOH   H07 9116   7.350   5.194   9.604
   67GLOH    O3 9117   7.269   5.092   9.441
   67GLOH   H01 9118   7.212   5.045   9.505
   68GLOH   H03 9119   7.160   3.983   9.378
   68GLOH    O1 9120   7.256   3.964   9.381
   68GLOH    C1 9121   7.324   4.037   9.278
   68GLOH   H02 9122   7.318   4.144   9.297
   68GLOH   H08 9123   7.278   4.019   9.181
   68GLOH    C2 9124   7.473   3.998   9.269
   68GLOH   H04 9125   7.521   4.062   9.194
   68GLOH    O2 9126   7.537   4.019   9.397
   68GLOH   H05 9127   7.473   3.993   9.466
   68GLOH    C3 9128   7.488   3.852   9.224
   68GLOH   H06 9129   7.437   3.839   9.128
   68GLOH   H07 9130   7.437   3.787   9.296
   68GLOH    O3 9131   7.626   3.815   9.212
   68GLOH   H01 9132   7.673   3.861   9.285
   69GLOH   H03 9133   0.744   2.539   8.779
   69GLOH    O1 9134   0.714   2.625   8.744
   69GLOH    C1 9135   0.635   2.693   8.843
   69GLOH   H02 9136   0.560   2.755   8.793
   69GLOH   H08 9137   0.698   2.761   8.901
   69GLOH    C2 9138   0.564   2.597   8.940
   69GLOH   H04 9139   0.494   2.535   8.881
   69GLOH    O2 9140   0.659   2.511   9.006
   69GLOH   H05 9141   0.727   2.564   9.052
   69GLOH    C3 9142   0.482   2.675   9.044
   69GLOH   H06 9143   0.550   2.731   9.107
   69GLOH   H07 9144   0.430   2.604   9.108
   69GLOH    O3 9145   0.387   2.764   8.982
   69GLOH   H01 9146   0.326   2.800   9.049
   70GLOH   H03 9147   6.747   6.516   9.293
   70GLOH    O1 9148   6.826   6.483   9.247
   70GLOH    C1 9149   6.818   6.516   9.107
   70GLOH   H02 9150   6.833   6.623   9.092
   70GLOH   H08 9151   6.719   6.493   9.068
   70GLOH    C2 9152   6.922   6.441   9.023
   70GLOH   H04 9153   6.920   6.482   8.921
   70GLOH    O2 9154   7.054   6.461   9.079
   70GLOH   H05 9155   7.042   6.467   9.176
   70GLOH    C3 9156   6.889   6.291   9.015
   70GLOH   H06 9157   6.893   6.249   9.116
   70GLOH   H07 9158   6.966   6.242   8.957
   70GLOH    O3 9159   6.759   6.268   8.957
   70GLOH   H01 9160   6.751   6.174   8.932
   71GLOH   H03 9161   9.218   8.292   9.358
   71GLOH    O1 9162   9.227   8.259   9.266
   71GLOH    C1 9163   9.342   8.173   9.256
   71GLOH   H02 9164   9.324   8.079   9.307
   71GLOH   H08 9165   9.429   8.219   9.304
   71GLOH    C2 9166   9.379   8.143   9.110
   71GLOH   H04 9167   9.403   8.237   9.059
   71GLOH    O2 9168   9.494   8.056   9.106
   71GLOH   H05 9169   9.547   8.074   9.026
   71GLOH    C3 9170   9.259   8.078   9.038
   71GLOH   H06 9171   9.237   7.982   9.086
   71GLOH   H07 9172   9.288   8.056   8.935
   71GLOH    O3 9173   9.145   8.164   9.041
   71GLOH   H01 9174   9.152   8.215   9.125
   72GLOH   H03 9175   4.643   8.664   8.577
   72GLOH    O1 9176   4.722   8.706   8.538
   72GLOH    C1 9177   4.807   8.758   8.643
   72GLOH   H02 9178   4.851   8.677   8.701
   72GLOH   H08 9179   4.748   8.817   8.713
   72GLOH    C2 9180   4.921   8.846   8.589
   72GLOH   H04 9181   4.876   8.936   8.544
   72GLOH    O2 9182   5.007   8.886   8.698
   72GLOH   H05 9183   5.060   8.963   8.671
   72GLOH    C3 9184   5.000   8.772   8.481
   72GLOH   H06 9185   5.043   8.682   8.524
   72GLOH   H07 9186   5.082   8.835   8.447
   72GLOH    O3 9187   4.915   8.737   8.370
   72GLOH   H01 9188   4.827   8.716   8.409
   73GLOH   H03 9189   5.756   1.331   6.199
   73GLOH    O1 9190   5.839   1.369   6.237
   73GLOH    C1 9191   5.851   1.505   6.190
   73GLOH   H02 9192   5.754   1.554   6.193
   73GLOH   H08 9193   5.884   1.506   6.086
   73GLOH    C2 9194   5.949   1.590   6.273
   73GLOH   H04 9195   6.048   1.543   6.269
   73GLOH    O2 9196   5.958   1.723   6.219
   73GLOH   H05 9197   6.005   1.717   6.131
   73GLOH    C3 9198   5.903   1.595   6.420
   73GLOH   H06 9199   5.801   1.632   6.424
   73GLOH   H07 9200   5.966   1.666   6.474
   73GLOH    O3 9201   5.911   1.464   6.479
   73GLOH   H01 9202   5.874   1.402   6.411
   74GLOH   H03 9203   8.542   4.755   4.651
   74GLOH    O1 9204   8.568   4.712   4.736
   74GLOH    C1 9205   8.452   4.649   4.795
   74GLOH   H02 9206   8.421   4.563   4.735
   74GLOH   H08 9207   8.368   4.719   4.797
   74GLOH    C2 9208   8.479   4.602   4.939
   74GLOH   H04 9209   8.505   4.691   4.999
   74GLOH    O2 9210   8.363   4.540   4.996
   74GLOH   H05 9211   8.357   4.443   4.971
   74GLOH    C3 9212   8.600   4.507   4.942
   74GLOH   H06 9213   8.578   4.419   4.882
   74GLOH   H07 9214   8.617   4.474   5.044
   74GLOH    O3 9215   8.717   4.574   4.890
   74GLOH   H01 9216   8.682   4.633   4.818
   75GLOH   H03 9217   0.949   3.560   2.363
   75GLOH    O1 9218   0.944   3.461   2.367
   75GLOH    C1 9219   0.984   3.415   2.498
   75GLOH   H02 9220   0.993   3.306   2.498
   75GLOH   H08 9221   0.906   3.439   2.571
   75GLOH    C2 9222   1.117   3.474   2.546
   75GLOH   H04 9223   1.109   3.584   2.547
   75GLOH    O2 9224   1.143   3.427   2.681
   75GLOH   H05 9225   1.074   3.468   2.741
   75GLOH    C3 9226   1.231   3.435   2.450
   75GLOH   H06 9227   1.198   3.453   2.348
   75GLOH   H07 9228   1.249   3.328   2.459
   75GLOH    O3 9229   1.354   3.507   2.475
   75GLOH   H01 9230   1.413   3.450   2.530
   76GLOH   H03 9231   5.905   7.165   4.032
   76GLOH    O1 9232   5.899   7.188   3.936
   76GLOH    C1 9233   6.033   7.201   3.883
   76GLOH   H02 9234   6.039   7.156   3.784
   76GLOH   H08 9235   6.104   7.146   3.946
   76GLOH    C2 9236   6.078   7.348   3.874
   76GLOH   H04 9237   6.060   7.397   3.971
   76GLOH    O2 9238   6.219   7.354   3.842
   76GLOH   H05 9239   6.272   7.300   3.905
   76GLOH    C3 9240   5.995   7.420   3.766
   76GLOH   H06 9241   5.892   7.384   3.770
   76GLOH   H07 9242   6.033   7.389   3.668
   76GLOH    O3 9243   5.997   7.563   3.776
   76GLOH   H01 9244   6.090   7.595   3.767
   77GLOH   H03 9245   5.889   0.959   9.196
   77GLOH    O1 9246   5.967   0.956   9.134
   77GLOH    C1 9247   6.086   0.980   9.211
   77GLOH   H02 9248   6.145   0.888   9.218
   77GLOH   H08 9249   6.062   1.010   9.313
   77GLOH    C2 9250   6.174   1.089   9.148
   77GLOH   H04 9251   6.114   1.181   9.139
   77GLOH    O2 9252   6.288   1.116   9.232
   77GLOH   H05 9253   6.307   1.212   9.232
   77GLOH    C3 9254   6.219   1.045   9.008
   77GLOH   H06 9255   6.281   0.956   9.017
   77GLOH   H07 9256   6.281   1.124   8.964
   77GLOH    O3 9257   6.105   1.018   8.925
   77GLOH   H01 9258   6.033   0.988   8.985
   78GLOH   H03 9259   8.104   1.379   1.865
   78GLOH    O1 9260   8.084   1.394   1.961
   78GLOH    C1 9261   8.204   1.362   2.034
   78GLOH   H02 9262   8.286   1.428   2.002
   78GLOH   H08 9263   8.236   1.260   2.012
   78GLOH    C2 9264   8.187   1.377   2.186
   78GLOH   H04 9265   8.107   1.308   2.218
   78GLOH    O2 9266   8.309   1.342   2.255
   78GLOH   H05 9267   8.375   1.418   2.248
   78GLOH    C3 9268   8.142   1.520   2.222
   78GLOH   H06 9269   8.221   1.589   2.192
   78GLOH   H07 9270   8.132   1.528   2.330
   78GLOH    O3 9271   8.019   1.554   2.156
   78GLOH   H01 9272   8.022   1.510   2.068
   79GLOH   H03 9273   0.651   0.001   9.278
   79GLOH    O1 9274   0.722   9.972   9.337
   79GLOH    C1 9275   0.721   9.829   9.348
   79GLOH   H02 9276   0.753   9.783   9.255
   79GLOH   H08 9277   0.621   9.792   9.369
   79GLOH    C2 9278   0.814   9.779   9.460
   79GLOH   H04 9279   0.774   9.815   9.556
   79GLOH    O2 9280   0.816   9.635   9.462
   79GLOH   H05 9281   0.891   9.609   9.520
   79GLOH    C3 9282   0.956   9.835   9.443
   79GLOH   H06 9283   0.951   9.944   9.449
   79GLOH   H07 9284   0.991   9.811   9.342
   79GLOH    O3 9285   1.048   9.784   9.541
   79GLOH   H01 9286   1.134   9.829   9.532
   80GLOH   H03 9287   7.456   1.170   2.459
   80GLOH    O1 9288   7.391   1.099   2.484
   80GLOH    C1 9289   7.386   1.087   2.627
   80GLOH   H02 9290   7.286   1.058   2.658
   80GLOH   H08 9291   7.405   1.184   2.673
   80GLOH    C2 9292   7.487   0.986   2.685
   80GLOH   H04 9293   7.589   1.021   2.662
   80GLOH    O2 9294   7.471   0.979   2.828
   80GLOH   H05 9295   7.557   1.003   2.875
   80GLOH    C3 9296   7.468   0.846   2.624
   80GLOH   H06 9297   7.362   0.820   2.632
   80GLOH   H07 9298   7.522   0.774   2.686
   80GLOH    O3 9299   7.509   0.834   2.487
   80GLOH   H01 9300   7.428   0.854   2.432
   81GLOH   H03 9301   4.936   3.155   5.175
   81GLOH    O1 9302   4.890   3.214   5.110
   81GLOH    C1 9303   4.751   3.222   5.146
   81GLOH   H02 9304   4.740   3.273   5.242
   81GLOH   H08 9305   4.710   3.122   5.159
   81GLOH    C2 9306   4.664   3.297   5.044
   81GLOH   H04 9307   4.665   3.239   4.951
   81GLOH    O2 9308   4.528   3.305   5.090
   81GLOH   H05 9309   4.476   3.364   5.027
   81GLOH    C3 9310   4.723   3.436   5.012
   81GLOH   H06 9311   4.660   3.483   4.936
   81GLOH   H07 9312   4.820   3.420   4.966
   81GLOH    O3 9313   4.737   3.524   5.126
   81GLOH   H01 9314   4.752   3.615   5.091
   82GLOH   H03 9315   2.762   4.496   2.743
   82GLOH    O1 9316   2.719   4.531   2.826
   82GLOH    C1 9317   2.719   4.674   2.813
   82GLOH   H02 9318   2.631   4.706   2.757
   82GLOH   H08 9319   2.807   4.707   2.756
   82GLOH    C2 9320   2.720   4.748   2.948
   82GLOH   H04 9321   2.810   4.717   3.003
   82GLOH    O2 9322   2.724   4.891   2.928
   82GLOH   H05 9323   2.642   4.918   2.878
   82GLOH    C3 9324   2.597   4.709   3.032
   82GLOH   H06 9325   2.507   4.738   2.978
   82GLOH   H07 9326   2.599   4.766   3.125
   82GLOH    O3 9327   2.597   4.569   3.059
   82GLOH   H01 9328   2.638   4.525   2.981
   83GLOH   H03 9329   5.567   8.227   4.919
   83GLOH    O1 9330   5.568   8.265   5.011
   83GLOH    C1 9331   5.442   8.331   5.037
   83GLOH   H02 9332   5.403   8.296   5.132
   83GLOH   H08 9333   5.368   8.303   4.962
   83GLOH    C2 9334   5.451   8.485   5.044
   83GLOH   H04 9335   5.528   8.512   5.117
   83GLOH    O2 9336   5.485   8.541   4.916
   83GLOH   H05 9337   5.561   8.605   4.926
   83GLOH    C3 9338   5.317   8.544   5.091
   83GLOH   H06 9339   5.245   8.536   5.009
   83GLOH   H07 9340   5.332   8.651   5.108
   83GLOH    O3 9341   5.262   8.483   5.210
   83GLOH   H01 9342   5.316   8.509   5.289
   84GLOH   H03 9343   1.763   8.062   5.420
   84GLOH    O1 9344   1.795   8.027   5.507
   84GLOH    C1 9345   1.736   8.105   5.613
   84GLOH   H02 9346   1.738   8.049   5.706
   84GLOH   H08 9347   1.631   8.125   5.591
   84GLOH    C2 9348   1.808   8.239   5.634
   84GLOH   H04 9349   1.813   8.291   5.537
   84GLOH    O2 9350   1.735   8.322   5.727
   84GLOH   H05 9351   1.706   8.270   5.807
   84GLOH    C3 9352   1.953   8.215   5.681
   84GLOH   H06 9353   1.999   8.139   5.617
   84GLOH   H07 9354   1.950   8.173   5.782
   84GLOH    O3 9355   2.035   8.333   5.682
   84GLOH   H01 9356   2.126   8.303   5.709
   85GLOH   H03 9357   7.556   6.582   9.520
   85GLOH    O1 9358   7.635   6.605   9.574
   85GLOH    C1 9359   7.664   6.745   9.563
   85GLOH   H02 9360   7.724   6.778   9.647
   85GLOH   H08 9361   7.572   6.804   9.565
   85GLOH    C2 9362   7.739   6.780   9.433
   85GLOH   H04 9363   7.675   6.752   9.348
   85GLOH    O2 9364   7.765   6.921   9.428
   85GLOH   H05 9365   7.829   6.936   9.356
   85GLOH    C3 9366   7.870   6.701   9.423
   85GLOH   H06 9367   7.847   6.594   9.424
   85GLOH   H07 9368   7.929   6.721   9.513
   85GLOH    O3 9369   7.945   6.735   9.305
   85GLOH   H01 9370   8.020   6.674   9.294
   86GLOH   H03 9371   4.733   3.215   6.243
   86GLOH    O1 9372   4.763   3.183   6.332
   86GLOH    C1 9373   4.661   3.219   6.426
   86GLOH   H02 9374   4.649   3.140   6.500
   86GLOH   H08 9375   4.564   3.229   6.376
   86GLOH    C2 9376   4.692   3.351   6.499
   86GLOH   H04 9377   4.724   3.424   6.424
   86GLOH    O2 9378   4.573   3.400   6.565
   86GLOH   H05 9379   4.528   3.324   6.613
   86GLOH    C3 9380   4.807   3.329   6.599
   86GLOH   H06 9381   4.891   3.285   6.545
   86GLOH   H07 9382   4.775   3.255   6.673
   86GLOH    O3 9383   4.850   3.450   6.666
   86GLOH   H01 9384   4.838   3.525   6.603
   87GLOH   H03 9385   3.517   2.772   1.208
   87GLOH    O1 9386   3.548   2.815   1.292
   87GLOH    C1 9387   3.486   2.746   1.402
   87GLOH   H02 9388   3.490   2.638   1.386
   87GLOH   H08 9389   3.380   2.773   1.407
   87GLOH    C2 9390   3.550   2.776   1.539
   87GLOH   H04 9391   3.547   2.885   1.556
   87GLOH    O2 9392   3.475   2.710   1.644
   87GLOH   H05 9393   3.478   2.764   1.728
   87GLOH    C3 9394   3.697   2.729   1.542
   87GLOH   H06 9395   3.701   2.628   1.503
   87GLOH   H07 9396   3.730   2.724   1.646
   87GLOH    O3 9397   3.785   2.813   1.467
   87GLOH   H01 9398   3.826   2.876   1.531
   88GLOH   H03 9399   0.694   6.835   4.424
   88GLOH    O1 9400   0.733   6.909   4.478
   88GLOH    C1 9401   0.699   7.033   4.412
   88GLOH   H02 9402   0.689   7.113   4.486
   88GLOH   H08 9403   0.602   7.025   4.362
   88GLOH    C2 9404   0.805   7.077   4.309
   88GLOH   H04 9405   0.816   6.997   4.234
   88GLOH    O2 9406   0.763   7.199   4.244
   88GLOH   H05 9407   0.703   7.179   4.166
   88GLOH    C3 9408   0.940   7.098   4.380
   88GLOH   H06 9409   0.930   7.185   4.444
   88GLOH   H07 9410   1.015   7.122   4.305
   88GLOH    O3 9411   0.979   6.983   4.456
   88GLOH   H01 9412   0.895   6.935   4.476
   89GLOH   H03 9413   1.566   5.195   4.736
   89GLOH    O1 9414   1.635   5.252   4.779
   89GLOH    C1 9415   1.577   5.380   4.811
   89GLOH   H02 9416   1.494   5.403   4.743
   89GLOH   H08 9417   1.650   5.459   4.798
   89GLOH    C2 9418   1.525   5.384   4.955
   89GLOH   H04 9419   1.610   5.361   5.021
   89GLOH    O2 9420   1.476   5.516   4.990
   89GLOH   H05 9421   1.411   5.506   5.066
   89GLOH    C3 9422   1.419   5.273   4.977
   89GLOH   H06 9423   1.389   5.274   5.082
   89GLOH   H07 9424   1.469   5.177   4.961
   89GLOH    O3 9425   1.303   5.283   4.893
   89GLOH   H01 9426   1.247   5.203   4.912
   90GLOH   H03 9427   6.524   2.071   2.468
   90GLOH    O1 9428   6.522   2.168   2.492
   90GLOH    C1 9429   6.384   2.209   2.500
   90GLOH   H02 9430   6.331   2.184   2.408
   90GLOH   H08 9431   6.378   2.318   2.510
   90GLOH    C2 9432   6.307   2.146   2.619
   90GLOH   H04 9433   6.333   2.039   2.621
   90GLOH    O2 9434   6.345   2.205   2.745
   90GLOH   H05 9435   6.331   2.136   2.817
   90GLOH    C3 9436   6.155   2.155   2.596
   90GLOH   H06 9437   6.105   2.115   2.685
   90GLOH   H07 9438   6.129   2.088   2.514
   90GLOH    O3 9439   6.106   2.288   2.568
   90GLOH   H01 9440   6.140   2.349   2.639
   91GLOH   H03 9441   0.289   1.308   2.118
   91GLOH    O1 9442   0.341   1.386   2.150
   91GLOH    C1 9443   0.370   1.469   2.036
   91GLOH   H02 9444   0.445   1.421   1.973
   91GLOH   H08 9445   0.411   1.565   2.067
   91GLOH    C2 9446   0.244   1.494   1.951
   91GLOH   H04 9447   0.164   1.533   2.016
   91GLOH    O2 9448   0.270   1.590   1.846
   91GLOH   H05 9449   0.304   1.675   1.886
   91GLOH    C3 9450   0.199   1.361   1.890
   91GLOH   H06 9451   0.278   1.326   1.824
   91GLOH   H07 9452   0.112   1.380   1.827
   91GLOH    O3 9453   0.169   1.259   1.988
   91GLOH   H01 9454   0.156   1.176   1.936
   92GLOH   H03 9455   2.152   0.754   7.738
   92GLOH    O1 9456   2.235   0.767   7.792
   92GLOH    C1 9457   2.214   0.707   7.921
   92GLOH   H02 9458   2.297   0.731   7.987
   92GLOH   H08 9459   2.210   0.599   7.913
   92GLOH    C2 9460   2.084   0.756   7.989
   92GLOH   H04 9461   1.999   0.728   7.924
   92GLOH    O2 9462   2.066   0.692   8.117
   92GLOH   H05 9463   2.026   0.604   8.101
   92GLOH    C3 9464   2.085   0.909   8.002
   92GLOH   H06 9465   2.086   0.952   7.902
   92GLOH   H07 9466   2.177   0.940   8.052
   92GLOH    O3 9467   1.970   0.956   8.075
   92GLOH   H01 9468   1.959   0.893   8.150
   93GLOH   H03 9469   8.026   0.279   8.379
   93GLOH    O1 9470   8.079   0.216   8.328
   93GLOH    C1 9471   8.194   0.174   8.403
   93GLOH   H02 9472   8.224   0.073   8.373
   93GLOH   H08 9473   8.171   0.168   8.510
   93GLOH    C2 9474   8.314   0.268   8.384
   93GLOH   H04 9475   8.284   0.369   8.419
   93GLOH    O2 9476   8.426   0.222   8.461
   93GLOH   H05 9477   8.507   0.260   8.421
   93GLOH    C3 9478   8.351   0.278   8.235
   93GLOH   H06 9479   8.264   0.313   8.179
   93GLOH   H07 9480   8.372   0.177   8.198
   93GLOH    O3 9481   8.463   0.364   8.211
   93GLOH   H01 9482   8.433   0.457   8.211
   94GLOH   H03 9483   5.241   0.498   1.885
   94GLOH    O1 9484   5.293   0.581   1.906
   94GLOH    C1 9485   5.247   0.635   2.032
   94GLOH   H02 9486   5.331   0.682   2.083
   94GLOH   H08 9487   5.211   0.555   2.097
   94GLOH    C2 9488   5.135   0.739   2.014
   94GLOH   H04 9489   5.054   0.691   1.958
   94GLOH    O2 9490   5.083   0.786   2.141
   94GLOH   H05 9491   5.159   0.798   2.205
   94GLOH    C3 9492   5.185   0.858   1.929
   94GLOH   H06 9493   5.104   0.929   1.919
   94GLOH   H07 9494   5.207   0.821   1.829
   94GLOH    O3 9495   5.302   0.923   1.983
   94GLOH   H01 9496   5.292   0.928   2.081
   95GLOH   H03 9497   6.438   2.077   2.128
   95GLOH    O1 9498   6.362   2.073   2.192
   95GLOH    C1 9499   6.239   2.091   2.120
   95GLOH   H02 9500   6.237   2.028   2.031
   95GLOH   H08 9501   6.230   2.194   2.086
   95GLOH    C2 9502   6.115   2.060   2.206
   95GLOH   H04 9503   6.106   2.138   2.283
   95GLOH    O2 9504   5.995   2.061   2.125
   95GLOH   H05 9505   5.958   2.154   2.126
   95GLOH    C3 9506   6.130   1.924   2.278
   95GLOH   H06 9507   6.136   1.845   2.203
   95GLOH   H07 9508   6.042   1.906   2.339
   95GLOH    O3 9509   6.248   1.923   2.360
   95GLOH   H01 9510   6.315   1.976   2.309
   96GLOH   H03 9511   1.521   0.972   2.311
   96GLOH    O1 9512   1.594   1.034   2.285
   96GLOH    C1 9513   1.711   1.007   2.365
   96GLOH   H02 9514   1.687   1.024   2.470
   96GLOH   H08 9515   1.791   1.076   2.339
   96GLOH    C2 9516   1.764   0.863   2.350
   96GLOH   H04 9517   1.682   0.794   2.373
   96GLOH    O2 9518   1.810   0.838   2.215
   96GLOH   H05 9519   1.851   0.746   2.211
   96GLOH    C3 9520   1.878   0.838   2.451
   96GLOH   H06 9521   1.960   0.907   2.428
   96GLOH   H07 9522   1.916   0.737   2.435
   96GLOH    O3 9523   1.836   0.854   2.587
   96GLOH   H01 9524   1.850   0.950   2.613
   97GLOH   H03 9525   7.038   6.038   4.714
   97GLOH    O1 9526   7.100   5.965   4.688
   97GLOH    C1 9527   7.115   5.971   4.544
   97GLOH   H02 9528   7.041   6.038   4.501
   97GLOH   H08 9529   7.099   5.873   4.500
   97GLOH    C2 9530   7.255   6.021   4.500
   97GLOH   H04 9531   7.327   5.941   4.520
   97GLOH    O2 9532   7.255   6.048   4.358
   97GLOH   H05 9533   7.270   5.964   4.307
   97GLOH    C3 9534   7.298   6.146   4.579
   97GLOH   H06 9535   7.224   6.225   4.561
   97GLOH   H07 9536   7.393   6.181   4.539
   97GLOH    O3 9537   7.309   6.117   4.719
   97GLOH   H01 9538   7.240   6.050   4.738
   98GLOH   H03 9539   4.763   0.155   9.512
   98GLOH    O1 9540   4.699   0.229   9.518
   98GLOH    C1 9541   4.651   0.237   9.653
   98GLOH   H02 9542   4.587   0.152   9.676
   98GLOH   H08 9543   4.589   0.327   9.665
   98GLOH    C2 9544   4.765   0.242   9.756
   98GLOH   H04 9545   4.720   0.246   9.857
   98GLOH    O2 9546   4.848   0.124   9.746
   98GLOH   H05 9547   4.848   0.076   9.831
   98GLOH    C3 9548   4.849   0.369   9.736
   98GLOH   H06 9549   4.880   0.375   9.631
   98GLOH   H07 9550   4.940   0.361   9.795
   98GLOH    O3 9551   4.775   0.487   9.773
   98GLOH   H01 9552   4.768   0.546   9.695
   99GLOH   H03 9553   4.567   9.478   0.434
   99GLOH    O1 9554   4.537   9.472   0.339
   99GLOH    C1 9555   4.508   9.332   0.316
   99GLOH   H02 9556   4.437   9.321   0.234
   99GLOH   H08 9557   4.460   9.288   0.404
   99GLOH    C2 9558   4.636   9.253   0.284
   99GLOH   H04 9559   4.713   9.284   0.355
   99GLOH    O2 9560   4.616   9.110   0.299
   99GLOH   H05 9561   4.557   9.077   0.225
   99GLOH    C3 9562   4.684   9.290   0.142
   99GLOH   H06 9563   4.781   9.243   0.125
   99GLOH   H07 9564   4.701   9.397   0.140
   99GLOH    O3 9565   4.592   9.254   0.038
   99GLOH   H01 9566   4.555   9.164   0.054
  100GLOH   H03 9567   1.301   4.057   3.841
  100GLOH    O1 9568   1.286   4.153   3.821
  100GLOH    C1 9569   1.395   4.229   3.877
  100GLOH   H02 9570   1.401   4.327   3.829
  100GLOH   H08 9571   1.490   4.178   3.857
  100GLOH    C2 9572   1.382   4.250   4.029
  100GLOH   H04 9573   1.373   4.151   4.077
  100GLOH    O2 9574   1.498   4.317   4.082
  100GLOH   H05 9575   1.491   4.325   4.181
  100GLOH    C3 9576   1.254   4.330   4.060
  100GLOH   H06 9577   1.259   4.425   4.007
  100GLOH   H07 9578   1.252   4.353   4.167
  100GLOH    O3 9579   1.137   4.257   4.022
  100GLOH   H01 9580   1.157   4.215   3.935
  101GLOH   H03 9581   4.345   8.735   4.507
  101GLOH    O1 9582   4.358   8.651   4.557
  101GLOH    C1 9583   4.238   8.570   4.544
  101GLOH   H02 9584   4.155   8.617   4.597
  101GLOH   H08 9585   4.253   8.473   4.591
  101GLOH    C2 9586   4.193   8.547   4.398
  101GLOH   H04 9587   4.096   8.495   4.402
  101GLOH    O2 9588   4.174   8.673   4.330
  101GLOH   H05 9589   4.186   8.662   4.231
  101GLOH    C3 9590   4.291   8.456   4.322
  101GLOH   H06 9591   4.387   8.506   4.314
  101GLOH   H07 9592   4.253   8.442   4.220
  101GLOH    O3 9593   4.306   8.327   4.384
  101GLOH   H01 9594   4.339   8.262   4.317
  102GLOH   H03 9595   8.760   4.888  10.034
  102GLOH    O1 9596   8.833   4.846   0.002
  102GLOH    C1 9597   8.825   4.887   0.140
  102GLOH   H02 9598   8.886   4.822   0.203
  102GLOH   H08 9599   8.722   4.878   0.175
  102GLOH    C2 9600   8.870   5.032   0.165
  102GLOH   H04 9601   8.804   5.098   0.107
  102GLOH    O2 9602   8.856   5.065   0.305
  102GLOH   H05 9603   8.888   5.158   0.319
  102GLOH    C3 9604   9.014   5.055   0.117
  102GLOH   H06 9605   9.041   5.159   0.136
  102GLOH   H07 9606   9.016   5.042   0.008
  102GLOH    O3 9607   9.111   4.968   0.179
  102GLOH   H01 9608   9.131   4.894   0.115
  103GLOH   H03 9609   7.893   5.995   5.390
  103GLOH    O1 9610   7.982   5.972   5.425
  103GLOH    C1 9611   7.966   5.932   5.563
  103GLOH   H02 9612   7.945   5.825   5.569
  103GLOH   H08 9613   7.881   5.984   5.608
  103GLOH    C2 9614   8.090   5.964   5.648
  103GLOH   H04 9615   8.103   6.073   5.650
  103GLOH    O2 9616   8.074   5.916   5.783
  103GLOH   H05 9617   7.978   5.902   5.806
  103GLOH    C3 9618   8.216   5.902   5.585
  103GLOH   H06 9619   8.209   5.793   5.592
  103GLOH   H07 9620   8.303   5.933   5.643
  103GLOH    O3 9621   8.230   5.943   5.447
  103GLOH   H01 9622   8.137   5.956   5.416
  104GLOH   H03 9623   5.874   1.351   8.552
  104GLOH    O1 9624   5.928   1.382   8.627
  104GLOH    C1 9625   5.886   1.316   8.748
  104GLOH   H02 9626   5.906   1.209   8.742
  104GLOH   H08 9627   5.778   1.328   8.763
  104GLOH    C2 9628   5.958   1.373   8.871
  104GLOH   H04 9629   5.934   1.480   8.878
  104GLOH    O2 9630   5.912   1.307   8.991
  104GLOH   H05 9631   5.985   1.315   9.056
  104GLOH    C3 9632   6.110   1.358   8.855
  104GLOH   H06 9633   6.141   1.419   8.770
  104GLOH   H07 9634   6.132   1.255   8.829
  104GLOH    O3 9635   6.183   1.397   8.973
  104GLOH   H01 9636   6.274   1.421   8.947
  105GLOH   H03 9637   9.892   2.190   1.098
  105GLOH    O1 9638   9.873   2.195   1.000
  105GLOH    C1 9639   9.952   2.302   0.944
  105GLOH   H02 9640   9.958   2.385   1.014
  105GLOH   H08 9641   9.903   2.340   0.854
  105GLOH    C2 9642   0.095   2.257   0.907
  105GLOH   H04 9643   0.139   2.212   0.997
  105GLOH    O2 9644   0.098   2.160   0.800
  105GLOH   H05 9645   0.006   2.121   0.787
  105GLOH    C3 9646   0.180   2.379   0.869
  105GLOH   H06 9647   0.127   2.436   0.793
  105GLOH   H07 9648   0.272   2.342   0.823
  105GLOH    O3 9649   0.213   2.462   0.981
  105GLOH   H01 9650   0.149   2.537   0.989
  106GLOH   H03 9651   7.960   3.899   8.485
  106GLOH    O1 9652   8.012   3.952   8.548
  106GLOH    C1 9653   8.027   3.879   8.672
  106GLOH   H02 9654   8.084   3.787   8.656
  106GLOH   H08 9655   7.930   3.850   8.711
  106GLOH    C2 9656   8.099   3.962   8.780
  106GLOH   H04 9657   8.039   4.051   8.801
  106GLOH    O2 9658   8.112   3.885   8.901
  106GLOH   H05 9659   8.036   3.900   8.960
  106GLOH    C3 9660   8.237   4.007   8.730
  106GLOH   H06 9661   8.299   3.919   8.711
  106GLOH   H07 9662   8.286   4.065   8.808
  106GLOH    O3 9663   8.224   4.086   8.610
  106GLOH   H01 9664   8.145   4.051   8.563
  107GLOH   H03 9665   0.242   1.394   7.801
  107GLOH    O1 9666   0.340   1.394   7.808
  107GLOH    C1 9667   0.389   1.502   7.726
  107GLOH   H02 9668   0.406   1.467   7.624
  107GLOH   H08 9669   0.486   1.536   7.764
  107GLOH    C2 9670   0.294   1.623   7.722
  107GLOH   H04 9671   0.276   1.658   7.825
  107GLOH    O2 9672   0.354   1.729   7.645
  107GLOH   H05 9673   0.287   1.802   7.631
  107GLOH    C3 9674   0.158   1.583   7.660
  107GLOH   H06 9675   0.175   1.559   7.555
  107GLOH   H07 9676   0.093   1.670   7.662
  107GLOH    O3 9677   0.097   1.472   7.728
  107GLOH   H01 9678   0.092   1.397   7.661
  108GLOH   H03 9679   0.711   0.294   5.078
  108GLOH    O1 9680   0.807   0.268   5.077
  108GLOH    C1 9681   0.815   0.129   5.042
  108GLOH   H02 9682   0.754   0.109   4.953
  108GLOH   H08 9683   0.775   0.067   5.122
  108GLOH    C2 9684   0.959   0.083   5.013
  108GLOH   H04 9685   1.022   0.108   5.100
  108GLOH    O2 9686   0.962   9.941   4.989
  108GLOH   H05 9687   0.920   9.891   5.065
  108GLOH    C3 9688   1.016   0.156   4.889
  108GLOH   H06 9689   0.957   0.127   4.802
  108GLOH   H07 9690   1.117   0.118   4.871
  108GLOH    O3 9691   1.019   0.299   4.901
  108GLOH   H01 9692   0.926   0.329   4.917
  109GLOH   H03 9693   5.055   1.031   0.936
  109GLOH    O1 9694   5.111   1.017   0.855
  109GLOH    C1 9695   5.064   1.106   0.752
  109GLOH   H02 9696   4.956   1.117   0.757
  109GLOH   H08 9697   5.086   1.063   0.654
  109GLOH    C2 9698   5.127   1.247   0.759
  109GLOH   H04 9699   5.235   1.236   0.740
  109GLOH    O2 9700   5.070   1.332   0.657
  109GLOH   H05 9701   5.064   1.280   0.572
  109GLOH    C3 9702   5.109   1.306   0.900
  109GLOH   H06 9703   5.161   1.242   0.971
  109GLOH   H07 9704   5.003   1.302   0.925
  109GLOH    O3 9705   5.156   1.442   0.912
  109GLOH   H01 9706   5.093   1.497   0.859
  110GLOH   H03 9707   7.562   7.006   7.907
  110GLOH    O1 9708   7.474   7.051   7.919
  110GLOH    C1 9709   7.492   7.157   8.014
  110GLOH   H02 9710   7.591   7.203   8.003
  110GLOH   H08 9711   7.486   7.118   8.116
  110GLOH    C2 9712   7.386   7.267   7.998
  110GLOH   H04 9713   7.286   7.219   8.005
  110GLOH    O2 9714   7.398   7.365   8.103
  110GLOH   H05 9715   7.486   7.407   8.103
  110GLOH    C3 9716   7.398   7.335   7.861
  110GLOH   H06 9717   7.409   7.260   7.784
  110GLOH   H07 9718   7.490   7.394   7.859
  110GLOH    O3 9719   7.285   7.420   7.834
  110GLOH   H01 9720   7.277   7.484   7.908
  111GLOH   H03 9721   6.240   4.560   2.578
  111GLOH    O1 9722   6.154   4.607   2.584
  111GLOH    C1 9723   6.051   4.509   2.564
  111GLOH   H02 9724   6.027   4.500   2.458
  111GLOH   H08 9725   5.959   4.539   2.614
  111GLOH    C2 9726   6.092   4.370   2.617
  111GLOH   H04 9727   6.114   4.380   2.724
  111GLOH    O2 9728   5.986   4.274   2.601
  111GLOH   H05 9729   5.929   4.298   2.522
  111GLOH    C3 9730   6.220   4.322   2.546
  111GLOH   H06 9731   6.197   4.306   2.440
  111GLOH   H07 9732   6.247   4.224   2.587
  111GLOH    O3 9733   6.330   4.414   2.561
  111GLOH   H01 9734   6.414   4.361   2.567
  112GLOH   H03 9735   3.973   8.415   4.812
  112GLOH    O1 9736   4.065   8.384   4.829
  112GLOH    C1 9737   4.133   8.485   4.906
  112GLOH   H02 9738   4.129   8.580   4.853
  112GLOH   H08 9739   4.239   8.460   4.915
  112GLOH    C2 9740   4.075   8.504   5.047
  112GLOH   H04 9741   4.131   8.586   5.095
  112GLOH    O2 9742   3.935   8.540   5.044
  112GLOH   H05 9743   3.904   8.541   4.949
  112GLOH    C3 9744   4.099   8.377   5.131
  112GLOH   H06 9745   4.054   8.293   5.078
  112GLOH   H07 9746   4.044   8.387   5.226
  112GLOH    O3 9747   4.238   8.351   5.157
  112GLOH   H01 9748   4.243   8.262   5.200
  113GLOH   H03 9749   2.598   9.750   5.544
  113GLOH    O1 9750   2.649   9.700   5.613
  113GLOH    C1 9751   2.709   9.584   5.553
  113GLOH   H02 9752   2.780   9.613   5.475
  113GLOH   H08 9753   2.633   9.522   5.506
  113GLOH    C2 9754   2.783   9.499   5.658
  113GLOH   H04 9755   2.712   9.475   5.738
  113GLOH    O2 9756   2.834   9.376   5.602
  113GLOH   H05 9757   2.764   9.334   5.546
  113GLOH    C3 9758   2.897   9.582   5.721
  113GLOH   H06 9759   2.942   9.524   5.801
  113GLOH   H07 9760   2.853   9.670   5.768
  113GLOH    O3 9761   2.998   9.623   5.626
  113GLOH   H01 9762   3.085   9.588   5.657
  114GLOH   H03 9763   9.257   1.963   0.022
  114GLOH    O1 9764   9.323   1.897  10.073
  114GLOH    C1 9765   9.287   1.768   0.044
  114GLOH   H02 9766   9.369   1.698   0.029
  114GLOH   H08 9767   9.201   1.728  10.073
  114GLOH    C2 9768   9.255   1.773   0.195
  114GLOH   H04 9769   9.345   1.804   0.248
  114GLOH    O2 9770   9.148   1.867   0.221
  114GLOH   H05 9771   9.062   1.831   0.186
  114GLOH    C3 9772   9.214   1.634   0.246
  114GLOH   H06 9773   9.122   1.604   0.196
  114GLOH   H07 9774   9.191   1.642   0.352
  114GLOH    O3 9775   9.315   1.535   0.224
  114GLOH   H01 9776   9.292   1.457   0.280
  115GLOH   H03 9777   4.506   5.581   0.762
  115GLOH    O1 9778   4.602   5.602   0.752
  115GLOH    C1 9779   4.644   5.555   0.622
  115GLOH   H02 9780   4.746   5.586   0.602
  115GLOH   H08 9781   4.581   5.600   0.545
  115GLOH    C2 9782   4.639   5.402   0.606
  115GLOH   H04 9783   4.541   5.366   0.642
  115GLOH    O2 9784   4.652   5.369   0.466
  115GLOH   H05 9785   4.741   5.401   0.433
  115GLOH    C3 9786   4.751   5.332   0.686
  115GLOH   H06 9787   4.847   5.362   0.642
  115GLOH   H07 9788   4.742   5.225   0.670
  115GLOH    O3 9789   4.751   5.361   0.827
  115GLOH   H01 9790   4.657   5.366   0.859
  116GLOH   H03 9791   6.537   4.823   7.259
  116GLOH    O1 9792   6.488   4.826   7.172
  116GLOH    C1 9793   6.380   4.921   7.185
  116GLOH   H02 9794   6.338   4.918   7.285
  116GLOH   H08 9795   6.300   4.895   7.116
  116GLOH    C2 9796   6.424   5.066   7.155
  116GLOH   H04 9797   6.455   5.070   7.049
  116GLOH    O2 9798   6.313   5.156   7.174
  116GLOH   H05 9799   6.339   5.248   7.142
  116GLOH    C3 9800   6.545   5.109   7.240
  116GLOH   H06 9801   6.570   5.212   7.214
  116GLOH   H07 9802   6.631   5.049   7.210
  116GLOH    O3 9803   6.525   5.098   7.383
  116GLOH   H01 9804   6.431   5.123   7.404
  117GLOH   H03 9805   2.700   5.806   3.566
  117GLOH    O1 9806   2.778   5.862   3.536
  117GLOH    C1 9807   2.846   5.914   3.651
  117GLOH   H02 9808   2.872   5.834   3.720
  117GLOH   H08 9809   2.781   5.982   3.705
  117GLOH    C2 9810   2.975   5.989   3.613
  117GLOH   H04 9811   2.949   6.063   3.536
  117GLOH    O2 9812   3.028   6.059   3.728
  117GLOH   H05 9813   3.033   6.156   3.704
  117GLOH    C3 9814   3.081   5.895   3.551
  117GLOH   H06 9815   3.167   5.956   3.524
  117GLOH   H07 9816   3.040   5.855   3.458
  117GLOH    O3 9817   3.122   5.788   3.638
  117GLOH   H01 9818   3.205   5.748   3.600
  118GLOH   H03 9819   5.717   5.904   0.165
  118GLOH    O1 9820   5.779   5.877   0.093
  118GLOH    C1 9821   5.704   5.803  10.076
  118GLOH   H02 9822   5.661   5.714   0.039
  118GLOH   H08 9823   5.771   5.769   9.997
  118GLOH    C2 9824   5.589   5.883  10.010
  118GLOH   H04 9825   5.538   5.814   9.941
  118GLOH    O2 9826   5.493   5.930   0.025
  118GLOH   H05 9827   5.522   6.018   0.062
  118GLOH    C3 9828   5.647   5.999   9.926
  118GLOH   H06 9829   5.707   6.062   9.991
  118GLOH   H07 9830   5.564   6.060   9.890
  118GLOH    O3 9831   5.725   5.951   9.816
  118GLOH   H01 9832   5.669   5.943   9.736
  119GLOH   H03 9833   7.189   0.147   5.048
  119GLOH    O1 9834   7.111   0.105   5.002
  119GLOH    C1 9835   6.989   0.140   5.070
  119GLOH   H02 9836   6.905   0.090   5.023
  119GLOH   H08 9837   6.971   0.247   5.061
  119GLOH    C2 9838   6.990   0.104   5.220
  119GLOH   H04 9839   7.063   0.169   5.270
  119GLOH    O2 9840   6.859   0.129   5.277
  119GLOH   H05 9841   6.834   0.055   5.339
  119GLOH    C3 9842   7.037   9.958   5.239
  119GLOH   H06 9843   7.137   9.949   5.196
  119GLOH   H07 9844   6.972   9.893   5.181
  119GLOH    O3 9845   7.040   9.916   5.377
  119GLOH   H01 9846   7.075   9.989   5.434
  120GLOH   H03 9847   1.929   9.231   4.040
  120GLOH    O1 9848   1.914   9.187   3.952
  120GLOH    C1 9849   1.780   9.135   3.953
  120GLOH   H02 9850   1.750   9.109   3.851
  120GLOH   H08 9851   1.710   9.211   3.988
  120GLOH    C2 9852   1.762   9.009   4.040
  120GLOH   H04 9853   1.822   8.927   3.996
  120GLOH    O2 9854   1.807   9.033   4.176
  120GLOH   H05 9855   1.743   9.097   4.220
  120GLOH    C3 9856   1.613   8.968   4.036
  120GLOH   H06 9857   1.585   8.957   3.931
  120GLOH   H07 9858   1.554   9.051   4.075
  120GLOH    O3 9859   1.582   8.848   4.109
  120GLOH   H01 9860   1.636   8.773   4.072
  121ACOH    H4 9861   4.250   4.448   3.908
  121ACOH    O2 9862   4.207   4.518   3.963
  121ACOH    C2 9863   4.178   4.462   4.082
  121ACOH    O1 9864   4.208   4.350   4.118
  121ACOH    C1 9865   4.111   4.559   4.171
  121ACOH    H1 9866   4.017   4.590   4.125
  121ACOH    H2 9867   4.174   4.646   4.185
  121ACOH    H3 9868   4.089   4.514   4.267
  122ACOH    H4 9869   4.788   1.569   7.957
  122ACOH    O2 9870   4.812   1.631   7.886
  122ACOH    C2 9871   4.847   1.553   7.782
  122ACOH    O1 9872   4.852   1.432   7.781
  122ACOH    C1 9873   4.883   1.636   7.664
  122ACOH    H1 9874   4.913   1.573   7.581
  122ACOH    H2 9875   4.965   1.703   7.688
  122ACOH    H3 9876   4.797   1.695   7.633
  123ACOH    H4 9877   9.023   1.218   7.477
  123ACOH    O2 9878   9.071   1.154   7.536
  123ACOH    C2 9879   8.979   1.072   7.589
  123ACOH    O1 9880   8.858   1.075   7.571
  123ACOH    C1 9881   9.041   0.971   7.678
  123ACOH    H1 9882   8.999   0.979   7.778
  123ACOH    H2 9883   9.148   0.985   7.684
  123ACOH    H3 9884   9.021   0.871   7.640
  124ACOH    H4 9885   5.041   4.235   5.323
  124ACOH    O2 9886   5.113   4.166   5.322
  124ACOH    C2 9887   5.085   4.080   5.421
  124ACOH    O1 9888   4.990   4.084   5.498
  124ACOH    C1 9889   5.188   3.974   5.428
  124ACOH    H1 9890   5.190   3.919   5.334
  124ACOH    H2 9891   5.167   3.904   5.509
  124ACOH    H3 9892   5.286   4.019   5.444
  125ACOH    H4 9893   6.669   3.959   7.732
  125ACOH    O2 9894   6.604   3.952   7.657
  125ACOH    C2 9895   6.525   3.846   7.682
  125ACOH    O1 9896   6.536   3.766   7.773
  125ACOH    C1 9897   6.419   3.835   7.579
  125ACOH    H1 9898   6.359   3.926   7.578
  125ACOH    H2 9899   6.355   3.750   7.599
  125ACOH    H3 9900   6.466   3.823   7.481
  126ACOH    H4 9901   4.625   8.113   7.297
  126ACOH    O2 9902   4.635   8.037   7.360
  126ACOH    C2 9903   4.766   8.023   7.385
  126ACOH    O1 9904   4.857   8.076   7.323
  126ACOH    C1 9905   4.792   7.920   7.488
  126ACOH    H1 9906   4.844   7.835   7.443
  126ACOH    H2 9907   4.698   7.885   7.531
  126ACOH    H3 9908   4.853   7.962   7.566
  127ACOH    H4 9909   6.176   9.160   1.364
  127ACOH    O2 9910   6.203   9.128   1.274
  127ACOH    C2 9911   6.293   9.215   1.226
  127ACOH    O1 9912   6.320   9.325   1.271
  127ACOH    C1 9913   6.357   9.164   1.103
  127ACOH    H1 9914   6.322   9.064   1.080
  127ACOH    H2 9915   6.465   9.162   1.117
  127ACOH    H3 9916   6.334   9.230   1.020
  128ACOH    H4 9917   1.825   5.907   2.860
  128ACOH    O2 9918   1.801   5.813   2.837
  128ACOH    C2 9919   1.686   5.785   2.900
  128ACOH    O1 9920   1.616   5.863   2.963
  128ACOH    C1 9921   1.650   5.643   2.881
  128ACOH    H1 9922   1.628   5.624   2.776
  128ACOH    H2 9923   1.563   5.615   2.940
  128ACOH    H3 9924   1.733   5.580   2.911
  129ACOH    H4 9925   5.804   7.138   4.670
  129ACOH    O2 9926   5.826   7.042   4.685
  129ACOH    C2 9927   5.864   6.993   4.566
  129ACOH    O1 9928   5.852   7.048   4.458
  129ACOH    C1 9929   5.919   6.856   4.578
  129ACOH    H1 9930   5.924   6.827   4.683
  129ACOH    H2 9931   6.019   6.853   4.536
  129ACOH    H3 9932   5.856   6.786   4.525
  130ACOH    H4 9933   3.286   2.864   6.826
  130ACOH    O2 9934   3.215   2.872   6.756
  130ACOH    C2 9935   3.195   2.749   6.706
  130ACOH    O1 9936   3.225   2.643   6.758
  130ACOH    C1 9937   3.110   2.754   6.585
  130ACOH    H1 9938   3.013   2.709   6.607
  130ACOH    H2 9939   3.157   2.699   6.504
  130ACOH    H3 9940   3.093   2.857   6.553
  131ACOH    H4 9941   4.500   8.217   0.121
  131ACOH    O2 9942   4.599   8.220   0.125
  131ACOH    C2 9943   4.637   8.115   0.201
  131ACOH    O1 9944   4.567   8.022   0.235
  131ACOH    C1 9945   4.782   8.118   0.227
  131ACOH    H1 9946   4.836   8.126   0.133
  131ACOH    H2 9947   4.814   8.027   0.278
  131ACOH    H3 9948   4.806   8.203   0.289
  132ACOH    H4 9949   6.653   5.275   6.589
  132ACOH    O2 9950   6.576   5.239   6.538
  132ACOH    C2 9951   6.595   5.106   6.528
  132ACOH    O1 9952   6.684   5.041   6.579
  132ACOH    C1 9953   6.487   5.045   6.447
  132ACOH    H1 9954   6.391   5.065   6.493
  132ACOH    H2 9955   6.501   4.937   6.439
  132ACOH    H3 9956   6.488   5.087   6.347
  133ACOH    H4 9957   4.229   2.555   7.226
  133ACOH    O2 9958   4.237   2.462   7.192
  133ACOH    C2 9959   4.363   2.443   7.149
  133ACOH    O1 9960   4.429   2.528   7.091
  133ACOH    C1 9961   4.397   2.300   7.140
  133ACOH    H1 9962   4.397   2.269   7.036
  133ACOH    H2 9963   4.324   2.240   7.194
  133ACOH    H3 9964   4.495   2.282   7.183
  134ACOH    H4 9965   4.104   2.097   0.201
  134ACOH    O2 9966   4.047   2.016   0.188
  134ACOH    C2 9967   4.121   1.910   0.227
  134ACOH    O1 9968   4.238   1.910   0.259
  134ACOH    C1 9969   4.042   1.785   0.211
  134ACOH    H1 9970   3.954   1.790   0.274
  134ACOH    H2 9971   4.100   1.699   0.241
  134ACOH    H3 9972   4.012   1.774   0.107
  135ACOH    H4 9973   0.157   2.071   1.977
  135ACOH    O2 9974   0.194   2.027   1.895
  135ACOH    C2 9975   0.106   2.050   1.795
  135ACOH    O1 9976   0.004   2.115   1.802
  135ACOH    C1 9977   0.155   1.991   1.669
  135ACOH    H1 9978   0.176   1.885   1.682
  135ACOH    H2 9979   0.246   2.042   1.638
  135ACOH    H3 9980   0.081   2.002   1.590
  136ACOH    H4 9981   1.585   3.210   3.437
  136ACOH    O2 9982   1.530   3.262   3.502
  136ACOH    C2 9983   1.573   3.229   3.625
  136ACOH    O1 9984   1.660   3.148   3.651
  136ACOH    C1 9985   1.498   3.301   3.731
  136ACOH    H1 9986   1.443   3.230   3.792
  136ACOH    H2 9987   1.429   3.372   3.688
  136ACOH    H3 9988   1.568   3.355   3.794
  137ACOH    H4 9989   9.576   4.977   5.517
  137ACOH    O2 9990   9.550   4.895   5.570
  137ACOH    C2 9991   9.468   4.823   5.492
  137ACOH    O1 9992   9.418   4.856   5.386
  137ACOH    C1 9993   9.434   4.696   5.560
  137ACOH    H1 9994   9.360   4.640   5.503
  137ACOH    H2 9995   9.394   4.717   5.659
  137ACOH    H3 9996   9.523   4.635   5.570
  138ACOH    H4 9997   0.347   9.242   6.245
  138ACOH    O2 9998   0.403   9.215   6.323
  138ACOH    C2 9999   0.481   9.114   6.278
  138ACOH    O110000   0.481   9.067   6.166
  138ACOH    C110001   0.565   9.057   6.385
  138ACOH    H110002   0.522   8.962   6.417
  138ACOH    H210003   0.572   9.124   6.470
  138ACOH    H310004   0.665   9.038   6.348
  139ACOH    H410005   2.235   4.174  10.062
  139ACOH    O210006   2.303   4.212  10.000
  139ACOH    C210007   2.403   4.258  10.077
  139ACOH    O110008   2.432   4.216   0.106
  139ACOH    C110009   2.492   4.346   9.998
  139ACOH    H110010   2.579   4.376  10.057
  139ACOH    H210011   2.438   4.434   9.968
  139ACOH    H310012   2.527   4.293   9.910
  140ACOH    H410013   4.550   5.583   1.836
  140ACOH    O210014   4.510   5.663   1.879
  140ACOH    C210015   4.506   5.760   1.785
  140ACOH    O110016   4.544   5.752   1.669
  140ACOH    C110017   4.439   5.882   1.836
  140ACOH    H110018   4.345   5.897   1.784
  140ACOH    H210019   4.502   5.968   1.819
  140ACOH    H310020   4.419   5.874   1.943
  141ACOH    H410021   4.600   3.419   4.524
  141ACOH    O210022   4.678   3.394   4.581
  141ACOH    C210023   4.730   3.506   4.636
  141ACOH    O110024   4.829   3.507   4.707
  141ACOH    C110025   4.657   3.632   4.605
  141ACOH    H110026   4.704   3.717   4.654
  141ACOH    H210027   4.554   3.624   4.641
  141ACOH    H310028   4.656   3.649   4.498
  142ACOH    H410029   6.417   6.359   1.911
  142ACOH    O210030   6.411   6.449   1.951
  142ACOH    C210031   6.500   6.528   1.889
  142ACOH    O110032   6.563   6.502   1.788
  142ACOH    C110033   6.501   6.663   1.951
  142ACOH    H110034   6.570   6.729   1.898
  142ACOH    H210035   6.532   6.655   2.055
  142ACOH    H310036   6.401   6.706   1.947
  143ACOH    H410037   7.000   3.144   4.590
  143ACOH    O210038   7.036   3.235   4.605
  143ACOH    C210039   7.109   3.232   4.717
  143ACOH    O110040   7.134   3.135   4.787
  143ACOH    C110041   7.162   3.367   4.748
  143ACOH    H110042   7.079   3.437   4.757
  143ACOH    H210043   7.227   3.400   4.667
  143ACOH    H310044   7.218   3.367   4.841
  144ACOH    H410045   4.763   7.046   0.023
  144ACOH    O210046   4.851   7.003   0.045
  144ACOH    C210047   4.934   7.104   0.078
  144ACOH    O110048   4.909   7.223   0.082
  144ACOH    C110049   5.069   7.050   0.110
  144ACOH    H110050   5.106   6.992   0.026
  144ACOH    H210051   5.062   6.986   0.198
  144ACOH    H310052   5.139   7.131   0.130
  145ACOH    H410053   5.761   1.556   7.936
  145ACOH    O210054   5.810   1.643   7.945
  145ACOH    C210055   5.777   1.719   7.839
  145ACOH    O110056   5.690   1.696   7.756
  145ACOH    C110057   5.857   1.844   7.838
  145ACOH    H110058   5.844   1.897   7.744
  145ACOH    H210059   5.962   1.819   7.852
  145ACOH    H310060   5.825   1.908   7.920
  146ACOH    H410061   9.541   0.301   3.971
  146ACOH    O210062   9.629   0.341   3.948
  146ACOH    C210063   9.694   0.247   3.876
  146ACOH    O110064   9.641   0.157   3.814
  146ACOH    C110065   9.836   0.284   3.857
  146ACOH    H110066   9.843   0.387   3.821
  146ACOH    H210067   9.884   0.218   3.786
  146ACOH    H310068   9.888   0.277   3.953
  147ACOH    H410069   3.998   5.236   2.150
  147ACOH    O210070   3.933   5.310   2.139
  147ACOH    C210071   3.965   5.406   2.227
  147ACOH    O110072   4.038   5.396   2.324
  147ACOH    C110073   3.880   5.527   2.209
  147ACOH    H110074   3.811   5.536   2.292
  147ACOH    H210075   3.824   5.520   2.116
  147ACOH    H310076   3.943   5.616   2.206
  148ACOH    H410077   5.237   4.957   6.043
  148ACOH    O210078   5.277   4.938   5.955
  148ACOH    C210079   5.407   4.971   5.963
  148ACOH    O110080   5.459   5.040   6.049
  148ACOH    C110081   5.477   4.934   5.838
  148ACOH    H110082   5.423   4.973   5.753
  148ACOH    H210083   5.482   4.826   5.831
  148ACOH    H310084   5.579   4.973   5.837
  149ACOH    H410085   3.803   5.479   6.416
  149ACOH    O210086   3.858   5.558   6.443
  149ACOH    C210087   3.828   5.659   6.360
  149ACOH    O110088   3.750   5.659   6.267
  149ACOH    C110089   3.907   5.779   6.397
  149ACOH    H110090   3.886   5.862   6.330
  149ACOH    H210091   4.013   5.756   6.393
  149ACOH    H310092   3.882   5.809   6.499
  150ACOH    H410093   0.657   1.156   2.144
  150ACOH    O210094   0.576   1.097   2.148
  150ACOH    C210095   0.536   1.078   2.021
  150ACOH    O110096   0.574   1.139   1.922
  150ACOH    C110097   0.423   0.983   2.016
  150ACOH    H110098   0.331   1.036   1.996
  150ACOH    H210099   0.413   0.929   2.110
  150ACOH    H310100   0.439   0.911   1.936
  151ACOH    H410101   5.582   3.791   6.827
  151ACOH    O210102   5.681   3.794   6.830
  151ACOH    C210103   5.724   3.688   6.900
  151ACOH    O110104   5.655   3.600   6.949
  151ACOH    C110105   5.871   3.686   6.914
  151ACOH    H110106   5.897   3.696   7.019
  151ACOH    H210107   5.916   3.767   6.858
  151ACOH    H310108   5.910   3.591   6.878
  152ACOH    H410109   5.966   2.244   2.512
  152ACOH    O210110   5.894   2.202   2.458
  152ACOH    C210111   5.782   2.275   2.475
  152ACOH    O110112   5.764   2.364   2.556
  152ACOH    C110113   5.672   2.224   2.390
  152ACOH    H110114   5.623   2.306   2.339
  152ACOH    H210115   5.598   2.173   2.452
  152ACOH    H310116   5.710   2.155   2.316
  153ACOH    H410117   7.925   5.590   5.362
  153ACOH    O210118   8.022   5.591   5.385
  153ACOH    C210119   8.045   5.479   5.458
  153ACOH    O110120   7.966   5.389   5.480
  153ACOH    C110121   8.183   5.476   5.510
  153ACOH    H110122   8.234   5.387   5.474
  153ACOH    H210123   8.182   5.474   5.619
  153ACOH    H310124   8.240   5.563   5.477
  154ACOH    H410125   4.255   3.808   3.182
  154ACOH    O210126   4.294   3.893   3.215
  154ACOH    C210127   4.321   3.876   3.345
  154ACOH    O110128   4.307   3.774   3.410
  154ACOH    C110129   4.373   4.000   3.407
  154ACOH    H110130   4.301   4.036   3.481
  154ACOH    H210131   4.389   4.077   3.332
  154ACOH    H310132   4.467   3.979   3.458
  155ACOH    H410133   9.610   8.222   7.821
  155ACOH    O210134   9.543   8.232   7.893
  155ACOH    C210135   9.422   8.204   7.842
  155ACOH    O110136   9.396   8.169   7.729
  155ACOH    C110137   9.319   8.216   7.947
  155ACOH    H110138   9.221   8.183   7.911
  155ACOH    H210139   9.311   8.320   7.978
  155ACOH    H310140   9.347   8.156   8.034
  156ACOH    H410141   5.399   2.394   2.102
  156ACOH    O210142   5.411   2.492   2.115
  156ACOH    C210143   5.544   2.516   2.106
  156ACOH    O110144   5.633   2.433   2.105
  156ACOH    C110145   5.572   2.661   2.110
  156ACOH    H110146   5.633   2.684   2.197
  156ACOH    H210147   5.480   2.719   2.116
  156ACOH    H310148   5.626   2.690   2.021
  157ACOH    H410149   2.086   3.673   3.173
  157ACOH    O210150   2.053   3.752   3.225
  157ACOH    C210151   2.054   3.713   3.354
  157ACOH    O110152   2.100   3.611   3.401
  157ACOH    C110153   1.989   3.816   3.439
  157ACOH    H110154   2.047   3.908   3.435
  157ACOH    H210155   1.982   3.783   3.542
  157ACOH    H310156   1.889   3.836   3.402
  158ACOH    H410157   2.684   8.656   3.958
  158ACOH    O210158   2.628   8.624   3.882
  158ACOH    C210159   2.513   8.694   3.890
  158ACOH    O110160   2.465   8.742   3.990
  158ACOH    C110161   2.433   8.681   3.766
  158ACOH    H110162   2.490   8.634   3.687
  158ACOH    H210163   2.402   8.780   3.732
  158ACOH    H310164   2.344   8.622   3.785
  159ACOH    H410165   4.512   0.773   6.956
  159ACOH    O210166   4.553   0.853   6.999
  159ACOH    C210167   4.570   0.826   7.129
  159ACOH    O110168   4.523   0.733   7.192
  159ACOH    C110169   4.651   0.931   7.195
  159ACOH    H110170   4.678   1.009   7.123
  159ACOH    H210171   4.743   0.888   7.234
  159ACOH    H310172   4.595   0.976   7.276
  160ACOH    H410173   6.529   4.758   7.050
  160ACOH    O210174   6.554   4.708   6.966
  160ACOH    C210175   6.643   4.784   6.901
  160ACOH    O110176   6.691   4.891   6.937
  160ACOH    C110177   6.684   4.720   6.773
  160ACOH    H110178   6.790   4.697   6.777
  160ACOH    H210179   6.666   4.789   6.691
  160ACOH    H310180   6.628   4.629   6.757
  161ACOH    H410181   5.023   3.503   5.918
  161ACOH    O210182   5.086   3.441   5.964
  161ACOH    C210183   5.112   3.341   5.878
  161ACOH    O110184   5.053   3.315   5.775
  161ACOH    C110185   5.220   3.255   5.933
  161ACOH    H110186   5.310   3.314   5.945
  161ACOH    H210187   5.241   3.171   5.867
  161ACOH    H310188   5.190   3.217   6.030
  162ACOH    H410189   5.426   3.394   7.538
  162ACOH    O210190   5.493   3.468   7.544
  162ACOH    C210191   5.515   3.511   7.418
  162ACOH    O110192   5.477   3.458   7.315
  162ACOH    C110193   5.614   3.621   7.420
  162ACOH    H110194   5.650   3.641   7.319
  162ACOH    H210195   5.698   3.595   7.484
  162ACOH    H310196   5.566   3.711   7.459
  163ACOH    H410197   5.419   2.621   7.326
  163ACOH    O210198   5.513   2.650   7.309
  163ACOH    C210199   5.525   2.773   7.363
  163ACOH    O110200   5.453   2.822   7.447
  163ACOH    C110201   5.656   2.833   7.328
  163ACOH    H110202   5.696   2.786   7.238
  163ACOH    H210203   5.726   2.817   7.409
  163ACOH    H310204   5.645   2.940   7.310
  164ACOH    H410205   1.608   0.556   1.383
  164ACOH    O210206   1.611   0.568   1.285
  164ACOH    C210207   1.648   0.696   1.264
  164ACOH    O110208   1.661   0.784   1.348
  164ACOH    C110209   1.662   0.723   1.120
  164ACOH    H110210   1.650   0.632   1.062
  164ACOH    H210211   1.761   0.763   1.101
  164ACOH    H310212   1.587   0.795   1.088
  165ACOH    H410213   8.244   9.643   0.311
  165ACOH    O210214   8.147   9.657   0.327
  165ACOH    C210215   8.107   9.566   0.418
  165ACOH    O110216   8.179   9.491   0.482
  165ACOH    C110217   7.961   9.570   0.440
  165ACOH    H110218   7.914   9.642   0.373
  165ACOH    H210219   7.940   9.599   0.542
  165ACOH    H310220   7.918   9.472   0.422
  166ACOH    H410221   3.753   4.551   6.934
  166ACOH    O210222   3.725   4.553   6.838
  166ACOH    C210223   3.727   4.682   6.800
  166ACOH    O110224   3.784   4.772   6.859
  166ACOH    C110225   3.674   4.699   6.663
  166ACOH    H110226   3.755   4.722   6.594
  166ACOH    H210227   3.602   4.781   6.661
  166ACOH    H310228   3.623   4.609   6.629
  167ACOH    H410229   6.688   0.398   0.614
  167ACOH    O210230   6.751   0.374   0.540
  167ACOH    C210231   6.854   0.308   0.597
  167ACOH    O110232   6.864   0.277   0.714
  167ACOH    C110233   6.956   0.272   0.496
  167ACOH    H110234   7.038   0.216   0.541
  167ACOH    H210235   6.995   0.363   0.451
  167ACOH    H310236   6.910   0.211   0.418
  168ACOH    H410237   3.125   4.462   3.151
  168ACOH    O210238   3.030   4.468   3.180
  168ACOH    C210239   2.998   4.598   3.187
  168ACOH    O110240   3.056   4.690   3.131
  168ACOH    C110241   2.868   4.616   3.254
  168ACOH    H110242   2.878   4.588   3.358
  168ACOH    H210243   2.794   4.551   3.208
  168ACOH    H310244   2.834   4.719   3.248
  169ACOH    H410245   5.188   5.733   0.805
  169ACOH    O210246   5.233   5.649   0.773
  169ACOH    C210247   5.135   5.556   0.766
  169ACOH    O110248   5.016   5.579   0.768
  169ACOH    C110249   5.192   5.422   0.737
  169ACOH    H110250   5.261   5.428   0.654
  169ACOH    H210251   5.113   5.352   0.712
  169ACOH    H310252   5.245   5.386   0.825
  170ACOH    H410253   8.707   0.555   5.776
  170ACOH    O210254   8.797   0.580   5.814
  170ACOH    C210255   8.868   0.466   5.824
  170ACOH    O110256   8.832   0.354   5.794
  170ACOH    C110257   9.004   0.496   5.874
  170ACOH    H110258   8.997   0.541   5.973
  170ACOH    H210259   9.054   0.565   5.807
  170ACOH    H310260   9.064   0.405   5.882
  171ACOH    H410261   5.355   8.686   1.402
  171ACOH    O210262   5.453   8.682   1.384
  171ACOH    C210263   5.514   8.703   1.502
  171ACOH    O110264   5.463   8.740   1.606
  171ACOH    C110265   5.660   8.680   1.487
  171ACOH    H110266   5.678   8.577   1.458
  171ACOH    H210267   5.711   8.700   1.581
  171ACOH    H310268   5.700   8.747   1.412
  172ACOH    H410269   3.921   6.606   6.780
  172ACOH    O210270   3.899   6.592   6.684
  172ACOH    C210271   3.963   6.688   6.615
  172ACOH    O110272   4.047   6.765   6.657
  172ACOH    C110273   3.921   6.685   6.473
  172ACOH    H110274   3.817   6.713   6.465
  172ACOH    H210275   3.933   6.584   6.433
  172ACOH    H310276   3.980   6.754   6.413
  173ACOH    H410277   7.519   1.645   2.187
  173ACOH    O210278   7.527   1.598   2.099
  173ACOH    C210279   7.538   1.694   2.006
  173ACOH    O110280   7.539   1.814   2.025
  173ACOH    C110281   7.552   1.635   1.870
  173ACOH    H110282   7.464   1.574   1.848
  173ACOH    H210283   7.640   1.573   1.866
  173ACOH    H310284   7.560   1.713   1.795
  174ACOH    H410285   5.946   7.697   7.464
  174ACOH    O210286   5.914   7.614   7.510
  174ACOH    C210287   6.020   7.558   7.570
  174ACOH    O110288   6.133   7.605   7.579
  174ACOH    C110289   5.985   7.429   7.634
  174ACOH    H110290   5.880   7.406   7.618
  174ACOH    H210291   6.004   7.435   7.741
  174ACOH    H310292   6.045   7.350   7.592
  175ACOH    H410293   6.942   9.314   1.163
  175ACOH    O210294   7.025   9.306   1.109
  175ACOH    C210295   7.087   9.426   1.109
  175ACOH    O110296   7.055   9.525   1.172
  175ACOH    C110297   7.207   9.421   1.023
  175ACOH    H110298   7.177   9.397   0.921
  175ACOH    H210299   7.274   9.343   1.059
  175ACOH    H310300   7.259   9.516   1.023
  176ACOH    H410301   3.957   1.549   2.181
  176ACOH    O210302   3.941   1.510   2.272
  176ACOH    C210303   4.022   1.405   2.288
  176ACOH    O110304   4.097   1.355   2.205
  176ACOH    C110305   4.004   1.348   2.423
  176ACOH    H110306   4.036   1.420   2.498
  176ACOH    H210307   4.060   1.256   2.435
  176ACOH    H310308   3.898   1.325   2.439
  177ACOH    H410309   7.367   7.472   1.143
  177ACOH    O210310   7.273   7.497   1.154
  177ACOH    C210311   7.204   7.424   1.064
  177ACOH    O110312   7.249   7.342   0.988
  177ACOH    C110313   7.058   7.451   1.073
  177ACOH    H110314   7.007   7.361   1.104
  177ACOH    H210315   7.021   7.481   0.975
  177ACOH    H310316   7.038   7.530   1.144
  178ACOH    H410317   6.274   3.227   2.833
  178ACOH    O210318   6.304   3.307   2.886
  178ACOH    C210319   6.317   3.410   2.801
  178ACOH    O110320   6.305   3.408   2.680
  178ACOH    C110321   6.362   3.531   2.875
  178ACOH    H110322   6.382   3.613   2.806
  178ACOH    H210323   6.453   3.509   2.930
  178ACOH    H310324   6.285   3.562   2.945
  179ACOH    H410325   8.654   1.942   6.886
  179ACOH    O210326   8.661   2.024   6.830
  179ACOH    C210327   8.717   1.983   6.714
  179ACOH    O110328   8.782   1.881   6.698
  179ACOH    C110329   8.714   2.090   6.612
  179ACOH    H110330   8.649   2.172   6.643
  179ACOH    H210331   8.678   2.050   6.518
  179ACOH    H310332   8.814   2.129   6.598
  180ACOH    H410333   4.982   4.599   6.111
  180ACOH    O210334   4.983   4.654   6.027
  180ACOH    C210335   5.104   4.639   5.970
  180ACOH    O110336   5.204   4.595   6.023
  180ACOH    C110337   5.108   4.707   5.838
  180ACOH    H110338   5.210   4.716   5.802
  180ACOH    H210339   5.064   4.806   5.846
  180ACOH    H310340   5.051   4.649   5.766
  181ACOH    H410341   3.651   1.227   5.401
  181ACOH    O210342   3.563   1.208   5.359
  181ACOH    C210343   3.564   1.261   5.236
  181ACOH    O110344   3.660   1.313   5.180
  181ACOH    C110345   3.435   1.241   5.167
  181ACOH    H110346   3.407   1.136   5.172
  181ACOH    H210347   3.442   1.269   5.062
  181ACOH    H310348   3.359   1.301   5.215
  182ACOH    H410349   4.184   3.786   5.883
  182ACOH    O210350   4.182   3.769   5.785
  182ACOH    C210351   4.066   3.706   5.757
  182ACOH    O110352   3.987   3.660   5.838
  182ACOH    C110353   4.054   3.683   5.611
  182ACOH    H110354   3.967   3.622   5.589
  182ACOH    H210355   4.142   3.632   5.574
  182ACOH    H310356   4.044   3.778   5.560
  183ACOH    H410357   3.759   0.456   5.055
  183ACOH    O210358   3.682   0.460   5.118
  183ACOH    C210359   3.730   0.517   5.230
  183ACOH    O110360   3.846   0.545   5.253
  183ACOH    C110361   3.620   0.538   5.328
  183ACOH    H110362   3.658   0.582   5.419
  183ACOH    H210363   3.574   0.442   5.351
  183ACOH    H310364   3.545   0.604   5.284
  184ACOH    H410365   6.306   7.488   6.619
  184ACOH    O210366   6.276   7.468   6.712
  184ACOH    C210367   6.373   7.511   6.795
  184ACOH    O110368   6.486   7.547   6.765
  184ACOH    C110369   6.332   7.498   6.937
  184ACOH    H110370   6.394   7.423   6.986
  184ACOH    H210371   6.228   7.468   6.944
  184ACOH    H310372   6.345   7.593   6.988
  185ACOH    H410373   2.020   8.709   3.290
  185ACOH    O210374   1.923   8.703   3.268
  185ACOH    C210375   1.903   8.789   3.167
  185ACOH    O110376   1.962   8.894   3.151
  185ACOH    C110377   1.774   8.760   3.099
  185ACOH    H110378   1.785   8.671   3.039
  185ACOH    H210379   1.744   8.843   3.035
  185ACOH    H310380   1.696   8.744   3.174
  186ACOH    H410381   5.380   7.368   6.222
  186ACOH    O210382   5.433   7.301   6.275
  186ACOH    C210383   5.476   7.362   6.387
  186ACOH    O110384   5.456   7.476   6.422
  186ACOH    C110385   5.556   7.267   6.467
  186ACOH    H110386   5.495   7.181   6.493
  186ACOH    H210387   5.592   7.314   6.558
  186ACOH    H310388   5.641   7.234   6.408
  187ACOH    H410389   4.084   7.666   2.756
  187ACOH    O210390   4.106   7.742   2.816
  187ACOH    C210391   4.106   7.855   2.743
  187ACOH    O110392   4.060   7.870   2.632
  187ACOH    C110393   4.156   7.969   2.824
  187ACOH    H110394   4.149   8.062   2.769
  187ACOH    H210395   4.260   7.951   2.850
  187ACOH    H310396   4.098   7.978   2.915
  188ACOH    H410397   7.841   1.957   7.047
  188ACOH    O210398   7.749   1.987   7.066
  188ACOH    C210399   7.758   2.096   7.145
  188ACOH    O110400   7.858   2.138   7.199
  188ACOH    C110401   7.624   2.154   7.170
  188ACOH    H110402   7.582   2.188   7.076
  188ACOH    H210403   7.630   2.237   7.239
  188ACOH    H310404   7.559   2.077   7.212
  189ACOH    H410405   5.739   1.566   2.106
  189ACOH    O210406   5.695   1.648   2.141
  189ACOH    C210407   5.792   1.725   2.193
  189ACOH    O110408   5.909   1.695   2.207
  189ACOH    C110409   5.738   1.858   2.231
  189ACOH    H110410   5.696   1.906   2.143
  189ACOH    H210411   5.816   1.921   2.273
  189ACOH    H310412   5.659   1.845   2.305
  190ACOH    H410413   7.915   1.924   6.847
  190ACOH    O210414   7.861   1.950   6.768
  190ACOH    C210415   7.887   1.863   6.670
  190ACOH    O110416   7.967   1.771   6.672
  190ACOH    C110417   7.807   1.893   6.549
  190ACOH    H110418   7.875   1.919   6.468
  190ACOH    H210419   7.740   1.976   6.567
  190ACOH    H310420   7.749   1.806   6.520
  191ACOH    H410421   5.251   5.342   7.352
  191ACOH    O210422   5.231   5.372   7.259
  191ACOH    C210423   5.099   5.401   7.254
  191ACOH    O110424   5.024   5.413   7.349
  191ACOH    C110425   5.053   5.427   7.116
  191ACOH    H110426   5.023   5.531   7.106
  191ACOH    H210427   4.969   5.363   7.093
  191ACOH    H310428   5.133   5.406   7.045
  192ACOH    H410429   3.073   1.554   1.078
  192ACOH    O210430   3.166   1.577   1.054
  192ACOH    C210431   3.219   1.644   1.158
  192ACOH    O110432   3.167   1.664   1.266
  192ACOH    C110433   3.357   1.691   1.126
  192ACOH    H110434   3.362   1.799   1.135
  192ACOH    H210435   3.385   1.662   1.025
  192ACOH    H310436   3.426   1.646   1.196
  193ACOH    H410437   1.804   2.890   1.915
  193ACOH    O210438   1.784   2.931   1.826
  193ACOH    C210439   1.733   3.053   1.851
  193ACOH    O110440   1.721   3.107   1.960
  193ACOH    C110441   1.702   3.122   1.724
  193ACOH    H110442   1.791   3.126   1.661
  193ACOH    H210443   1.667   3.224   1.742
  193ACOH    H310444   1.624   3.068   1.671
  194ACOH    H410445   0.787   0.093   2.378
  194ACOH    O210446   0.879   0.130   2.387
  194ACOH    C210447   0.918   0.168   2.263
  194ACOH    O110448   0.857   0.154   2.159
  194ACOH    C110449   1.055   0.226   2.266
  194ACOH    H110450   1.054   0.324   2.220
  194ACOH    H210451   1.123   0.162   2.211
  194ACOH    H310452   1.091   0.236   2.368
  195ACOH    H410453   7.748   4.556   6.406
  195ACOH    O210454   7.708   4.585   6.320
  195ACOH    C210455   7.800   4.663   6.260
  195ACOH    O110456   7.900   4.711   6.310
  195ACOH    C110457   7.756   4.693   6.122
  195ACOH    H110458   7.825   4.763   6.074
  195ACOH    H210459   7.657   4.736   6.124
  195ACOH    H310460   7.754   4.601   6.064
  196ACOH    H410461   4.272   0.454   2.013
  196ACOH    O210462   4.364   0.477   1.985
  196ACOH    C210463   4.405   0.374   1.909
  196ACOH    O110464   4.367   0.258   1.917
  196ACOH    C110465   4.523   0.413   1.829
  196ACOH    H110466   4.554   0.333   1.762
  196ACOH    H210467   4.605   0.437   1.895
  196ACOH    H310468   4.499   0.502   1.770
  197ACOH    H410469   6.999   9.316   4.236
  197ACOH    O210470   7.031   9.399   4.190
  197ACOH    C210471   7.004   9.500   4.275
  197ACOH    O110472   6.918   9.499   4.361
  197ACOH    C110473   7.071   9.625   4.230
  197ACOH    H110474   7.178   9.616   4.246
  197ACOH    H210475   7.034   9.710   4.287
  197ACOH    H310476   7.052   9.641   4.125
  198ACOH    H410477   6.460   9.959   0.993
  198ACOH    O210478   6.510   9.943   0.908
  198ACOH    C210479   6.637   9.981   0.930
  198ACOH    O110480   6.677   0.050   1.022
  198ACOH    C110481   6.725   9.942   0.818
  198ACOH    H110482   6.810   9.885   0.856
  198ACOH    H210483   6.762   0.031   0.768
  198ACOH    H310484   6.671   9.881   0.746
  199ACOH    H410485   0.272   5.196   5.086
  199ACOH    O210486   0.307   5.288   5.071
  199ACOH    C210487   0.369   5.325   5.185
  199ACOH    O110488   0.414   5.248   5.268
  199ACOH    C110489   0.410   5.467   5.180
  199ACOH    H110490   0.515   5.474   5.155
  199ACOH    H210491   0.393   5.514   5.277
  199ACOH    H310492   0.352   5.521   5.106
  200ACOH    H410493   7.194   3.767   7.514
  200ACOH    O210494   7.103   3.735   7.543
  200ACOH    C210495   7.019   3.838   7.525
  200ACOH    O110496   7.050   3.955   7.510
  200ACOH    C110497   6.880   3.797   7.555
  200ACOH    H110498   6.810   3.849   7.488
  200ACOH    H210499   6.855   3.822   7.658
  200ACOH    H310500   6.868   3.690   7.541
  201ACOH    H410501   7.044   5.950   3.477
  201ACOH    O210502   7.008   5.861   3.506
  201ACOH    C210503   7.110   5.799   3.569
  201ACOH    O110504   7.228   5.813   3.544
  201ACOH    C110505   7.061   5.681   3.645
  201ACOH    H110506   7.116   5.672   3.738
  201ACOH    H210507   7.074   5.591   3.586
  201ACOH    H310508   6.956   5.693   3.669
  202ACOH    H410509   7.609   2.770   8.025
  202ACOH    O210510   7.656   2.827   7.962
  202ACOH    C210511   7.636   2.772   7.841
  202ACOH    O110512   7.572   2.672   7.818
  202ACOH    C110513   7.705   2.849   7.735
  202ACOH    H110514   7.702   2.796   7.641
  202ACOH    H210515   7.809   2.865   7.763
  202ACOH    H310516   7.656   2.945   7.724
  203ACOH    H410517   0.448   1.282   5.470
  203ACOH    O210518   0.530   1.233   5.441
  203ACOH    C210519   0.542   1.131   5.529
  203ACOH    O110520   0.509   1.134   5.646
  203ACOH    C110521   0.634   1.028   5.475
  203ACOH    H110522   0.724   1.075   5.436
  203ACOH    H210523   0.584   0.975   5.395
  203ACOH    H310524   0.662   0.957   5.553
  204ACOH    H410525   4.835   1.599   1.410
  204ACOH    O210526   4.799   1.566   1.497
  204ACOH    C210527   4.796   1.432   1.489
  204ACOH    O110528   4.860   1.364   1.411
  204ACOH    C110529   4.729   1.371   1.607
  204ACOH    H110530   4.666   1.444   1.657
  204ACOH    H210531   4.804   1.335   1.677
  204ACOH    H310532   4.667   1.288   1.575
  205ACOH    H410533   6.906   6.921   7.094
  205ACOH    O210534   6.864   6.937   7.183
  205ACOH    C210535   6.769   7.030   7.165
  205ACOH    O110536   6.763   7.109   7.073
  205ACOH    C110537   6.687   7.047   7.287
  205ACOH    H110538   6.699   6.962   7.354
  205ACOH    H210539   6.583   7.057   7.260
  205ACOH    H310540   6.719   7.138   7.339
  206ACOH    H410541   5.054   0.468   4.765
  206ACOH    O210542   4.980   0.402   4.777
  206ACOH    C210543   4.877   0.444   4.701
  206ACOH    O110544   4.878   0.535   4.619
  206ACOH    C110545   4.758   0.358   4.720
  206ACOH    H110546   4.778   0.281   4.794
  206ACOH    H210547   4.731   0.311   4.626
  206ACOH    H310548   4.674   0.418   4.754
  207ACOH    H410549   6.986   9.188   2.735
  207ACOH    O210550   6.961   9.261   2.798
  207ACOH    C210551   7.071   9.336   2.815
  207ACOH    O110552   7.185   9.306   2.785
  207ACOH    C110553   7.038   9.461   2.888
  207ACOH    H110554   6.973   9.523   2.827
  207ACOH    H210555   7.129   9.517   2.911
  207ACOH    H310556   6.987   9.437   2.981
  208ACOH    H410557   5.230   6.156   1.869
  208ACOH    O210558   5.306   6.189   1.814
  208ACOH    C210559   5.374   6.272   1.896
  208ACOH    O110560   5.328   6.334   1.990
  208ACOH    C110561   5.509   6.303   1.842
  208ACOH    H110562   5.512   6.407   1.810
  208ACOH    H210563   5.532   6.239   1.757
  208ACOH    H310564   5.583   6.286   1.919
  209ACOH    H410565   6.067   2.696   3.448
  209ACOH    O210566   5.995   2.745   3.398
  209ACOH    C210567   6.029   2.748   3.268
  209ACOH    O110568   6.121   2.690   3.213
  209ACOH    C110569   5.933   2.832   3.193
  209ACOH    H110570   5.934   2.932   3.235
  209ACOH    H210571   5.833   2.791   3.203
  209ACOH    H310572   5.960   2.838   3.088
  210ACOH    H410573   5.955   9.432   8.153
  210ACOH    O210574   6.042   9.433   8.200
  210ACOH    C210575   6.114   9.534   8.150
  210ACOH    O110576   6.082   9.609   8.059
  210ACOH    C110577   6.244   9.543   8.221
  210ACOH    H110578   6.297   9.449   8.212
  210ACOH    H210579   6.227   9.564   8.326
  210ACOH    H310580   6.305   9.623   8.179
  211ACOH    H410581   7.702   3.296   7.365
  211ACOH    O210582   7.787   3.311   7.315
  211ACOH    C210583   7.807   3.444   7.308
  211ACOH    O110584   7.735   3.531   7.354
  211ACOH    C110585   7.930   3.475   7.232
  211ACOH    H110586   7.998   3.531   7.295
  211ACOH    H210587   7.905   3.535   7.145
  211ACOH    H310588   7.979   3.383   7.199
  212ACOH    H410589   5.521   3.716   2.594
  212ACOH    O210590   5.528   3.724   2.693
  212ACOH    C210591   5.634   3.651   2.731
  212ACOH    O110592   5.694   3.568   2.664
  212ACOH    C110593   5.663   3.668   2.876
  212ACOH    H110594   5.766   3.701   2.888
  212ACOH    H210595   5.649   3.574   2.928
  212ACOH    H310596   5.597   3.743   2.919
  213ACOH    H410597   8.244   4.557   6.783
  213ACOH    O210598   8.261   4.563   6.685
  213ACOH    C210599   8.177   4.656   6.637
  213ACOH    O110600   8.106   4.732   6.702
  213ACOH    C110601   8.191   4.667   6.490
  213ACOH    H110602   8.157   4.576   6.443
  213ACOH    H210603   8.296   4.684   6.464
  213ACOH    H310604   8.132   4.750   6.452
  214ACOH    H410605   5.107   6.463   8.189
  214ACOH    O210606   5.168   6.422   8.127
  214ACOH    C210607   5.109   6.427   8.006
  214ACOH    O110608   4.999   6.472   7.982
  214ACOH    C110609   5.193   6.364   7.901
  214ACOH    H110610   5.287   6.330   7.943
  214ACOH    H210611   5.214   6.436   7.823
  214ACOH    H310612   5.141   6.279   7.858
  215ACOH    H410613   3.344   3.169   6.654
  215ACOH    O210614   3.397   3.088   6.634
  215ACOH    C210615   3.353   3.041   6.516
  215ACOH    O110616   3.261   3.085   6.449
  215ACOH    C110617   3.429   2.921   6.477
  215ACOH    H110618   3.533   2.948   6.457
  215ACOH    H210619   3.388   2.876   6.387
  215ACOH    H310620   3.427   2.847   6.557
  216ACOH    H410621   4.313   6.957   1.633
  216ACOH    O210622   4.330   6.949   1.731
  216ACOH    C210623   4.385   6.828   1.748
  216ACOH    O110624   4.417   6.750   1.660
  216ACOH    C110625   4.418   6.804   1.891
  216ACOH    H110626   4.525   6.809   1.904
  216ACOH    H210627   4.385   6.704   1.919
  216ACOH    H310628   4.370   6.877   1.955
  217ACOH    H410629   6.984   6.246   6.179
  217ACOH    O210630   6.917   6.186   6.138
  217ACOH    C210631   6.968   6.062   6.136
  217ACOH    O110632   7.078   6.029   6.177
  217ACOH    C110633   6.875   5.964   6.076
  217ACOH    H110634   6.926   5.906   5.999
  217ACOH    H210635   6.791   6.015   6.030
  217ACOH    H310636   6.838   5.897   6.153
  218ACOH    H410637   6.609   0.878   0.438
  218ACOH    O210638   6.518   0.864   0.399
  218ACOH    C210639   6.465   0.757   0.460
  218ACOH    O110640   6.523   0.678   0.533
  218ACOH    C110641   6.324   0.736   0.420
  218ACOH    H110642   6.261   0.735   0.509
  218ACOH    H210643   6.314   0.641   0.369
  218ACOH    H310644   6.290   0.816   0.354
  219ACOH    H410645   0.965   8.717   6.239
  219ACOH    O210646   0.888   8.774   6.214
  219ACOH    C210647   0.926   8.844   6.106
  219ACOH    O110648   1.023   8.820   6.036
  219ACOH    C110649   0.828   8.948   6.068
  219ACOH    H110650   0.876   9.045   6.066
  219ACOH    H210651   0.746   8.951   6.140
  219ACOH    H310652   0.787   8.927   5.970
  220ACOH    H410653   7.561   7.199   0.834
  220ACOH    O210654   7.565   7.112   0.786
  220ACOH    C210655   7.611   7.138   0.663
  220ACOH    O110656   7.622   7.248   0.611
  220ACOH    C110657   7.641   7.013   0.590
  220ACOH    H110658   7.623   6.926   0.653
  220ACOH    H210659   7.745   7.012   0.560
  220ACOH    H310660   7.578   7.005   0.502
  221ACOH    H410661   8.033   4.224   6.053
  221ACOH    O210662   7.936   4.209   6.038
  221ACOH    C210663   7.887   4.320   5.980
  221ACOH    O110664   7.943   4.428   5.972
  221ACOH    C110665   7.746   4.302   5.938
  221ACOH    H110666   7.682   4.367   5.997
  221ACOH    H210667   7.715   4.199   5.951
  221ACOH    H310668   7.736   4.329   5.833
  222ACOH    H410669   7.859   3.792   3.753
  222ACOH    O210670   7.865   3.857   3.828
  222ACOH    C210671   7.856   3.980   3.776
  222ACOH    O110672   7.861   4.012   3.658
  222ACOH    C110673   7.850   4.080   3.885
  222ACOH    H110674   7.761   4.062   3.945
  222ACOH    H210675   7.846   4.181   3.845
  222ACOH    H310676   7.937   4.071   3.948
  223ACOH    H410677   6.371   7.184   2.469
  223ACOH    O210678   6.373   7.093   2.428
  223ACOH    C210679   6.439   7.104   2.311
  223ACOH    O110680   6.473   7.207   2.256
  223ACOH    C110681   6.456   6.972   2.247
  223ACOH    H110682   6.421   6.892   2.312
  223ACOH    H210683   6.561   6.956   2.225
  223ACOH    H310684   6.400   6.969   2.154
  224ACOH    H410685   7.923   7.193   0.521
  224ACOH    O210686   7.914   7.163   0.425
  224ACOH    C210687   7.928   7.274   0.350
  224ACOH    O110688   7.941   7.389   0.389
  224ACOH    C110689   7.921   7.239   0.206
  224ACOH    H110690   7.926   7.328   0.144
  224ACOH    H210691   7.828   7.187   0.186
  224ACOH    H310692   8.005   7.174   0.181
  225ACOH    H410693   5.827   0.975   8.266
  225ACOH    O210694   5.841   0.895   8.213
  225ACOH    C210695   5.772   0.914   8.099
  225ACOH    O110696   5.707   1.012   8.070
  225ACOH    C110697   5.784   0.795   8.011
  225ACOH    H110698   5.719   0.806   7.924
  225ACOH    H210699   5.756   0.706   8.066
  225ACOH    H310700   5.887   0.786   7.977
  226ACOH    H410701   5.955   7.418   6.431
  226ACOH    O210702   5.904   7.336   6.455
  226ACOH    C210703   5.965   7.233   6.393
  226ACOH    O110704   6.055   7.240   6.312
  226ACOH    C110705   5.897   7.104   6.424
  226ACOH    H110706   5.971   7.031   6.455
  226ACOH    H210707   5.846   7.067   6.336
  226ACOH    H310708   5.826   7.117   6.505
  227ACOH    H410709   6.823   5.901   2.499
  227ACOH    O210710   6.808   5.919   2.597
  227ACOH    C210711   6.725   5.823   2.641
  227ACOH    O110712   6.671   5.737   2.574
  227ACOH    C110713   6.702   5.837   2.787
  227ACOH    H110714   6.663   5.936   2.808
  227ACOH    H210715   6.795   5.822   2.841
  227ACOH    H310716   6.630   5.763   2.821
  228ACOH    H410717   7.482   5.622   4.432
  228ACOH    O210718   7.449   5.542   4.481
  228ACOH    C210719   7.315   5.539   4.468
  228ACOH    O110720   7.245   5.618   4.409
  228ACOH    C110721   7.259   5.420   4.537
  228ACOH    H110722   7.297   5.417   4.638
  228ACOH    H210723   7.290   5.330   4.484
  228ACOH    H310724   7.151   5.425   4.539
  229ACOH    H410725   4.986   5.772   7.424
  229ACOH    O210726   5.083   5.754   7.407
  229ACOH    C210727   5.130   5.687   7.514
  229ACOH    O110728   5.077   5.683   7.624
  229ACOH    C110729   5.268   5.638   7.491
  229ACOH    H110730   5.338   5.700   7.545
  229ACOH    H210731   5.292   5.641   7.385
  229ACOH    H310732   5.277   5.536   7.527
  230ACOH    H410733   7.580   8.919   7.438
  230ACOH    O210734   7.615   9.010   7.413
  230ACOH    C210735   7.749   8.998   7.412
  230ACOH    O110736   7.815   8.896   7.424
  230ACOH    C110737   7.811   9.130   7.386
  230ACOH    H110738   7.782   9.166   7.287
  230ACOH    H210739   7.919   9.124   7.391
  230ACOH    H310740   7.776   9.201   7.460
  231ACOH    H410741   7.124   5.824   4.734
  231ACOH    O210742   7.133   5.733   4.773
  231ACOH    C210743   7.262   5.715   4.804
  231ACOH    O110744   7.356   5.787   4.776
  231ACOH    C110745   7.280   5.586   4.875
  231ACOH    H110746   7.217   5.510   4.830
  231ACOH    H210747   7.250   5.597   4.979
  231ACOH    H310748   7.383   5.553   4.871
  232ACOH    H410749   7.835   2.278   5.741
  232ACOH    O210750   7.754   2.334   5.758
  232ACOH    C210751   7.700   2.289   5.872
  232ACOH    O110752   7.717   2.179   5.921
  232ACOH    C110753   7.592   2.380   5.917
  232ACOH    H110754   7.518   2.391   5.838
  232ACOH    H210755   7.634   2.477   5.940
  232ACOH    H310756   7.543   2.340   6.006
  233ACOH    H410757   8.506   7.130   1.831
  233ACOH    O210758   8.438   7.083   1.776
  233ACOH    C210759   8.351   7.175   1.732
  233ACOH    O110760   8.368   7.296   1.731
  233ACOH    C110761   8.239   7.113   1.659
  233ACOH    H110762   8.248   7.133   1.553
  233ACOH    H210763   8.145   7.154   1.695
  233ACOH    H310764   8.238   7.005   1.675
  234ACOH    H410765   6.443   5.566   7.404
  234ACOH    O210766   6.348   5.582   7.434
  234ACOH    C210767   6.345   5.704   7.490
  234ACOH    O110768   6.440   5.777   7.512
  234ACOH    C110769   6.207   5.740   7.528
  234ACOH    H110770   6.169   5.667   7.599
  234ACOH    H210771   6.144   5.741   7.439
  234ACOH    H310772   6.204   5.839   7.574
  235ACOH    H410773   7.834   5.153   5.211
  235ACOH    O210774   7.789   5.181   5.127
  235ACOH    C210775   7.877   5.162   5.028
  235ACOH    O110776   7.984   5.104   5.037
  235ACOH    C110777   7.820   5.208   4.899
  235ACOH    H110778   7.884   5.179   4.816
  235ACOH    H210779   7.812   5.316   4.900
  235ACOH    H310780   7.722   5.164   4.885
  236ACOH    H410781   7.004   1.366   3.622
  236ACOH    O210782   7.071   1.317   3.565
  236ACOH    C210783   7.008   1.214   3.506
  236ACOH    O110784   6.887   1.203   3.490
  236ACOH    C110785   7.106   1.126   3.438
  236ACOH    H110786   7.056   1.052   3.376
  236ACOH    H210787   7.164   1.074   3.514
  236ACOH    H310788   7.173   1.185   3.377
  237ACOH    H410789   9.792   4.103   3.515
  237ACOH    O210790   9.856   4.179   3.526
  237ACOH    C210791   9.875   4.228   3.402
  237ACOH    O110792   9.841   4.176   3.297
  237ACOH    C110793   9.958   4.351   3.404
  237ACOH    H110794   9.908   4.428   3.346
  237ACOH    H210795   0.055   4.331   3.360
  237ACOH    H310796   9.972   4.387   3.505
  238ACOH    H410797   1.949   8.108   0.412
  238ACOH    O210798   1.921   8.049   0.337
  238ACOH    C210799   2.004   7.943   0.334
  238ACOH    O110800   2.080   7.907   0.422
  238ACOH    C110801   1.979   7.860   0.213
  238ACOH    H110802   1.942   7.763   0.242
  238ACOH    H210803   2.072   7.848   0.159
  238ACOH    H310804   1.907   7.909   0.148
  239ACOH    H410805   0.438   3.179   3.818
  239ACOH    O210806   0.360   3.237   3.840
  239ACOH    C210807   0.390   3.301   3.954
  239ACOH    O110808   0.501   3.311   4.005
  239ACOH    C110809   0.271   3.369   4.010
  239ACOH    H110810   0.296   3.423   4.101
  239ACOH    H210811   0.195   3.295   4.033
  239ACOH    H310812   0.231   3.439   3.937
  240ACOH    H410813   4.554   4.947   4.565
  240ACOH    O210814   4.522   4.853   4.559
  240ACOH    C210815   4.575   4.789   4.665
  240ACOH    O110816   4.663   4.829   4.739
  240ACOH    C110817   4.521   4.651   4.674
  240ACOH    H110818   4.572   4.594   4.751
  240ACOH    H210819   4.533   4.600   4.579
  240ACOH    H310820   4.415   4.655   4.699
  241ACOH    H410821   7.093   0.581   0.017
  241ACOH    O210822   7.113   0.495  10.059
  241ACOH    C210823   7.103   0.403   0.075
  241ACOH    O110824   7.072   0.425   0.191
  241ACOH    C110825   7.137   0.267   0.027
  241ACOH    H110826   7.164   0.269  10.004
  241ACOH    H210827   7.051   0.202   0.040
  241ACOH    H310828   7.220   0.228   0.085
  242ACOH    H410829   7.090   6.556   4.176
  242ACOH    O210830   6.999   6.552   4.218
  242ACOH    C210831   7.020   6.521   4.347
  242ACOH    O110832   7.117   6.465   4.394
  242ACOH    C110833   6.895   6.538   4.427
  242ACOH    H110834   6.860   6.441   4.460
  242ACOH    H210835   6.818   6.585   4.367
  242ACOH    H310836   6.916   6.601   4.513
  243ACOH    H410837   2.160   5.561   4.334
  243ACOH    O210838   2.175   5.559   4.236
  243ACOH    C210839   2.053   5.563   4.178
  243ACOH    O110840   1.945   5.558   4.234
  243ACOH    C110841   2.067   5.565   4.031
  243ACOH    H110842   1.971   5.555   3.982
  243ACOH    H210843   2.131   5.483   4.000
  243ACOH    H310844   2.112   5.659   4.000
  244ACOH    H410845   6.332   1.842  10.029
  244ACOH    O210846   6.235   1.840  10.041
  244ACOH    C210847   6.216   1.846   0.092
  244ACOH    O110848   6.289   1.904   0.171
  244ACOH    C110849   6.080   1.800   0.130
  244ACOH    H110850   6.088   1.723   0.206
  244ACOH    H210851   6.028   1.760   0.044
  244ACOH    H310852   6.024   1.884   0.171
  245ACOH    H410853   5.626   8.003   2.167
  245ACOH    O210854   5.675   7.919   2.148
  245ACOH    C210855   5.797   7.956   2.103
  245ACOH    O110856   5.840   8.069   2.095
  245ACOH    C110857   5.878   7.838   2.063
  245ACOH    H110858   5.969   7.834   2.123
  245ACOH    H210859   5.906   7.847   1.958
  245ACOH    H310860   5.823   7.746   2.077
  246ACOH    H410861   6.887   4.514   3.426
  246ACOH    O210862   6.805   4.551   3.466
  246ACOH    C210863   6.827   4.680   3.497
  246ACOH    O110864   6.930   4.743   3.481
  246ACOH    C110865   6.705   4.739   3.557
  246ACOH    H110866   6.620   4.723   3.490
  246ACOH    H210867   6.717   4.846   3.573
  246ACOH    H310868   6.684   4.692   3.652
  247ACOH    H410869   7.996   2.542   5.886
  247ACOH    O210870   7.976   2.463   5.944
  247ACOH    C210871   8.093   2.403   5.971
  247ACOH    O110872   8.205   2.442   5.942
  247ACOH    C110873   8.070   2.280   6.049
  247ACOH    H110874   8.012   2.210   5.990
  247ACOH    H210875   8.014   2.303   6.139
  247ACOH    H310876   8.164   2.233   6.078
  248ACOH    H410877   4.965   5.616   3.407
  248ACOH    O210878   5.050   5.647   3.447
  248ACOH    C210879   5.036   5.645   3.581
  248ACOH    O110880   4.941   5.604   3.646
  248ACOH    C110881   5.160   5.694   3.646
  248ACOH    H110882   5.243   5.630   3.619
  248ACOH    H210883   5.149   5.696   3.754
  248ACOH    H310884   5.181   5.795   3.611
  249ACOH    H410885   7.603   9.998   0.313
  249ACOH    O210886   7.535   9.939   0.269
  249ACOH    C210887   7.601   9.869   0.175
  249ACOH    O110888   7.721   9.867   0.156
  249ACOH    C110889   7.509   9.785   0.093
  249ACOH    H110890   7.517   9.815  10.071
  249ACOH    H210891   7.406   9.798   0.126
  249ACOH    H310892   7.537   9.681   0.103
  250ACOH    H410893   7.644   2.897   2.191
  250ACOH    O210894   7.649   2.996   2.189
  250ACOH    C210895   7.600   3.033   2.069
  250ACOH    O110896   7.597   2.963   1.970
  250ACOH    C110897   7.582   3.180   2.065
  250ACOH    H110898   7.506   3.210   2.137
  250ACOH    H210899   7.548   3.211   1.966
  250ACOH    H310900   7.675   3.231   2.087
  251ACOH    H410901   9.457   8.136   4.133
  251ACOH    O210902   9.519   8.083   4.189
  251ACOH    C210903   9.483   7.954   4.176
  251ACOH    O110904   9.380   7.912   4.127
  251ACOH    C110905   9.583   7.864   4.238
  251ACOH    H110906   9.664   7.921   4.283
  251ACOH    H210907   9.625   7.799   4.162
  251ACOH    H310908   9.537   7.803   4.315
  252ACOH    H410909   7.953   5.003   1.301
  252ACOH    O210910   8.019   4.982   1.230
  252ACOH    C210911   8.141   4.994   1.284
  252ACOH    O110912   8.169   5.053   1.387
  252ACOH    C110913   8.246   4.945   1.191
  252ACOH    H110914   8.314   4.879   1.243
  252ACOH    H210915   8.301   5.029   1.151
  252ACOH    H310916   8.200   4.890   1.108
  253ACOH    H410917   5.942   9.754   8.170
  253ACOH    O210918   5.908   9.735   8.259
  253ACOH    C210919   6.001   9.779   8.346
  253ACOH    O110920   6.105   9.834   8.319
  253ACOH    C110921   5.965   9.745   8.486
  253ACOH    H110922   5.964   9.835   8.546
  253ACOH    H210923   6.038   9.676   8.526
  253ACOH    H310924   5.866   9.699   8.490
  254ACOH    H410925   1.036   5.954   2.835
  254ACOH    O210926   1.117   5.990   2.789
  254ACOH    C210927   1.195   6.043   2.885
  254ACOH    O110928   1.165   6.058   3.002
  254ACOH    C110929   1.325   6.089   2.832
  254ACOH    H110930   1.335   6.064   2.727
  254ACOH    H210931   1.406   6.043   2.888
  254ACOH    H310932   1.332   6.197   2.843
  255ACOH    H410933   6.547   2.236   5.971
  255ACOH    O210934   6.450   2.245   5.991
  255ACOH    C210935   6.420   2.154   6.085
  255ACOH    O110936   6.496   2.075   6.136
  255ACOH    C110937   6.277   2.162   6.124
  255ACOH    H110938   6.269   2.194   6.227
  255ACOH    H210939   6.231   2.064   6.114
  255ACOH    H310940   6.224   2.233   6.061
  256ACOH    H410941   5.773   8.336   7.169
  256ACOH    O210942   5.850   8.273   7.160
  256ACOH    C210943   5.949   8.325   7.235
  256ACOH    O110944   5.961   8.441   7.268
  256ACOH    C110945   6.060   8.227   7.251
  256ACOH    H110946   6.142   8.254   7.185
  256ACOH    H210947   6.026   8.127   7.227
  256ACOH    H310948   6.096   8.229   7.353
  257ACOH    H410949   3.825   7.980   7.158
  257ACOH    O210950   3.765   7.935   7.223
  257ACOH    C210951   3.842   7.882   7.319
  257ACOH    O110952   3.953   7.922   7.351
  257ACOH    C110953   3.764   7.791   7.406
  257ACOH    H110954   3.669   7.838   7.432
  257ACOH    H210955   3.817   7.767   7.498
  257ACOH    H310956   3.743   7.699   7.353
  258ACOH    H410957   6.733   2.623   5.951
  258ACOH    O210958   6.765   2.661   5.868
  258ACOH    C210959   6.846   2.569   5.812
  258ACOH    O110960   6.878   2.463   5.862
  258ACOH    C110961   6.900   2.617   5.682
  258ACOH    H110962   6.953   2.711   5.697
  258ACOH    H210963   6.818   2.632   5.612
  258ACOH    H310964   6.969   2.544   5.640
  259ACOH    H410965   9.287   7.805   5.025
  259ACOH    O210966   9.271   7.712   5.059
  259ACOH    C210967   9.155   7.714   5.126
  259ACOH    O110968   9.095   7.813   5.167
  259ACOH    C110969   9.114   7.578   5.164
  259ACOH    H110970   9.198   7.525   5.209
  259ACOH    H210971   9.083   7.524   5.075
  259ACOH    H310972   9.032   7.579   5.236
  260ACOH    H410973   6.468   2.498   5.441
  260ACOH    O210974   6.419   2.547   5.512
  260ACOH    C210975   6.491   2.538   5.625
  260ACOH    O110976   6.578   2.457   5.650
  260ACOH    C110977   6.437   2.628   5.731
  260ACOH    H110978   6.392   2.569   5.810
  260ACOH    H210979   6.363   2.695   5.689
  260ACOH    H310980   6.519   2.687   5.772
  261ACOH    H410981   5.458   2.513   5.099
  261ACOH    O210982   5.402   2.431   5.099
  261ACOH    C210983   5.371   2.405   5.227
  261ACOH    O110984   5.385   2.480   5.322
  261ACOH    C110985   5.299   2.276   5.239
  261ACOH    H110986   5.361   2.195   5.202
  261ACOH    H210987   5.208   2.281   5.180
  261ACOH    H310988   5.272   2.256   5.342
  262ACOH    H410989   8.084   8.803   0.711
  262ACOH    O210990   8.013   8.736   0.691
  262ACOH    C210991   7.951   8.712   0.807
  262ACOH    O110992   7.934   8.790   0.898
  262ACOH    C110993   7.879   8.582   0.803
  262ACOH    H110994   7.911   8.520   0.887
  262ACOH    H210995   7.900   8.529   0.711
  262ACOH    H310996   7.772   8.599   0.812
  263ACOH    H410997   4.524   5.453   8.323
  263ACOH    O210998   4.519   5.376   8.264
  263ACOH    C210999   4.390   5.336   8.267
  263ACOH    O111000   4.299   5.394   8.322
  263ACOH    C111001   4.369   5.212   8.188
  263ACOH    H111002   4.302   5.233   8.105
  263ACOH    H211003   4.324   5.136   8.251
  263ACOH    H311004   4.463   5.174   8.148
  264ACOH    H411005   5.197   3.937   6.340
  264ACOH    O211006   5.201   3.842   6.368
  264ACOH    C211007   5.227   3.771   6.256
  264ACOH    O111008   5.238   3.814   6.143
  264ACOH    C111009   5.239   3.627   6.288
  264ACOH    H111010   5.147   3.593   6.336
  264ACOH    H211011   5.322   3.611   6.356
  264ACOH    H311012   5.255   3.568   6.198
  265ACOH    H411013   7.901   4.011   4.852
  265ACOH    O211014   7.896   4.110   4.866
  265ACOH    C211015   7.822   4.130   4.977
  265ACOH    O111016   7.780   4.044   5.053
  265ACOH    C111017   7.801   4.274   5.006
  265ACOH    H111018   7.853   4.300   5.098
  265ACOH    H211019   7.695   4.294   5.017
  265ACOH    H311020   7.841   4.335   4.925
  266ACOH    H411021   7.178   6.209   3.838
  266ACOH    O211022   7.084   6.235   3.819
  266ACOH    C211023   7.018   6.120   3.792
  266ACOH    O111024   7.061   6.007   3.804
  266ACOH    C111025   6.876   6.149   3.758
  266ACOH    H111026   6.819   6.056   3.751
  266ACOH    H211027   6.873   6.200   3.662
  266ACOH    H311028   6.833   6.213   3.834
  267ACOH    H411029   4.888   7.501   5.249
  267ACOH    O211030   4.966   7.445   5.276
  267ACOH    C211031   5.040   7.424   5.165
  267ACOH    O111032   5.003   7.430   5.050
  267ACOH    C111033   5.172   7.369   5.204
  267ACOH    H111034   5.228   7.445   5.257
  267ACOH    H211035   5.228   7.338   5.116
  267ACOH    H311036   5.159   7.283   5.269
  268ACOH    H411037   4.967   3.476   2.366
  268ACOH    O211038   5.048   3.533   2.367
  268ACOH    C211039   5.017   3.644   2.437
  268ACOH    O111040   4.912   3.668   2.493
  268ACOH    C111041   5.130   3.740   2.437
  268ACOH    H111042   5.218   3.698   2.389
  268ACOH    H211043   5.155   3.767   2.540
  268ACOH    H311044   5.101   3.830   2.383
  269ACOH    H411045   5.256   7.738   1.020
  269ACOH    O211046   5.295   7.670   0.958
  269ACOH    C211047   5.194   7.617   0.885
  269ACOH    O111048   5.075   7.639   0.898
  269ACOH    C111049   5.245   7.519   0.787
  269ACOH    H111050   5.203   7.421   0.808
  269ACOH    H211051   5.353   7.512   0.790
  269ACOH    H311052   5.215   7.548   0.686
  270ACOH    H411053   8.355   1.042   0.595
  270ACOH    O211054   8.444   1.005   0.570
  270ACOH    C211055   8.476   0.916   0.666
  270ACOH    O111056   8.409   0.888   0.764
  270ACOH    C111057   8.606   0.851   0.637
  270ACOH    H111058   8.601   0.800   0.541
  270ACOH    H211059   8.632   0.779   0.714
  270ACOH    H311060   8.684   0.927   0.632
  271ACOH    H411061   5.334   4.850   2.883
  271ACOH    O211062   5.283   4.858   2.968
  271ACOH    C211063   5.158   4.815   2.946
  271ACOH    O111064   5.106   4.788   2.839
  271ACOH    C111065   5.081   4.816   3.073
  271ACOH    H111066   5.127   4.747   3.143
  271ACOH    H211067   4.978   4.786   3.057
  271ACOH    H311068   5.083   4.916   3.115
  272ACOH    H411069   5.165   4.925   6.422
  272ACOH    O211070   5.195   5.020   6.415
  272ACOH    C211071   5.193   5.053   6.285
  272ACOH    O111072   5.151   4.986   6.192
  272ACOH    C111073   5.239   5.193   6.267
  272ACOH    H111074   5.344   5.199   6.293
  272ACOH    H211075   5.183   5.259   6.332
  272ACOH    H311076   5.227   5.224   6.164
  273ACOH    H411077   1.110   7.089   1.892
  273ACOH    O211078   1.103   7.178   1.938
  273ACOH    C211079   1.090   7.149   2.069
  273ACOH    O111080   1.063   7.040   2.117
  273ACOH    C111081   1.093   7.273   2.149
  273ACOH    H111082   1.194   7.315   2.147
  273ACOH    H211083   1.065   7.253   2.252
  273ACOH    H311084   1.024   7.346   2.108
  274ACOH    H411085   5.043   2.630   2.019
  274ACOH    O211086   4.944   2.619   2.018
  274ACOH    C211087   4.917   2.507   1.949
  274ACOH    O111088   4.992   2.448   1.873
  274ACOH    C111089   4.773   2.473   1.956
  274ACOH    H111090   4.725   2.525   2.039
  274ACOH    H211091   4.761   2.366   1.970
  274ACOH    H311092   4.724   2.502   1.864
  275ACOH    H411093   1.771   2.502   4.649
  275ACOH    O211094   1.765   2.541   4.741
  275ACOH    C211095   1.865   2.487   4.812
  275ACOH    O111096   1.924   2.383   4.788
  275ACOH    C111097   1.888   2.565   4.936
  275ACOH    H111098   1.921   2.665   4.910
  275ACOH    H211099   1.964   2.517   4.997
  275ACOH    H311100   1.796   2.571   4.993
  276ACOH    H411101   5.132   7.193   0.562
  276ACOH    O211102   5.203   7.124   0.576
  276ACOH    C211103   5.165   7.044   0.677
  276ACOH    O111104   5.074   7.062   0.756
  276ACOH    C111105   5.263   6.934   0.694
  276ACOH    H111106   5.257   6.869   0.607
  276ACOH    H211107   5.240   6.876   0.783
  276ACOH    H311108   5.363   6.976   0.702
  277ACOH    H411109   4.989   2.315   4.660
  277ACOH    O211110   4.987   2.317   4.559
  277ACOH    C211111   5.076   2.411   4.521
  277ACOH    O111112   5.136   2.487   4.595
  277ACOH    C111113   5.086   2.421   4.374
  277ACOH    H111114   5.049   2.518   4.341
  277ACOH    H211115   5.026   2.343   4.325
  277ACOH    H311116   5.189   2.410   4.343
  278ACOH    H411117   4.081   5.572   4.736
  278ACOH    O211118   4.132   5.611   4.812
  278ACOH    C211119   4.226   5.522   4.848
  278ACOH    O111120   4.267   5.428   4.781
  278ACOH    C111121   4.293   5.561   4.974
  278ACOH    H111122   4.243   5.647   5.019
  278ACOH    H211123   4.397   5.586   4.954
  278ACOH    H311124   4.289   5.478   5.044
  279ACOH    H411125   7.968   7.112   4.390
  279ACOH    O211126   7.893   7.177   4.397
  279ACOH    C211127   7.891   7.216   4.526
  279ACOH    O111128   7.965   7.179   4.616
  279ACOH    C111129   7.786   7.318   4.551
  279ACOH    H111130   7.718   7.324   4.467
  279ACOH    H211131   7.833   7.415   4.565
  279ACOH    H311132   7.731   7.292   4.640
  280ACOH    H411133   3.946   7.013   3.296
  280ACOH    O211134   3.909   7.039   3.206
  280ACOH    C211135   3.949   7.167   3.184
  280ACOH    O111136   4.015   7.238   3.258
  280ACOH    C111137   3.895   7.218   3.056
  280ACOH    H111138   3.976   7.260   2.997
  280ACOH    H211139   3.821   7.296   3.075
  280ACOH    H311140   3.849   7.139   2.998
  281ACOH    H411141   5.619   2.282   4.917
  281ACOH    O211142   5.623   2.243   5.009
  281ACOH    C211143   5.723   2.305   5.074
  281ACOH    O111144   5.786   2.403   5.037
  281ACOH    C111145   5.740   2.245   5.209
  281ACOH    H111146   5.815   2.299   5.267
  281ACOH    H211147   5.770   2.142   5.198
  281ACOH    H311148   5.645   2.248   5.262
  282ACOH    H411149   4.683   4.958   5.174
  282ACOH    O211150   4.769   4.984   5.131
  282ACOH    C211151   4.737   5.056   5.022
  282ACOH    O111152   4.630   5.109   4.998
  282ACOH    C111153   4.856   5.080   4.937
  282ACOH    H111154   4.835   5.049   4.835
  282ACOH    H211155   4.941   5.024   4.974
  282ACOH    H311156   4.881   5.186   4.939
  283ACOH    H411157   4.558   1.340   3.374
  283ACOH    O211158   4.625   1.347   3.447
  283ACOH    C211159   4.591   1.454   3.521
  283ACOH    O111160   4.497   1.529   3.502
  283ACOH    C111161   4.680   1.471   3.638
  283ACOH    H111162   4.760   1.397   3.637
  283ACOH    H211163   4.622   1.458   3.729
  283ACOH    H311164   4.724   1.570   3.637
  284ACOH    H411165   5.963   8.638   1.673
  284ACOH    O211166   5.970   8.542   1.699
  284ACOH    C211167   5.872   8.520   1.789
  284ACOH    O111168   5.782   8.596   1.819
  284ACOH    C111169   5.885   8.387   1.854
  284ACOH    H111170   5.793   8.330   1.842
  284ACOH    H211171   5.904   8.400   1.960
  284ACOH    H311172   5.967   8.331   1.810
  285ACOH    H411173   6.123   7.719   2.311
  285ACOH    O211174   6.150   7.624   2.294
  285ACOH    C211175   6.249   7.629   2.202
  285ACOH    O111176   6.286   7.726   2.139
  285ACOH    C111177   6.308   7.494   2.185
  285ACOH    H111178   6.385   7.494   2.108
  285ACOH    H211179   6.231   7.423   2.158
  285ACOH    H311180   6.353   7.462   2.278
  286ACOH    H411181   6.524   6.072   2.197
  286ACOH    O211182   6.535   6.085   2.295
  286ACOH    C211183   6.626   6.183   2.313
  286ACOH    O111184   6.678   6.250   2.226
  286ACOH    C111185   6.658   6.201   2.456
  286ACOH    H111186   6.762   6.174   2.474
  286ACOH    H211187   6.594   6.139   2.518
  286ACOH    H311188   6.644   6.305   2.484
  287ACOH    H411189   9.682   0.391   0.621
  287ACOH    O211190   9.646   0.298   0.615
  287ACOH    C211191   9.647   0.249   0.740
  287ACOH    O111192   9.730   0.279   0.824
  287ACOH    C111193   9.571   0.122   0.749
  287ACOH    H111194   9.516   0.119   0.843
  287ACOH    H211195   9.639   0.038   0.745
  287ACOH    H311196   9.500   0.114   0.667
  288ACOH    H411197   9.897   7.597   5.051
  288ACOH    O211198   9.822   7.545   5.092
  288ACOH    C211199   9.711   7.576   5.021
  288ACOH    O111200   9.699   7.669   4.944
  288ACOH    C111201   9.598   7.488   5.056
  288ACOH    H111202   9.563   7.438   4.966
  288ACOH    H211203   9.516   7.547   5.097
  288ACOH    H311204   9.626   7.412   5.129
  289ACOH    H411205   1.376   4.057   5.276
  289ACOH    O211206   1.342   4.051   5.182
  289ACOH    C211207   1.396   3.939   5.129
  289ACOH    O111208   1.457   3.852   5.189
  289ACOH    C111209   1.360   3.922   4.986
  289ACOH    H111210   1.306   4.010   4.950
  289ACOH    H211211   1.296   3.835   4.974
  289ACOH    H311212   1.450   3.909   4.927
  290ACOH    H411213   4.383   5.074   6.439
  290ACOH    O211214   4.477   5.105   6.454
  290ACOH    C211215   4.488   5.146   6.581
  290ACOH    O111216   4.403   5.135   6.669
  290ACOH    C111217   4.622   5.203   6.607
  290ACOH    H111218   4.635   5.293   6.547
  290ACOH    H211219   4.698   5.131   6.579
  290ACOH    H311220   4.634   5.228   6.712
  291ACOH    H411221   5.392   6.839   0.136
  291ACOH    O211222   5.437   6.894   0.208
  291ACOH    C211223   5.437   7.020   0.162
  291ACOH    O111224   5.429   7.053   0.045
  291ACOH    C111225   5.479   7.116   0.267
  291ACOH    H111226   5.583   7.145   0.250
  291ACOH    H211227   5.469   7.072   0.365
  291ACOH    H311228   5.417   7.205   0.261
  292ACOH    H411229   8.159   9.139   0.595
  292ACOH    O211230   8.079   9.081   0.581
  292ACOH    C211231   7.986   9.122   0.669
  292ACOH    O111232   7.994   9.214   0.748
  292ACOH    C111233   7.861   9.042   0.654
  292ACOH    H111234   7.876   8.961   0.583
  292ACOH    H211235   7.781   9.106   0.619
  292ACOH    H311236   7.834   8.999   0.750
  293ACOH    H411237   1.114   2.880   6.863
  293ACOH    O211238   1.163   2.879   6.950
  293ACOH    C211239   1.243   2.770   6.947
  293ACOH    O111240   1.251   2.687   6.858
  293ACOH    C111241   1.322   2.759   7.072
  293ACOH    H111242   1.378   2.851   7.087
  293ACOH    H211243   1.393   2.677   7.066
  293ACOH    H311244   1.256   2.744   7.156
  294ACOH    H411245   6.453   2.832   4.560
  294ACOH    O211246   6.452   2.900   4.487
  294ACOH    C211247   6.322   2.926   4.461
  294ACOH    O111248   6.225   2.886   4.523
  294ACOH    C111249   6.309   3.019   4.347
  294ACOH    H111250   6.250   2.972   4.268
  294ACOH    H211251   6.406   3.046   4.307
  294ACOH    H311252   6.258   3.110   4.379
  295ACOH    H411253   5.104   4.927   6.926
  295ACOH    O211254   5.085   4.963   6.835
  295ACOH    C211255   5.111   5.095   6.842
  295ACOH    O111256   5.171   5.153   6.930
  295ACOH    C111257   5.070   5.162   6.716
  295ACOH    H111258   4.962   5.157   6.706
  295ACOH    H211259   5.116   5.111   6.631
  295ACOH    H311260   5.102   5.265   6.716
  296ACOH    H411261   5.202   7.343   5.599
  296ACOH    O211262   5.286   7.291   5.594
  296ACOH    C211263   5.373   7.344   5.683
  296ACOH    O111264   5.355   7.437   5.759
  296ACOH    C111265   5.502   7.271   5.676
  296ACOH    H111266   5.486   7.167   5.703
  296ACOH    H211267   5.575   7.315   5.743
  296ACOH    H311268   5.540   7.275   5.574
  297ACOH    H411269   0.639   1.642   3.248
  297ACOH    O211270   0.575   1.650   3.324
  297ACOH    C211271   0.535   1.779   3.330
  297ACOH    O111272   0.559   1.867   3.249
  297ACOH    C111273   0.442   1.801   3.443
  297ACOH    H111274   0.343   1.825   3.405
  297ACOH    H211275   0.478   1.885   3.503
  297ACOH    H311276   0.436   1.713   3.507
  298ACOH    H411277   7.106   3.164   5.135
  298ACOH    O211278   7.113   3.256   5.172
  298ACOH    C211279   7.058   3.253   5.295
  298ACOH    O111280   7.003   3.159   5.347
  298ACOH    C111281   7.070   3.385   5.363
  298ACOH    H111282   6.971   3.427   5.379
  298ACOH    H211283   7.128   3.454   5.303
  298ACOH    H311284   7.118   3.373   5.459
  299ACOH    H411285   5.403   1.060   3.223
  299ACOH    O211286   5.450   1.081   3.138
  299ACOH    C211287   5.546   0.989   3.123
  299ACOH    O111288   5.556   0.883   3.183
  299ACOH    C111289   5.638   1.024   3.012
  299ACOH    H111290   5.637   0.945   2.937
  299ACOH    H211291   5.739   1.034   3.050
  299ACOH    H311292   5.608   1.117   2.965
  300ACOH    H411293   4.205   3.721   3.540
  300ACOH    O211294   4.138   3.688   3.605
  300ACOH    C211295   4.088   3.795   3.669
  300ACOH    O111296   4.103   3.912   3.637
  300ACOH    C111297   3.987   3.755   3.771
  300ACOH    H111298   3.994   3.648   3.790
  300ACOH    H211299   3.887   3.777   3.735
  300ACOH    H311300   4.005   3.808   3.864
  301ACOH    H411301   5.326   4.663   6.622
  301ACOH    O211302   5.341   4.725   6.699
  301ACOH    C211303   5.433   4.814   6.656
  301ACOH    O111304   5.497   4.810   6.554
  301ACOH    C111305   5.454   4.920   6.759
  301ACOH    H111306   5.364   4.979   6.768
  301ACOH    H211307   5.536   4.984   6.730
  301ACOH    H311308   5.477   4.874   6.854
  302ACOH    H411309   7.739   1.812   6.156
  302ACOH    O211310   7.661   1.872   6.166
  302ACOH    C211311   7.708   1.992   6.206
  302ACOH    O111312   7.824   2.021   6.228
  302ACOH    C111313   7.596   2.086   6.230
  302ACOH    H111314   7.546   2.105   6.135
  302ACOH    H211315   7.632   2.179   6.271
  302ACOH    H311316   7.525   2.041   6.299
  303ACOH    H411317   5.415   3.068   4.826
  303ACOH    O211318   5.407   3.157   4.783
  303ACOH    C211319   5.277   3.192   4.784
  303ACOH    O111320   5.184   3.124   4.824
  303ACOH    C111321   5.258   3.327   4.728
  303ACOH    H111322   5.301   3.331   4.628
  303ACOH    H211323   5.308   3.400   4.791
  303ACOH    H311324   5.153   3.352   4.722
  304ACOH    H411325   2.382   7.786   2.313
  304ACOH    O211326   2.294   7.788   2.360
  304ACOH    C211327   2.202   7.839   2.276
  304ACOH    O111328   2.222   7.881   2.163
  304ACOH    C111329   2.071   7.856   2.343
  304ACOH    H111330   2.065   7.790   2.430
  304ACOH    H211331   1.991   7.832   2.275
  304ACOH    H311332   2.060   7.958   2.377
  305ACOH    H411333   4.149   2.341   2.667
  305ACOH    O211334   4.191   2.363   2.755
  305ACOH    C211335   4.213   2.496   2.756
  305ACOH    O111336   4.196   2.574   2.664
  305ACOH    C111337   4.266   2.539   2.888
  305ACOH    H111338   4.202   2.616   2.930
  305ACOH    H211339   4.366   2.580   2.875
  305ACOH    H311340   4.271   2.456   2.957
  306ACOH    H411341   4.972   8.391   0.528
  306ACOH    O211342   5.039   8.350   0.587
  306ACOH    C211343   5.000   8.225   0.616
  306ACOH    O111344   4.901   8.168   0.576
  306ACOH    C111345   5.098   8.162   0.707
  306ACOH    H111346   5.105   8.219   0.799
  306ACOH    H211347   5.196   8.161   0.659
  306ACOH    H311348   5.069   8.060   0.731
  307ACOH    H411349   4.404   6.030   7.131
  307ACOH    O211350   4.338   6.057   7.062
  307ACOH    C211351   4.258   6.152   7.115
  307ACOH    O111352   4.276   6.214   7.218
  307ACOH    C111353   4.144   6.179   7.024
  307ACOH    H111354   4.088   6.087   7.009
  307ACOH    H211355   4.182   6.213   6.928
  307ACOH    H311356   4.078   6.254   7.066
  308ACOH    H411357   7.879   2.703   2.045
  308ACOH    O211358   7.893   2.786   1.992
  308ACOH    C211359   7.932   2.881   2.079
  308ACOH    O111360   7.959   2.866   2.197
  308ACOH    C111361   7.949   3.011   2.010
  308ACOH    H111362   8.017   2.998   1.926
  308ACOH    H211363   7.990   3.086   2.077
  308ACOH    H311364   7.854   3.046   1.971
  309ACOH    H411365   4.324   4.401   3.248
  309ACOH    O211366   4.353   4.313   3.212
  309ACOH    C211367   4.374   4.329   3.080
  309ACOH    O111368   4.354   4.430   3.015
  309ACOH    C111369   4.421   4.202   3.019
  309ACOH    H111370   4.350   4.123   3.039
  309ACOH    H211371   4.517   4.176   3.063
  309ACOH    H311372   4.433   4.213   2.912
  310ACOH    H411373   1.938   0.442   3.931
  310ACOH    O211374   1.920   0.458   3.834
  310ACOH    C211375   1.809   0.388   3.804
  310ACOH    O111376   1.754   0.307   3.876
  310ACOH    C111377   1.770   0.406   3.662
  310ACOH    H111378   1.678   0.353   3.640
  310ACOH    H211379   1.849   0.368   3.598
  310ACOH    H311380   1.757   0.512   3.641
  311ACOH    H411381   4.038   0.495   2.707
  311ACOH    O211382   4.083   0.507   2.796
  311ACOH    C211383   3.993   0.473   2.891
  311ACOH    O111384   3.879   0.433   2.874
  311ACOH    C111385   4.053   0.482   3.027
  311ACOH    H111386   3.990   0.543   3.091
  311ACOH    H211387   4.151   0.528   3.022
  311ACOH    H311388   4.062   0.382   3.069
  312ACOH    H411389   4.395   4.493   3.757
  312ACOH    O211390   4.417   4.590   3.757
  312ACOH    C211391   4.314   4.651   3.696
  312ACOH    O111392   4.250   4.606   3.602
  312ACOH    C111393   4.307   4.793   3.735
  312ACOH    H111394   4.235   4.847   3.674
  312ACOH    H211395   4.405   4.839   3.722
  312ACOH    H311396   4.277   4.800   3.840
  313ACOH    H411397   5.198   7.057   3.201
  313ACOH    O211398   5.285   7.039   3.153
  313ACOH    C211399   5.370   7.137   3.190
  313ACOH    O111400   5.345   7.232   3.262
  313ACOH    C111401   5.503   7.117   3.127
  313ACOH    H111402   5.492   7.117   3.019
  313ACOH    H211403   5.545   7.022   3.159
  313ACOH    H311404   5.571   7.197   3.156
  314ACOH    H411405   5.007   2.994   2.483
  314ACOH    O211406   4.970   2.973   2.572
  314ACOH    C211407   4.968   3.088   2.643
  314ACOH    O111408   5.010   3.196   2.606
  314ACOH    C111409   4.908   3.068   2.777
  314ACOH    H111410   4.818   3.129   2.786
  314ACOH    H211411   4.979   3.098   2.854
  314ACOH    H311412   4.881   2.964   2.792
  315ACOH    H411413   3.917   7.549   6.026
  315ACOH    O211414   3.976   7.541   5.945
  315ACOH    C211415   4.061   7.644   5.946
  315ACOH    O111416   4.063   7.737   6.025
  315ACOH    C111417   4.156   7.635   5.833
  315ACOH    H111418   4.227   7.717   5.834
  315ACOH    H211419   4.101   7.638   5.739
  315ACOH    H311420   4.212   7.542   5.837
  316ACOH    H411421   5.224   8.694   1.059
  316ACOH    O211422   5.317   8.730   1.048
  316ACOH    C211423   5.399   8.625   1.065
  316ACOH    O111424   5.367   8.508   1.067
  316ACOH    C111425   5.542   8.666   1.062
  316ACOH    H111426   5.591   8.622   0.976
  316ACOH    H211427   5.590   8.632   1.153
  316ACOH    H311428   5.551   8.774   1.056
  317ACOH    H411429   5.937   1.922   3.842
  317ACOH    O211430   5.861   1.966   3.891
  317ACOH    C211431   5.908   2.082   3.939
  317ACOH    O111432   6.012   2.137   3.909
  317ACOH    C111433   5.808   2.147   4.027
  317ACOH    H111434   5.721   2.083   4.040
  317ACOH    H211435   5.776   2.242   3.984
  317ACOH    H311436   5.852   2.166   4.125
  318ACOH    H411437   3.800   8.090   0.387
  318ACOH    O211438   3.720   8.062   0.440
  318ACOH    C211439   3.615   8.125   0.384
  318ACOH    O111440   3.618   8.200   0.288
  318ACOH    C111441   3.489   8.098   0.458
  318ACOH    H111442   3.452   8.190   0.502
  318ACOH    H211443   3.505   8.025   0.536
  318ACOH    H311444   3.414   8.059   0.388
  319ACOH    H411445   6.247   8.441   7.458
  319ACOH    O211446   6.222   8.418   7.552
  319ACOH    C211447   6.335   8.389   7.618
  319ACOH    O111448   6.448   8.384   7.572
  319ACOH    C111449   6.306   8.364   7.761
  319ACOH    H111450   6.396   8.333   7.814
  319ACOH    H211451   6.231   8.286   7.769
  319ACOH    H311452   6.268   8.455   7.806
  320ACOH    H411453   7.494   1.582   7.535
  320ACOH    O211454   7.570   1.603   7.473
  320ACOH    C211455   7.633   1.709   7.526
  320ACOH    O111456   7.601   1.772   7.626
  320ACOH    C111457   7.752   1.745   7.446
  320ACOH    H111458   7.805   1.830   7.490
  320ACOH    H211459   7.721   1.771   7.345
  320ACOH    H311460   7.820   1.661   7.441
  321ACOH    H411461   8.247   3.570   6.985
  321ACOH    O211462   8.161   3.608   6.952
  321ACOH    C211463   8.141   3.556   6.829
  321ACOH    O111464   8.217   3.483   6.768
  321ACOH    C111465   8.016   3.608   6.768
  321ACOH    H111466   7.955   3.658   6.842
  321ACOH    H211467   7.960   3.526   6.724
  321ACOH    H311468   8.042   3.679   6.690
  322ACOH    H411469   6.260   2.445   4.639
  322ACOH    O211470   6.296   2.368   4.586
  322ACOH    C211471   6.222   2.261   4.619
  322ACOH    O111472   6.150   2.248   4.716
  322ACOH    C111473   6.253   2.147   4.529
  322ACOH    H111474   6.312   2.180   4.444
  322ACOH    H211475   6.160   2.103   4.492
  322ACOH    H311476   6.308   2.072   4.585
  323ACOH    H411477   9.734   1.267   7.918
  323ACOH    O211478   9.656   1.331   7.916
  323ACOH    C211479   9.564   1.281   8.001
  323ACOH    O111480   9.566   1.172   8.054
  323ACOH    C111481   9.450   1.375   8.016
  323ACOH    H111482   9.376   1.335   8.084
  323ACOH    H211483   9.403   1.390   7.919
  323ACOH    H311484   9.486   1.471   8.053
  324ACOH    H411485   5.467   5.844   7.720
  324ACOH    O211486   5.559   5.809   7.710
  324ACOH    C211487   5.603   5.779   7.833
  324ACOH    O111488   5.542   5.793   7.937
  324ACOH    C111489   5.742   5.730   7.827
  324ACOH    H111490   5.779   5.708   7.927
  324ACOH    H211491   5.805   5.805   7.781
  324ACOH    H311492   5.746   5.639   7.767
  325ACOH    H411493   4.851   7.679   0.231
  325ACOH    O211494   4.889   7.757   0.281
  325ACOH    C211495   4.952   7.707   0.389
  325ACOH    O111496   4.952   7.592   0.428
  325ACOH    C111497   5.016   7.816   0.468
  325ACOH    H111498   4.964   7.826   0.563
  325ACOH    H211499   5.011   7.910   0.415
  325ACOH    H311500   5.120   7.790   0.486
  326ACOH    H411501   7.507   8.917   4.996
  326ACOH    O211502   7.463   8.961   5.074
  326ACOH    C211503   7.471   9.094   5.053
  326ACOH    O111504   7.552   9.151   4.982
  326ACOH    C111505   7.384   9.166   5.148
  326ACOH    H111506   7.280   9.141   5.128
  326ACOH    H211507   7.396   9.274   5.139
  326ACOH    H311508   7.407   9.137   5.250
  327ACOH    H411509   8.469   2.363   6.464
  327ACOH    O211510   8.417   2.278   6.472
  327ACOH    C211511   8.374   2.268   6.599
  327ACOH    O111512   8.389   2.350   6.688
  327ACOH    C111513   8.309   2.137   6.621
  327ACOH    H111514   8.376   2.057   6.592
  327ACOH    H211515   8.218   2.130   6.561
  327ACOH    H311516   8.282   2.124   6.726
  328ACOH    H411517   4.227   5.782   4.518
  328ACOH    O211518   4.216   5.840   4.599
  328ACOH    C211519   4.325   5.816   4.675
  328ACOH    O111520   4.417   5.740   4.649
  328ACOH    C111521   4.325   5.899   4.798
  328ACOH    H111522   4.229   5.946   4.814
  328ACOH    H211523   4.401   5.976   4.788
  328ACOH    H311524   4.349   5.837   4.884
  329ACOH    H411525   4.937   7.952   0.971
  329ACOH    O211526   4.968   7.987   1.060
  329ACOH    C211527   4.860   8.042   1.119
  329ACOH    O111528   4.750   8.058   1.069
  329ACOH    C111529   4.894   8.094   1.253
  329ACOH    H111530   4.924   8.012   1.318
  329ACOH    H211531   4.808   8.145   1.298
  329ACOH    H311532   4.976   8.165   1.245
  330ACOH    H411533   3.980   1.998   3.187
  330ACOH    O211534   4.046   2.062   3.222
  330ACOH    C211535   4.004   2.186   3.191
  330ACOH    O111536   3.905   2.214   3.124
  330ACOH    C111537   4.101   2.288   3.236
  330ACOH    H111538   4.103   2.289   3.345
  330ACOH    H211539   4.073   2.387   3.201
  330ACOH    H311540   4.200   2.264   3.200
  331ACOH    H411541   0.514   6.380   2.052
  331ACOH    O211542   0.604   6.419   2.034
  331ACOH    C211543   0.596   6.480   1.914
  331ACOH    O111544   0.494   6.508   1.855
  331ACOH    C111545   0.730   6.522   1.866
  331ACOH    H111546   0.733   6.630   1.856
  331ACOH    H211547   0.749   6.476   1.769
  331ACOH    H311548   0.808   6.490   1.935
  332ACOH    H411549   2.841   6.618   2.994
  332ACOH    O211550   2.935   6.651   2.982
  332ACOH    C211551   2.924   6.762   2.906
  332ACOH    O111552   2.822   6.811   2.861
  332ACOH    C111553   3.056   6.828   2.887
  332ACOH    H111554   3.077   6.837   2.780
  332ACOH    H211555   3.136   6.772   2.934
  332ACOH    H311556   3.053   6.928   2.930
  333ACOH    H411557   5.112   7.274   3.669
  333ACOH    O211558   5.078   7.211   3.738
  333ACOH    C211559   5.028   7.106   3.670
  333ACOH    O111560   5.052   7.076   3.554
  333ACOH    C111561   4.949   7.018   3.759
  333ACOH    H111562   4.864   7.074   3.797
  333ACOH    H211563   5.010   6.986   3.842
  333ACOH    H311564   4.913   6.931   3.706
  334ACOH    H411565   5.069   9.867   0.832
  334ACOH    O211566   5.150   9.810   0.842
  334ACOH    C211567   5.135   9.707   0.756
  334ACOH    O111568   5.030   9.666   0.713
  334ACOH    C111569   5.261   9.630   0.742
  334ACOH    H111570   5.253   9.537   0.796
  334ACOH    H211571   5.346   9.687   0.781
  334ACOH    H311572   5.279   9.609   0.637
  335ACOH    H411573   5.720   5.241   7.497
  335ACOH    O211574   5.729   5.312   7.427
  335ACOH    C211575   5.700   5.429   7.487
  335ACOH    O111576   5.659   5.446   7.600
  335ACOH    C111577   5.721   5.541   7.393
  335ACOH    H111578   5.657   5.528   7.306
  335ACOH    H211579   5.824   5.543   7.361
  335ACOH    H311580   5.697   5.636   7.441
  336ACOH    H411581   9.836   4.872   3.734
  336ACOH    O211582   9.805   4.853   3.641
  336ACOH    C211583   9.820   4.969   3.574
  336ACOH    O111584   9.887   5.064   3.610
  336ACOH    C111585   9.772   4.957   3.434
  336ACOH    H111586   9.702   4.875   3.423
  336ACOH    H211587   9.857   4.940   3.368
  336ACOH    H311588   9.723   5.049   3.404
  337ACOH    H411589   5.189   0.800   0.071
  337ACOH    O211590   5.273   0.749   0.087
  337ACOH    C211591   5.319   0.783   0.209
  337ACOH    O111592   5.274   0.868   0.284
  337ACOH    C111593   5.443   0.708   0.242
  337ACOH    H111594   5.524   0.778   0.257
  337ACOH    H211595   5.469   0.640   0.161
  337ACOH    H311596   5.428   0.651   0.333
  338ACOH    H411597   4.781   5.497   5.059
  338ACOH    O211598   4.869   5.509   5.013
  338ACOH    C211599   4.845   5.560   4.891
  338ACOH    O111600   4.737   5.575   4.837
  338ACOH    C111601   4.971   5.588   4.819
  338ACOH    H111602   4.974   5.691   4.786
  338ACOH    H211603   4.978   5.523   4.732
  338ACOH    H311604   5.057   5.569   4.884
  339ACOH    H411605   6.006   6.598   1.337
  339ACOH    O211606   6.082   6.619   1.398
  339ACOH    C211607   6.138   6.502   1.434
  339ACOH    O111608   6.092   6.390   1.418
  339ACOH    C111609   6.262   6.526   1.510
  339ACOH    H111610   6.241   6.589   1.596
  339ACOH    H211611   6.334   6.576   1.447
  339ACOH    H311612   6.306   6.432   1.545
  340ACOH    H411613   6.032   2.805   5.010
  340ACOH    O211614   6.107   2.747   4.977
  340ACOH    C211615   6.219   2.822   4.968
  340ACOH    O111616   6.324   2.775   4.927
  340ACOH    C111617   6.205   2.965   5.006
  340ACOH    H111618   6.130   3.012   4.943
  340ACOH    H211619   6.299   3.017   4.994
  340ACOH    H311620   6.174   2.972   5.110
  341ACOH    H411621   5.800   3.983   0.821
  341ACOH    O211622   5.795   4.065   0.763
  341ACOH    C211623   5.898   4.143   0.801
  341ACOH    O111624   5.990   4.112   0.873
  341ACOH    C111625   5.896   4.272   0.728
  341ACOH    H111626   5.978   4.275   0.656
  341ACOH    H211627   5.910   4.354   0.798
  341ACOH    H311628   5.802   4.287   0.676
  342ACOH    H411629   5.683   2.109   6.454
  342ACOH    O211630   5.783   2.117   6.461
  342ACOH    C211631   5.829   1.994   6.489
  342ACOH    O111632   5.764   1.898   6.529
  342ACOH    C111633   5.977   1.989   6.483
  342ACOH    H111634   6.017   1.972   6.583
  342ACOH    H211635   6.016   2.082   6.444
  342ACOH    H311636   6.008   1.908   6.419
  343ACOH    H411637   4.947   2.978   4.315
  343ACOH    O211638   4.977   2.985   4.220
  343ACOH    C211639   5.068   2.889   4.201
  343ACOH    O111640   5.105   2.805   4.281
  343ACOH    C111641   5.126   2.900   4.065
  343ACOH    H111642   5.050   2.877   3.991
  343ACOH    H211643   5.210   2.832   4.053
  343ACOH    H311644   5.161   3.002   4.049
  344ACOH    H411645   4.351   5.440   6.911
  344ACOH    O211646   4.392   5.511   6.968
  344ACOH    C211647   4.512   5.462   7.008
  344ACOH    O111648   4.563   5.357   6.975
  344ACOH    C111649   4.580   5.561   7.095
  344ACOH    H111650   4.592   5.655   7.042
  344ACOH    H211651   4.678   5.524   7.126
  344ACOH    H311652   4.520   5.578   7.184
  345ACOH    H411653   5.472   2.531   4.331
  345ACOH    O211654   5.451   2.437   4.306
  345ACOH    C211655   5.553   2.362   4.350
  345ACOH    O111656   5.653   2.400   4.407
  345ACOH    C111657   5.530   2.218   4.322
  345ACOH    H111658   5.616   2.175   4.272
  345ACOH    H211659   5.443   2.205   4.258
  345ACOH    H311660   5.513   2.165   4.416
  346ACOH    H411661   5.970   0.792   7.436
  346ACOH    O211662   5.937   0.879   7.471
  346ACOH    C211663   5.876   0.854   7.588
  346ACOH    O111664   5.857   0.745   7.639
  346ACOH    C111665   5.829   0.980   7.649
  346ACOH    H111666   5.754   1.026   7.584
  346ACOH    H211667   5.912   1.049   7.660
  346ACOH    H311668   5.784   0.963   7.747
  347ACOH    H411669   5.239   3.295   1.826
  347ACOH    O211670   5.247   3.274   1.924
  347ACOH    C211671   5.128   3.307   1.978
  347ACOH    O111672   5.025   3.339   1.920
  347ACOH    C111673   5.132   3.285   2.124
  347ACOH    H111674   5.033   3.298   2.169
  347ACOH    H211675   5.201   3.355   2.170
  347ACOH    H311676   5.166   3.184   2.144
  348ACOH    H411677   2.117   6.255   3.912
  348ACOH    O211678   2.056   6.249   3.832
  348ACOH    C211679   1.971   6.353   3.840
  348ACOH    O111680   1.951   6.424   3.937
  348ACOH    C111681   1.883   6.358   3.721
  348ACOH    H111682   1.876   6.460   3.684
  348ACOH    H211683   1.784   6.323   3.747
  348ACOH    H311684   1.922   6.296   3.641
  349ACOH    H411685   5.448   5.337   2.547
  349ACOH    O211686   5.511   5.334   2.624
  349ACOH    C211687   5.584   5.222   2.609
  349ACOH    O111688   5.576   5.139   2.520
  349ACOH    C111689   5.684   5.212   2.718
  349ACOH    H111690   5.753   5.296   2.711
  349ACOH    H211691   5.739   5.119   2.711
  349ACOH    H311692   5.633   5.217   2.813
  350ACOH    H411693   6.579   6.564   1.631
  350ACOH    O211694   6.580   6.598   1.538
  350ACOH    C211695   6.682   6.536   1.477
  350ACOH    O111696   6.759   6.455   1.525
  350ACOH    C111697   6.690   6.579   1.335
  350ACOH    H111698   6.774   6.531   1.285
  350ACOH    H211699   6.703   6.687   1.331
  350ACOH    H311700   6.598   6.553   1.284
  351ACOH    H411701   4.795   0.476   9.924
  351ACOH    O211702   4.820   0.446  10.015
  351ACOH    C211703   4.937   0.508  10.042
  351ACOH    O111704   4.979   0.608   9.987
  351ACOH    C111705   5.002   0.451   0.081
  351ACOH    H111706   4.996   0.521   0.163
  351ACOH    H211707   5.107   0.431   0.059
  351ACOH    H311708   4.955   0.357   0.110
  352ACOH    H411709   1.270   8.279   1.413
  352ACOH    O211710   1.302   8.216   1.482
  352ACOH    C211711   1.194   8.175   1.552
  352ACOH    O111712   1.077   8.198   1.527
  352ACOH    C111713   1.236   8.085   1.662
  352ACOH    H111714   1.292   8.143   1.735
  352ACOH    H211715   1.300   8.006   1.623
  352ACOH    H311716   1.150   8.040   1.711
  353ACOH    H411717   7.592   5.583   3.875
  353ACOH    O211718   7.526   5.587   3.950
  353ACOH    C211719   7.548   5.479   4.028
  353ACOH    O111720   7.631   5.392   4.007
  353ACOH    C111721   7.457   5.476   4.145
  353ACOH    H111722   7.516   5.478   4.236
  353ACOH    H211723   7.398   5.385   4.143
  353ACOH    H311724   7.390   5.562   4.144
  354ACOH    H411725   5.326   4.616   7.308
  354ACOH    O211726   5.344   4.711   7.282
  354ACOH    C211727   5.455   4.747   7.350
  354ACOH    O111728   5.497   4.697   7.452
  354ACOH    C111729   5.509   4.876   7.299
  354ACOH    H111730   5.460   4.904   7.206
  354ACOH    H211731   5.616   4.867   7.282
  354ACOH    H311732   5.491   4.954   7.373
  355ACOH    H411733   7.329   0.934   2.855
  355ACOH    O211734   7.232   0.914   2.855
  355ACOH    C211735   7.217   0.780   2.857
  355ACOH    O111736   7.306   0.697   2.866
  355ACOH    C111737   7.074   0.745   2.845
  355ACOH    H111738   7.036   0.781   2.750
  355ACOH    H211739   7.019   0.792   2.926
  355ACOH    H311740   7.060   0.637   2.850
  356ACOH    H411741   5.124   6.017   7.802
  356ACOH    O211742   5.139   6.066   7.719
  356ACOH    C211743   5.233   5.997   7.652
  356ACOH    O111744   5.313   5.920   7.701
  356ACOH    C111745   5.241   6.041   7.511
  356ACOH    H111746   5.146   6.018   7.462
  356ACOH    H211747   5.320   5.988   7.458
  356ACOH    H311748   5.259   6.148   7.506
  357ACOH    H411749   4.342   0.556   1.078
  357ACOH    O211750   4.290   0.527   0.998
  357ACOH    C211751   4.211   0.425   1.037
  357ACOH    O111752   4.229   0.351   1.132
  357ACOH    C111753   4.108   0.399   0.934
  357ACOH    H111754   4.044   0.485   0.925
  357ACOH    H211755   4.047   0.313   0.960
  357ACOH    H311756   4.156   0.380   0.838
  358ACOH    H411757   5.369   4.641   6.043
  358ACOH    O211758   5.459   4.683   6.046
  358ACOH    C211759   5.502   4.671   6.173
  358ACOH    O111760   5.446   4.612   6.263
  358ACOH    C111761   5.633   4.737   6.190
  358ACOH    H111762   5.707   4.689   6.127
  358ACOH    H211763   5.666   4.731   6.294
  358ACOH    H311764   5.626   4.842   6.162
  359ACOH    H411765   4.184   6.769   6.771
  359ACOH    O211766   4.258   6.765   6.835
  359ACOH    C211767   4.354   6.849   6.791
  359ACOH    O111768   4.351   6.916   6.690
  359ACOH    C111769   4.468   6.850   6.886
  359ACOH    H111770   4.546   6.917   6.851
  359ACOH    H211771   4.508   6.750   6.896
  359ACOH    H311772   4.433   6.884   6.983
  360ACOH    H411773   2.836   0.023   0.370
  360ACOH    O211774   2.897   0.073   0.431
  360ACOH    C211775   2.947   9.985   0.520
  360ACOH    O111776   2.918   9.867   0.531
  360ACOH    C111777   3.046   0.051   0.608
  360ACOH    H111778   3.089   9.980   0.678
  360ACOH    H211779   2.998   0.130   0.664
  360ACOH    H311780   3.126   0.093   0.547
  361ACOH    H411781   1.214   1.948   2.119
  361ACOH    O211782   1.306   1.957   2.157
  361ACOH    C211783   1.344   2.083   2.132
  361ACOH    O111784   1.269   2.179   2.120
  361ACOH    C111785   1.490   2.101   2.149
  361ACOH    H111786   1.511   2.151   2.243
  361ACOH    H211787   1.529   2.161   2.067
  361ACOH    H311788   1.541   2.005   2.148
  362ACOH    H411789   4.662   3.401   2.527
  362ACOH    O211790   4.665   3.304   2.508
  362ACOH    C211791   4.750   3.288   2.405
  362ACOH    O111792   4.827   3.372   2.361
  362ACOH    C111793   4.744   3.149   2.354
  362ACOH    H111794   4.643   3.128   2.319
  362ACOH    H211795   4.769   3.080   2.434
  362ACOH    H311796   4.813   3.136   2.271
  363ACOH    H411797   5.290   3.064   1.509
  363ACOH    O211798   5.367   3.039   1.566
  363ACOH    C211799   5.475   3.033   1.487
  363ACOH    O111800   5.480   3.059   1.368
  363ACOH    C111801   5.597   3.000   1.564
  363ACOH    H111802   5.645   2.913   1.520
  363ACOH    H211803   5.572   2.977   1.667
  363ACOH    H311804   5.666   3.084   1.562
  364ACOH    H411805   3.267   0.338   5.772
  364ACOH    O211806   3.359   0.374   5.784
  364ACOH    C211807   3.405   0.326   5.901
  364ACOH    O111808   3.371   0.221   5.952
  364ACOH    C111809   3.524   0.402   5.946
  364ACOH    H111810   3.495   0.503   5.975
  364ACOH    H211811   3.597   0.408   5.866
  364ACOH    H311812   3.570   0.354   6.032
  365ACOH    H411813   5.028   1.608   3.836
  365ACOH    O211814   5.033   1.705   3.817
  365ACOH    C211815   5.128   1.722   3.723
  365ACOH    O111816   5.190   1.635   3.664
  365ACOH    C111817   5.152   1.866   3.696
  365ACOH    H111818   5.142   1.886   3.590
  365ACOH    H211819   5.252   1.893   3.729
  365ACOH    H311820   5.080   1.927   3.750
  366ACOH    H411821   5.125   1.445   4.310
  366ACOH    O211822   5.034   1.467   4.275
  366ACOH    C211823   5.049   1.584   4.210
  366ACOH    O111824   5.152   1.627   4.162
  366ACOH    C111825   4.918   1.646   4.179
  366ACOH    H111826   4.837   1.595   4.231
  366ACOH    H211827   4.899   1.642   4.072
  366ACOH    H311828   4.919   1.750   4.210
  367ACOH    H411829   4.483   8.528   0.444
  367ACOH    O211830   4.533   8.542   0.530
  367ACOH    C211831   4.590   8.424   0.561
  367ACOH    O111832   4.574   8.318   0.504
  367ACOH    C111833   4.663   8.433   0.690
  367ACOH    H111834   4.610   8.378   0.766
  367ACOH    H211835   4.674   8.536   0.721
  367ACOH    H311836   4.762   8.390   0.678
  368ACOH    H411837   5.009   6.010   2.988
  368ACOH    O211838   5.010   5.918   3.027
  368ACOH    C211839   5.033   5.834   2.924
  368ACOH    O111840   5.059   5.864   2.809
  368ACOH    C111841   5.024   5.693   2.969
  368ACOH    H111842   5.098   5.676   3.047
  368ACOH    H211843   5.042   5.625   2.887
  368ACOH    H311844   4.925   5.675   3.010
  369ACOH    H411845   8.122   6.912   0.020
  369ACOH    O211846   8.166   6.968  10.032
  369ACOH    C211847   8.299   6.962  10.051
  369ACOH    O111848   8.358   6.906   0.060
  369ACOH    C111849   8.369   7.036   9.944
  369ACOH    H111850   8.338   7.140   9.946
  369ACOH    H211851   8.342   6.994   9.848
  369ACOH    H311852   8.477   7.030   9.956
  370ACOH    H411853   6.171   4.911   7.604
  370ACOH    O211854   6.115   4.941   7.527
  370ACOH    C211855   5.999   4.872   7.535
  370ACOH    O111856   5.974   4.781   7.611
  370ACOH    C111857   5.906   4.914   7.427
  370ACOH    H111858   5.879   5.018   7.443
  370ACOH    H211859   5.816   4.854   7.430
  370ACOH    H311860   5.954   4.904   7.331
  371ACOH    H411861   7.835   4.518   6.618
  371ACOH    O211862   7.828   4.480   6.525
  371ACOH    C211863   7.924   4.386   6.513
  371ACOH    O111864   8.001   4.347   6.598
  371ACOH    C111865   7.925   4.332   6.374
  371ACOH    H111866   7.825   4.300   6.347
  371ACOH    H211867   7.991   4.247   6.367
  371ACOH    H311868   7.958   4.409   6.305
  372ACOH    H411869   5.441   0.129   1.627
  372ACOH    O211870   5.429   0.141   1.529
  372ACOH    C211871   5.297   0.162   1.509
  372ACOH    O111872   5.217   0.203   1.591
  372ACOH    C111873   5.266   0.151   1.364
  372ACOH    H111874   5.335   0.213   1.307
  372ACOH    H211875   5.164   0.183   1.343
  372ACOH    H311876   5.278   0.048   1.333
  373ACOH    H411877   0.711   5.003   1.787
  373ACOH    O211878   0.740   4.921   1.836
  373ACOH    C211879   0.805   4.964   1.946
  373ACOH    O111880   0.852   5.075   1.964
  373ACOH    C111881   0.836   4.850   2.036
  373ACOH    H111882   0.894   4.883   2.122
  373ACOH    H211883   0.892   4.775   1.982
  373ACOH    H311884   0.743   4.806   2.072
  374ACOH    H411885   5.144   6.443   2.789
  374ACOH    O211886   5.157   6.347   2.810
  374ACOH    C211887   5.247   6.300   2.721
  374ACOH    O111888   5.284   6.357   2.620
  374ACOH    C111889   5.289   6.161   2.751
  374ACOH    H111890   5.247   6.128   2.846
  374ACOH    H211891   5.397   6.156   2.756
  374ACOH    H311892   5.255   6.095   2.672
  375ACOH    H411893   4.481   6.050   4.407
  375ACOH    O211894   4.557   6.013   4.353
  375ACOH    C211895   4.632   6.119   4.319
  375ACOH    O111896   4.637   6.226   4.377
  375ACOH    C111897   4.724   6.085   4.208
  375ACOH    H111898   4.782   5.996   4.234
  375ACOH    H211899   4.793   6.167   4.189
  375ACOH    H311900   4.667   6.064   4.118
  376ACOH    H411901   5.176   4.223   6.532
  376ACOH    O211902   5.210   4.290   6.466
  376ACOH    C211903   5.215   4.226   6.348
  376ACOH    O111904   5.189   4.109   6.326
  376ACOH    C111905   5.263   4.317   6.242
  376ACOH    H111906   5.364   4.351   6.265
  376ACOH    H211907   5.198   4.404   6.235
  376ACOH    H311908   5.264   4.268   6.145
  377ACOH    H411909   7.195   5.100   6.585
  377ACOH    O211910   7.201   5.111   6.486
  377ACOH    C211911   7.086   5.167   6.446
  377ACOH    O111912   6.993   5.204   6.515
  377ACOH    C111913   7.085   5.181   6.298
  377ACOH    H111914   6.993   5.227   6.264
  377ACOH    H211915   7.095   5.083   6.253
  377ACOH    H311916   7.170   5.242   6.268
  378ACOH    H411917   6.978   6.343   6.835
  378ACOH    O211918   6.944   6.381   6.750
  378ACOH    C211919   6.932   6.277   6.665
  378ACOH    O111920   6.958   6.161   6.690
  378ACOH    C111921   6.888   6.321   6.530
  378ACOH    H111922   6.863   6.427   6.530
  378ACOH    H211923   6.801   6.263   6.500
  378ACOH    H311924   6.968   6.304   6.459
  379ACOH    H411925   5.314   2.308   5.977
  379ACOH    O211926   5.291   2.272   6.067
  379ACOH    C211927   5.304   2.374   6.154
  379ACOH    O111928   5.325   2.491   6.128
  379ACOH    C111929   5.281   2.326   6.292
  379ACOH    H111930   5.183   2.281   6.300
  379ACOH    H211931   5.289   2.407   6.364
  379ACOH    H311932   5.356   2.251   6.316
  380ACOH    H411933   6.786   1.841   6.257
  380ACOH    O211934   6.820   1.799   6.341
  380ACOH    C211935   6.741   1.846   6.439
  380ACOH    O111936   6.625   1.882   6.427
  380ACOH    C111937   6.803   1.826   6.572
  380ACOH    H111938   6.798   1.919   6.629
  380ACOH    H211939   6.907   1.796   6.563
  380ACOH    H311940   6.748   1.750   6.626
  381ACOH    H411941   5.159   7.723   6.864
  381ACOH    O211942   5.113   7.714   6.951
  381ACOH    C211943   5.187   7.774   7.045
  381ACOH    O111944   5.302   7.814   7.034
  381ACOH    C111945   5.115   7.780   7.175
  381ACOH    H111946   5.015   7.738   7.165
  381ACOH    H211947   5.105   7.883   7.207
  381ACOH    H311948   5.169   7.724   7.250
  382ACOH    H411949   5.345   4.343   2.588
  382ACOH    O211950   5.261   4.381   2.625
  382ACOH    C211951   5.191   4.434   2.524
  382ACOH    O111952   5.224   4.439   2.407
  382ACOH    C111953   5.062   4.491   2.571
  382ACOH    H111954   5.059   4.597   2.550
  382ACOH    H211955   5.051   4.476   2.678
  382ACOH    H311956   4.979   4.442   2.520
  383ACOH    H411957   0.941   5.351   1.719
  383ACOH    O211958   0.919   5.448   1.721
  383ACOH    C211959   0.827   5.467   1.625
  383ACOH    O111960   0.758   5.380   1.576
  383ACOH    C111961   0.801   5.611   1.602
  383ACOH    H111962   0.699   5.634   1.629
  383ACOH    H211963   0.817   5.634   1.497
  383ACOH    H311964   0.868   5.673   1.661
  384ACOH    H411965   4.348   6.642   7.911
  384ACOH    O211966   4.423   6.688   7.957
  384ACOH    C211967   4.537   6.625   7.926
  384ACOH    O111968   4.549   6.515   7.873
  384ACOH    C111969   4.654   6.701   7.978
  384ACOH    H111970   4.643   6.715   8.085
  384ACOH    H211971   4.657   6.798   7.930
  384ACOH    H311972   4.747   6.648   7.958
  385ACOH    H411973   5.858   2.643   5.687
  385ACOH    O211974   5.930   2.576   5.705
  385ACOH    C211975   5.930   2.491   5.600
  385ACOH    O111976   5.843   2.481   5.515
  385ACOH    C111977   6.044   2.397   5.609
  385ACOH    H111978   6.043   2.346   5.705
  385ACOH    H211979   6.138   2.452   5.599
  385ACOH    H311980   6.039   2.323   5.530
  386ACOH    H411981   5.935   4.232   2.734
  386ACOH    O211982   5.905   4.214   2.828
  386ACOH    C211983   5.771   4.217   2.828
  386ACOH    O111984   5.697   4.247   2.736
  386ACOH    C111985   5.719   4.187   2.964
  386ACOH    H111986   5.657   4.269   2.998
  386ACOH    H211987   5.801   4.175   3.033
  386ACOH    H311988   5.660   4.096   2.960
  387ACOH    H411989   4.822   3.486   5.249
  387ACOH    O211990   4.869   3.465   5.334
  387ACOH    C211991   4.928   3.579   5.373
  387ACOH    O111992   4.921   3.687   5.317
  387ACOH    C111993   5.004   3.562   5.499
  387ACOH    H111994   5.108   3.590   5.482
  387ACOH    H211995   5.001   3.458   5.532
  387ACOH    H311996   4.962   3.625   5.576
  388ACOH    H411997   8.554   6.851   6.330
  388ACOH    O211998   8.563   6.776   6.265
  388ACOH    C211999   8.693   6.740   6.265
  388ACOH    O112000   8.785   6.799   6.318
  388ACOH    C112001   8.714   6.622   6.179
  388ACOH    H112002   8.679   6.644   6.078
  388ACOH    H212003   8.658   6.538   6.219
  388ACOH    H312004   8.819   6.595   6.175
  389ACOH    H412005   7.542   5.153   6.689
  389ACOH    O212006   7.619   5.120   6.634
  389ACOH    C212007   7.602   4.987   6.624
  389ACOH    O112008   7.531   4.918   6.694
  389ACOH    C112009   7.699   4.927   6.529
  389ACOH    H112010   7.774   4.872   6.585
  389ACOH    H212011   7.748   5.004   6.470
  389ACOH    H312012   7.647   4.858   6.463
  390ACOH    H412013   7.528   3.588   5.571
  390ACOH    O212014   7.462   3.516   5.555
  390ACOH    C212015   7.530   3.403   5.528
  390ACOH    O112016   7.650   3.383   5.538
  390ACOH    C112017   7.436   3.293   5.496
  390ACOH    H112018   7.337   3.333   5.476
  390ACOH    H212019   7.430   3.226   5.581
  390ACOH    H312020   7.471   3.238   5.409
  391ACOH    H412021   1.542   4.779   6.743
  391ACOH    O212022   1.531   4.864   6.693
  391ACOH    C212023   1.419   4.849   6.620
  391ACOH    O112024   1.368   4.743   6.588
  391ACOH    C112025   1.377   4.978   6.561
  391ACOH    H112026   1.460   5.024   6.509
  391ACOH    H212027   1.343   5.045   6.639
  391ACOH    H312028   1.296   4.964   6.489
  392ACOH    H412029   6.551   5.627   6.734
  392ACOH    O212030   6.486   5.602   6.664
  392ACOH    C212031   6.419   5.493   6.706
  392ACOH    O112032   6.429   5.440   6.815
  392ACOH    C112033   6.321   5.447   6.605
  392ACOH    H112034   6.220   5.456   6.645
  392ACOH    H212035   6.340   5.342   6.582
  392ACOH    H312036   6.329   5.505   6.514
  393ACOH    H412037   4.526   4.763   5.930
  393ACOH    O212038   4.484   4.827   5.994
  393ACOH    C212039   4.540   4.807   6.115
  393ACOH    O112040   4.631   4.731   6.143
  393ACOH    C112041   4.477   4.894   6.217
  393ACOH    H112042   4.372   4.868   6.226
  393ACOH    H212043   4.485   4.998   6.187
  393ACOH    H312044   4.525   4.882   6.313
  394ACOH    H412045   4.593   8.377   7.600
  394ACOH    O212046   4.605   8.396   7.698
  394ACOH    C212047   4.695   8.307   7.744
  394ACOH    O112048   4.770   8.239   7.677
  394ACOH    C112049   4.708   8.316   7.891
  394ACOH    H112050   4.697   8.218   7.935
  394ACOH    H212051   4.633   8.383   7.933
  394ACOH    H312052   4.807   8.355   7.916
  395ACOH    H412053   0.385   1.919   8.313
  395ACOH    O212054   0.294   1.916   8.278
  395ACOH    C212055   0.297   1.981   8.160
  395ACOH    O112056   0.395   2.031   8.109
  395ACOH    C112057   0.163   1.984   8.096
  395ACOH    H112058   0.168   1.936   7.998
  395ACOH    H212059   0.131   2.087   8.082
  395ACOH    H312060   0.090   1.932   8.157
  396ACOH    H412061   6.853   2.958   3.764
  396ACOH    O212062   6.808   3.021   3.701
  396ACOH    C212063   6.738   3.108   3.776
  396ACOH    O112064   6.747   3.124   3.896
  396ACOH    C112065   6.654   3.195   3.689
  396ACOH    H112066   6.600   3.268   3.749
  396ACOH    H212067   6.582   3.133   3.636
  396ACOH    H312068   6.716   3.247   3.618
  397ACOH    H412069   4.893   8.904   4.339
  397ACOH    O212070   4.894   8.831   4.273
  397ACOH    C212071   5.017   8.829   4.217
  397ACOH    O112072   5.105   8.912   4.233
  397ACOH    C112073   5.030   8.717   4.122
  397ACOH    H112074   5.123   8.721   4.067
  397ACOH    H212075   4.947   8.718   4.051
  397ACOH    H312076   5.026   8.623   4.177
  398ACOH    H412077   9.650   9.069   4.437
  398ACOH    O212078   9.630   9.164   4.457
  398ACOH    C212079   9.715   9.238   4.383
  398ACOH    O112080   9.794   9.197   4.300
  398ACOH    C112081   9.696   9.382   4.411
  398ACOH    H112082   9.591   9.408   4.397
  398ACOH    H212083   9.756   9.443   4.345
  398ACOH    H312084   9.723   9.403   4.515
  399ACOH    H412085   3.478   5.980   0.344
  399ACOH    O212086   3.465   5.889   0.383
  399ACOH    C212087   3.332   5.866   0.386
  399ACOH    O112088   3.243   5.943   0.358
  399ACOH    C112089   3.306   5.727   0.429
  399ACOH    H112090   3.346   5.710   0.528
  399ACOH    H212091   3.354   5.658   0.360
  399ACOH    H312092   3.199   5.706   0.430
  400ACOH    H412093   5.240   2.621   5.782
  400ACOH    O212094   5.333   2.620   5.819
  400ACOH    C212095   5.343   2.730   5.897
  400ACOH    O112096   5.252   2.802   5.934
  400ACOH    C112097   5.483   2.747   5.943
  400ACOH    H112098   5.515   2.658   5.996
  400ACOH    H212099   5.491   2.833   6.009
  400ACOH    H312100   5.548   2.762   5.857
  401ACOH    H412101   5.634   0.335   1.216
  401ACOH    O212102   5.595   0.247   1.191
  401ACOH    C212103   5.695   0.158   1.189
  401ACOH    O112104   5.814   0.182   1.177
  401ACOH    C112105   5.644   0.019   1.179
  401ACOH    H112106   5.666   9.979   1.081
  401ACOH    H212107   5.536   0.017   1.196
  401ACOH    H312108   5.692   9.957   1.254
  402ACOH    H412109   6.790   6.140   7.295
  402ACOH    O212110   6.715   6.078   7.312
  402ACOH    C212111   6.681   6.019   7.196
  402ACOH    O112112   6.723   6.047   7.085
  402ACOH    C112113   6.580   5.913   7.216
  402ACOH    H112114   6.624   5.816   7.193
  402ACOH    H212115   6.495   5.930   7.150
  402ACOH    H312116   6.545   5.913   7.319
  403ACOH    H412117   4.443   7.413   1.186
  403ACOH    O212118   4.471   7.485   1.122
  403ACOH    C212119   4.543   7.574   1.193
  403ACOH    O112120   4.583   7.558   1.307
  403ACOH    C112121   4.583   7.691   1.111
  403ACOH    H112122   4.690   7.691   1.098
  403ACOH    H212123   4.553   7.783   1.161
  403ACOH    H312124   4.535   7.687   1.013
  404ACOH    H412125   5.901   1.305   5.436
  404ACOH    O212126   5.967   1.302   5.360
  404ACOH    C212127   5.894   1.312   5.247
  404ACOH    O112128   5.774   1.292   5.236
  404ACOH    C112129   5.981   1.330   5.129
  404ACOH    H112130   5.924   1.329   5.037
  404ACOH    H212131   6.055   1.250   5.125
  404ACOH    H312132   6.033   1.425   5.136
  405ACOH    H412133   8.685   4.103   5.612
  405ACOH    O212134   8.724   4.192   5.586
  405ACOH    C212135   8.799   4.171   5.475
  405ACOH    O112136   8.802   4.071   5.406
  405ACOH    C112137   8.867   4.296   5.436
  405ACOH    H112138   8.929   4.281   5.348
  405ACOH    H212139   8.930   4.331   5.518
  405ACOH    H312140   8.794   4.373   5.414
  406ACOH    H412141   5.236   7.196   1.438
  406ACOH    O212142   5.214   7.285   1.478
  406ACOH    C212143   5.227   7.381   1.385
  406ACOH    O112144   5.184   7.494   1.402
  406ACOH    C112145   5.294   7.340   1.259
  406ACOH    H112146   5.237   7.260   1.211
  406ACOH    H212147   5.394   7.303   1.282
  406ACOH    H312148   5.302   7.424   1.191
  407ACOH    H412149   3.966   6.728   5.561
  407ACOH    O212150   4.044   6.711   5.620
  407ACOH    C212151   4.155   6.719   5.545
  407ACOH    O112152   4.162   6.729   5.424
  407ACOH    C112153   4.275   6.709   5.632
  407ACOH    H112154   4.277   6.611   5.680
  407ACOH    H212155   4.271   6.786   5.709
  407ACOH    H312156   4.366   6.723   5.574
  408ACOH    H412157   9.368   9.946   7.448
  408ACOH    O212158   9.394   9.858   7.486
  408ACOH    C212159   9.363   9.765   7.394
  408ACOH    O112160   9.297   9.783   7.293
  408ACOH    C112161   9.408   9.630   7.437
  408ACOH    H112162   9.517   9.630   7.443
  408ACOH    H212163   9.377   9.554   7.366
  408ACOH    H312164   9.367   9.607   7.534
  409ACOH    H412165   3.995   6.966   6.167
  409ACOH    O212166   4.002   6.944   6.070
  409ACOH    C212167   3.932   6.831   6.050
  409ACOH    O112168   3.864   6.769   6.130
  409ACOH    C112169   3.943   6.790   5.908
  409ACOH    H112170   3.898   6.865   5.844
  409ACOH    H212171   3.893   6.695   5.891
  409ACOH    H312172   4.048   6.780   5.881
  410ACOH    H412173   7.706   4.822   5.426
  410ACOH    O212174   7.738   4.866   5.343
  410ACOH    C212175   7.724   4.773   5.245
  410ACOH    O112176   7.680   4.660   5.257
  410ACOH    C112177   7.771   4.828   5.116
  410ACOH    H112178   7.876   4.854   5.123
  410ACOH    H212179   7.714   4.918   5.092
  410ACOH    H312180   7.758   4.755   5.036
  411ACOH    H412181   6.662   9.335   8.269
  411ACOH    O212182   6.633   9.243   8.274
  411ACOH    C212183   6.729   9.176   8.341
  411ACOH    O112184   6.828   9.226   8.390
  411ACOH    C112185   6.700   9.031   8.352
  411ACOH    H112186   6.605   9.008   8.303
  411ACOH    H212187   6.694   9.003   8.456
  411ACOH    H312188   6.779   8.975   8.304
  412ACOH    H412189   6.247   7.722   7.634
  412ACOH    O212190   6.307   7.787   7.676
  412ACOH    C212191   6.323   7.890   7.591
  412ACOH    O112192   6.271   7.902   7.481
  412ACOH    C112193   6.407   7.997   7.650
  412ACOH    H112194   6.350   8.088   7.658
  412ACOH    H212195   6.494   8.014   7.587
  412ACOH    H312196   6.441   7.967   7.749
  413ACOH    H412197   9.491   2.658   8.034
  413ACOH    O212198   9.516   2.691   8.125
  413ACOH    C212199   9.427   2.639   8.211
  413ACOH    O112200   9.342   2.555   8.187
  413ACOH    C112201   9.448   2.692   8.348
  413ACOH    H112202   9.353   2.731   8.386
  413ACOH    H212203   9.521   2.772   8.347
  413ACOH    H312204   9.482   2.613   8.413
  414ACOH    H412205   7.272   1.867   7.902
  414ACOH    O212206   7.176   1.890   7.912
  414ACOH    C212207   7.127   1.819   8.015
  414ACOH    O112208   7.189   1.744   8.089
  414ACOH    C112209   6.982   1.846   8.031
  414ACOH    H112210   6.929   1.812   7.943
  414ACOH    H212211   6.966   1.952   8.043
  414ACOH    H312212   6.943   1.794   8.118
  415ACOH    H412213   5.354   2.195   2.232
  415ACOH    O212214   5.372   2.166   2.325
  415ACOH    C212215   5.265   2.202   2.398
  415ACOH    O112216   5.168   2.264   2.359
  415ACOH    C112217   5.281   2.162   2.540
  415ACOH    H112218   5.290   2.251   2.602
  415ACOH    H212219   5.370   2.100   2.553
  415ACOH    H312220   5.194   2.105   2.572
  416ACOH    H412221   3.786   7.142   6.761
  416ACOH    O212222   3.712   7.090   6.804
  416ACOH    C212223   3.597   7.146   6.762
  416ACOH    O112224   3.585   7.232   6.676
  416ACOH    C112225   3.479   7.079   6.822
  416ACOH    H112226   3.414   7.154   6.868
  416ACOH    H212227   3.509   7.007   6.898
  416ACOH    H312228   3.422   7.027   6.745
  417ACOH    H412229   4.756   1.392   5.116
  417ACOH    O212230   4.689   1.336   5.068
  417ACOH    C212231   4.676   1.221   5.136
  417ACOH    O112232   4.734   1.190   5.238
  417ACOH    C112233   4.582   1.129   5.067
  417ACOH    H112234   4.620   1.108   4.967
  417ACOH    H212235   4.485   1.177   5.058
  417ACOH    H312236   4.571   1.036   5.122
  418ACOH    H412237   2.484   6.629   0.275
  418ACOH    O212238   2.424   6.674   0.210
  418ACOH    C212239   2.481   6.791   0.177
  418ACOH    O112240   2.593   6.830   0.206
  418ACOH    C112241   2.389   6.871   0.092
  418ACOH    H112242   2.366   6.815   0.002
  418ACOH    H212243   2.434   6.966   0.065
  418ACOH    H312244   2.297   6.890   0.147
  419ACOH    H412245   9.349   7.560   0.531
  419ACOH    O212246   9.290   7.531   0.455
  419ACOH    C212247   9.369   7.523   0.346
  419ACOH    O112248   9.487   7.552   0.341
  419ACOH    C112249   9.292   7.487   0.225
  419ACOH    H112250   9.337   7.400   0.179
  419ACOH    H212251   9.294   7.570   0.155
  419ACOH    H312252   9.189   7.464   0.250
  420ACOH    H412253   6.001   7.543   5.808
  420ACOH    O212254   5.972   7.509   5.897
  420ACOH    C212255   5.837   7.512   5.895
  420ACOH    O112256   5.766   7.533   5.798
  420ACOH    C112257   5.782   7.468   6.026
  420ACOH    H112258   5.859   7.468   6.102
  420ACOH    H212259   5.741   7.368   6.016
  420ACOH    H312260   5.702   7.536   6.056
  421ACOH    H412261   7.100   6.000   8.000
  421ACOH    O212262   7.123   6.055   7.923
  421ACOH    C212263   7.164   6.173   7.972
  421ACOH    O112264   7.167   6.206   8.089
  421ACOH    C112265   7.206   6.264   7.862
  421ACOH    H112266   7.123   6.280   7.794
  421ACOH    H212267   7.288   6.219   7.807
  421ACOH    H312268   7.238   6.360   7.902
  422ACOH    H412269   4.200   5.503   7.898
  422ACOH    O212270   4.298   5.512   7.915
  422ACOH    C212271   4.355   5.400   7.867
  422ACOH    O112272   4.301   5.311   7.803
  422ACOH    C112273   4.500   5.399   7.899
  422ACOH    H112274   4.513   5.401   8.007
  422ACOH    H212275   4.547   5.485   7.855
  422ACOH    H312276   4.548   5.309   7.860
  423ACOH    H412277   7.292   8.203   1.732
  423ACOH    O212278   7.203   8.204   1.686
  423ACOH    C212279   7.163   8.333   1.686
  423ACOH    O112280   7.238   8.429   1.684
  423ACOH    C112281   7.020   8.342   1.648
  423ACOH    H112282   6.959   8.306   1.731
  423ACOH    H212283   7.001   8.280   1.561
  423ACOH    H312284   6.992   8.445   1.626
  424ACOH    H412285   8.497   0.999   1.744
  424ACOH    O212286   8.571   1.064   1.760
  424ACOH    C212287   8.571   1.091   1.892
  424ACOH    O112288   8.490   1.052   1.974
  424ACOH    C112289   8.682   1.181   1.929
  424ACOH    H112290   8.748   1.131   1.999
  424ACOH    H212291   8.642   1.271   1.976
  424ACOH    H312292   8.739   1.211   1.842
  425ACOH    H412293   7.411   2.202   5.551
  425ACOH    O212294   7.451   2.128   5.603
  425ACOH    C212295   7.376   2.115   5.714
  425ACOH    O112296   7.288   2.190   5.752
  425ACOH    C112297   7.417   1.996   5.792
  425ACOH    H112298   7.520   2.007   5.824
  425ACOH    H212299   7.408   1.907   5.730
  425ACOH    H312300   7.354   1.983   5.880
  426ACOH    H412301   1.283   0.141   3.224
  426ACOH    O212302   1.217   0.070   3.248
  426ACOH    C212303   1.094   0.123   3.230
  426ACOH    O112304   1.071   0.233   3.181
  426ACOH    C112305   0.986   0.027   3.263
  426ACOH    H112306   1.026   9.936   3.305
  426ACOH    H212307   0.930   0.003   3.173
  426ACOH    H312308   0.919   0.072   3.335
  427ACOH    H412309   9.430   5.144   5.776
  427ACOH    O212310   9.346   5.150   5.722
  427ACOH    C212311   9.295   5.025   5.722
  427ACOH    O112312   9.311   4.940   5.809
  427ACOH    C112313   9.191   5.012   5.618
  427ACOH    H112314   9.237   5.022   5.520
  427ACOH    H212315   9.116   5.089   5.630
  427ACOH    H312316   9.143   4.914   5.623
  428ACOH    H412317   5.927   2.497   5.854
  428ACOH    O212318   5.929   2.439   5.934
  428ACOH    C212319   5.834   2.346   5.916
  428ACOH    O112320   5.757   2.338   5.822
  428ACOH    C112321   5.831   2.248   6.027
  428ACOH    H112322   5.901   2.276   6.105
  428ACOH    H212323   5.857   2.150   5.990
  428ACOH    H312324   5.731   2.244   6.070
  429ACOH    H412325   2.073   4.411   1.825
  429ACOH    O212326   2.146   4.463   1.780
  429ACOH    C212327   2.112   4.593   1.788
  429ACOH    O112328   2.006   4.639   1.827
  429ACOH    C112329   2.218   4.678   1.729
  429ACOH    H112330   2.184   4.781   1.719
  429ACOH    H212331   2.246   4.641   1.631
  429ACOH    H312332   2.306   4.677   1.793
  430ACOH    H412333   7.932   3.604   4.001
  430ACOH    O212334   7.836   3.576   3.997
  430ACOH    C212335   7.763   3.682   4.035
  430ACOH    O112336   7.793   3.758   4.125
  430ACOH    C112337   7.623   3.665   3.990
  430ACOH    H112338   7.588   3.564   4.014
  430ACOH    H212339   7.618   3.678   3.882
  430ACOH    H312340   7.557   3.737   4.037
  431ACOH    H412341   3.241   9.284   6.807
  431ACOH    O212342   3.297   9.357   6.771
  431ACOH    C212343   3.334   9.435   6.875
  431ACOH    O112344   3.289   9.431   6.988
  431ACOH    C112345   3.432   9.537   6.832
  431ACOH    H112346   3.387   9.604   6.760
  431ACOH    H212347   3.517   9.488   6.786
  431ACOH    H312348   3.468   9.595   6.917
  432ACOH    H412349   1.640   3.298   7.323
  432ACOH    O212350   1.649   3.329   7.417
  432ACOH    C212351   1.683   3.222   7.490
  432ACOH    O112352   1.713   3.111   7.449
  432ACOH    C112353   1.693   3.256   7.634
  432ACOH    H112354   1.633   3.187   7.692
  432ACOH    H212355   1.658   3.357   7.653
  432ACOH    H312356   1.797   3.249   7.666
  433ACOH    H412357   0.773   5.465   7.799
  433ACOH    O212358   0.750   5.507   7.887
  433ACOH    C212359   0.659   5.427   7.944
  433ACOH    O112360   0.634   5.312   7.915
  433ACOH    C112361   0.603   5.494   8.065
  433ACOH    H112362   0.684   5.520   8.133
  433ACOH    H212363   0.533   5.428   8.116
  433ACOH    H312364   0.551   5.584   8.035
  434ACOH    H412365   5.794   6.746   0.223
  434ACOH    O212366   5.876   6.796   0.245
  434ACOH    C212367   5.948   6.722   0.331
  434ACOH    O112368   5.920   6.612   0.375
  434ACOH    C112369   6.074   6.793   0.367
  434ACOH    H112370   6.133   6.733   0.436
  434ACOH    H212371   6.049   6.888   0.413
  434ACOH    H312372   6.132   6.811   0.277
  435ACOH    H412373   7.115   7.644   1.884
  435ACOH    O212374   7.127   7.584   1.805
  435ACOH    C212375   7.207   7.649   1.719
  435ACOH    O112376   7.264   7.754   1.738
  435ACOH    C112377   7.229   7.571   1.594
  435ACOH    H112378   7.201   7.631   1.508
  435ACOH    H212379   7.171   7.479   1.595
  435ACOH    H312380   7.335   7.545   1.586
  436ACOH    H412381   4.661   6.783   3.534
  436ACOH    O212382   4.733   6.804   3.468
  436ACOH    C212383   4.781   6.686   3.425
  436ACOH    O112384   4.736   6.575   3.449
  436ACOH    C112385   4.897   6.708   3.336
  436ACOH    H112386   4.935   6.613   3.298
  436ACOH    H212387   4.976   6.758   3.392
  436ACOH    H312388   4.868   6.771   3.252
  437ACOH    H412389   5.856   2.785   4.453
  437ACOH    O212390   5.792   2.790   4.376
  437ACOH    C212391   5.835   2.701   4.285
  437ACOH    O112392   5.924   2.619   4.300
  437ACOH    C112393   5.759   2.712   4.159
  437ACOH    H112394   5.653   2.702   4.180
  437ACOH    H212395   5.789   2.635   4.089
  437ACOH    H312396   5.777   2.809   4.114
  438ACOH    H412397   6.462   4.432   7.916
  438ACOH    O212398   6.455   4.333   7.911
  438ACOH    C212399   6.325   4.304   7.894
  438ACOH    O112400   6.233   4.383   7.891
  438ACOH    C112401   6.305   4.158   7.883
  438ACOH    H112402   6.360   4.120   7.797
  438ACOH    H212403   6.200   4.134   7.871
  438ACOH    H312404   6.343   4.109   7.972
  439ACOH    H412405   7.603   7.424   0.914
  439ACOH    O212406   7.586   7.328   0.933
  439ACOH    C212407   7.556   7.317   1.063
  439ACOH    O112408   7.535   7.409   1.141
  439ACOH    C112409   7.545   7.175   1.102
  439ACOH    H112410   7.638   7.123   1.081
  439ACOH    H212411   7.465   7.128   1.045
  439ACOH    H312412   7.523   7.164   1.208
  440ACOH    H412413   9.395   7.198   0.494
  440ACOH    O212414   9.322   7.204   0.562
  440ACOH    C212415   9.206   7.202   0.494
  440ACOH    O112416   9.191   7.195   0.374
  440ACOH    C112417   9.091   7.207   0.588
  440ACOH    H112418   9.096   7.123   0.656
  440ACOH    H212419   8.997   7.203   0.534
  440ACOH    H312420   9.095   7.299   0.646
  441ACOH    H412421   9.941   4.747   7.995
  441ACOH    O212422   9.997   4.803   7.939
  441ACOH    C212423   0.123   4.776   7.979
  441ACOH    O112424   0.155   4.721   8.083
  441ACOH    C112425   0.222   4.838   7.889
  441ACOH    H112426   0.323   4.829   7.930
  441ACOH    H212427   0.200   4.944   7.875
  441ACOH    H312428   0.220   4.789   7.792
  442ACOH    H412429   4.871   4.597   5.565
  442ACOH    O212430   4.924   4.602   5.480
  442ACOH    C212431   4.854   4.679   5.394
  442ACOH    O112432   4.733   4.697   5.396
  442ACOH    C112433   4.941   4.720   5.282
  442ACOH    H112434   4.992   4.634   5.241
  442ACOH    H212435   5.015   4.791   5.318
  442ACOH    H312436   4.882   4.767   5.203
  443ACOH    H412437   6.078   7.715   6.909
  443ACOH    O212438   6.019   7.639   6.886
  443ACOH    C212439   5.994   7.648   6.754
  443ACOH    O112440   6.058   7.710   6.671
  443ACOH    C112441   5.881   7.560   6.717
  443ACOH    H112442   5.798   7.578   6.785
  443ACOH    H212443   5.912   7.456   6.725
  443ACOH    H312444   5.848   7.580   6.615
  444ACOH    H412445   6.854   6.827   3.755
  444ACOH    O212446   6.836   6.732   3.779
  444ACOH    C212447   6.808   6.726   3.910
  444ACOH    O112448   6.780   6.821   3.982
  444ACOH    C112449   6.795   6.585   3.954
  444ACOH    H112450   6.761   6.580   4.057
  444ACOH    H212451   6.892   6.536   3.946
  444ACOH    H312452   6.724   6.534   3.890
  445ACOH    H412453   4.813   1.542   1.907
  445ACOH    O212454   4.818   1.491   1.991
  445ACOH    C212455   4.698   1.436   2.016
  445ACOH    O112456   4.598   1.443   1.947
  445ACOH    C112457   4.700   1.361   2.144
  445ACOH    H112458   4.725   1.428   2.224
  445ACOH    H212459   4.776   1.283   2.138
  445ACOH    H312460   4.604   1.316   2.164
  446ACOH    H412461   5.921   3.864   7.856
  446ACOH    O212462   5.988   3.834   7.793
  446ACOH    C212463   5.943   3.717   7.743
  446ACOH    O112464   5.839   3.661   7.772
  446ACOH    C112465   6.039   3.660   7.646
  446ACOH    H112466   6.126   3.724   7.635
  446ACOH    H212467   5.990   3.650   7.549
  446ACOH    H312468   6.071   3.562   7.679
  447ACOH    H412469   7.514   3.730   5.028
  447ACOH    O212470   7.416   3.719   5.036
  447ACOH    C212471   7.365   3.715   4.912
  447ACOH    O112472   7.427   3.699   4.808
  447ACOH    C112473   7.217   3.717   4.917
  447ACOH    H112474   7.182   3.638   4.983
  447ACOH    H212475   7.175   3.703   4.818
  447ACOH    H312476   7.184   3.813   4.956
  448ACOH    H412477   5.695   8.548   3.218
  448ACOH    O212478   5.631   8.509   3.151
  448ACOH    C212479   5.633   8.588   3.043
  448ACOH    O112480   5.704   8.686   3.025
  448ACOH    C112481   5.541   8.540   2.938
  448ACOH    H112482   5.472   8.619   2.909
  448ACOH    H212483   5.483   8.455   2.973
  448ACOH    H312484   5.598   8.509   2.850
  449ACOH    H412485   2.892   9.023   4.580
  449ACOH    O212486   2.815   8.995   4.636
  449ACOH    C212487   2.865   8.945   4.750
  449ACOH    O112488   2.983   8.930   4.778
  449ACOH    C112489   2.756   8.905   4.842
  449ACOH    H112490   2.696   8.827   4.795
  449ACOH    H212491   2.693   8.991   4.862
  449ACOH    H312492   2.796   8.868   4.936
  450ACOH    H412493   6.003   7.295   3.230
  450ACOH    O212494   5.914   7.269   3.268
  450ACOH    C212495   5.937   7.222   3.392
  450ACOH    O112496   6.045   7.205   3.445
  450ACOH    C112497   5.809   7.189   3.459
  450ACOH    H112498   5.748   7.279   3.467
  450ACOH    H212499   5.827   7.149   3.559
  450ACOH    H312500   5.755   7.115   3.401
  451ACOH    H412501   5.257   1.634   4.024
  451ACOH    O212502   5.318   1.626   3.947
  451ACOH    C212503   5.410   1.724   3.959
  451ACOH    O112504   5.419   1.803   4.051
  451ACOH    C112505   5.508   1.722   3.848
  451ACOH    H112506   5.478   1.651   3.772
  451ACOH    H212507   5.605   1.693   3.886
  451ACOH    H312508   5.516   1.821   3.804
  452ACOH    H412509   6.865   8.643   1.760
  452ACOH    O212510   6.783   8.586   1.771
  452ACOH    C212511   6.677   8.670   1.775
  452ACOH    O112512   6.680   8.791   1.770
  452ACOH    C112513   6.549   8.596   1.789
  452ACOH    H112514   6.484   8.618   1.705
  452ACOH    H212515   6.500   8.627   1.881
  452ACOH    H312516   6.567   8.489   1.794
  453ACOH    H412517   4.832   4.881   6.392
  453ACOH    O212518   4.795   4.912   6.479
  453ACOH    C212519   4.755   4.802   6.546
  453ACOH    O112520   4.754   4.687   6.504
  453ACOH    C112521   4.702   4.839   6.679
  453ACOH    H112522   4.780   4.891   6.735
  453ACOH    H212523   4.672   4.751   6.736
  453ACOH    H312524   4.617   4.905   6.668
  454ACOH    H412525   2.421   9.582   1.546
  454ACOH    O212526   2.405   9.490   1.584
  454ACOH    C212527   2.440   9.403   1.488
  454ACOH    O112528   2.480   9.429   1.376
  454ACOH    C112529   2.421   9.263   1.533
  454ACOH    H112530   2.384   9.259   1.635
  454ACOH    H212531   2.517   9.211   1.529
  454ACOH    H312532   2.351   9.212   1.468
  455ACOH    H412533   7.202   7.328   7.750
  455ACOH    O212534   7.158   7.253   7.701
  455ACOH    C212535   7.085   7.303   7.599
  455ACOH    O112536   7.027   7.232   7.519
  455ACOH    C112537   7.084   7.451   7.590
  455ACOH    H112538   7.023   7.484   7.506
  455ACOH    H212539   7.185   7.488   7.575
  455ACOH    H312540   7.044   7.494   7.681
  456ACOH    H412541   7.839   5.705   5.862
  456ACOH    O212542   7.844   5.606   5.868
  456ACOH    C212543   7.783   5.557   5.759
  456ACOH    O112544   7.731   5.620   5.668
  456ACOH    C112545   7.784   5.409   5.763
  456ACOH    H112546   7.727   5.367   5.680
  456ACOH    H212547   7.741   5.375   5.857
  456ACOH    H312548   7.886   5.373   5.757
  457ACOH    H412549   5.646   4.755   2.649
  457ACOH    O212550   5.570   4.728   2.589
  457ACOH    C212551   5.460   4.790   2.636
  457ACOH    O112552   5.444   4.834   2.749
  457ACOH    C112553   5.345   4.773   2.544
  457ACOH    H112554   5.297   4.869   2.528
  457ACOH    H212555   5.273   4.704   2.588
  457ACOH    H312556   5.378   4.733   2.448
  458ACOH    H412557   2.566   2.132   4.714
  458ACOH    O212558   2.656   2.173   4.704
  458ACOH    C212559   2.745   2.088   4.760
  458ACOH    O112560   2.722   1.983   4.817
  458ACOH    C112561   2.882   2.142   4.752
  458ACOH    H112562   2.947   2.069   4.703
  458ACOH    H212563   2.920   2.161   4.852
  458ACOH    H312564   2.885   2.234   4.695
  459ACOH    H412565   6.200   2.074   3.263
  459ACOH    O212566   6.191   2.112   3.170
  459ACOH    C212567   6.169   2.244   3.186
  459ACOH    O112568   6.187   2.310   3.286
  459ACOH    C112569   6.133   2.304   3.055
  459ACOH    H112570   6.044   2.256   3.016
  459ACOH    H212571   6.215   2.292   2.985
  459ACOH    H312572   6.113   2.410   3.067
  460ACOH    H412573   6.119   2.555   5.262
  460ACOH    O212574   6.100   2.588   5.355
  460ACOH    C212575   6.158   2.709   5.365
  460ACOH    O112576   6.222   2.768   5.280
  460ACOH    C112577   6.128   2.768   5.498
  460ACOH    H112578   6.176   2.865   5.508
  460ACOH    H212579   6.163   2.702   5.576
  460ACOH    H312580   6.021   2.781   5.508
  461ACOH    H412581   4.426   5.238   5.289
  461ACOH    O212582   4.462   5.331   5.301
  461ACOH    C212583   4.362   5.400   5.359
  461ACOH    O112584   4.243   5.373   5.357
  461ACOH    C112585   4.413   5.530   5.410
  461ACOH    H112586   4.464   5.582   5.331
  461ACOH    H212587   4.482   5.511   5.492
  461ACOH    H312588   4.331   5.591   5.447
  462ACOH    H412589   9.866   8.713   1.502
  462ACOH    O212590   9.818   8.641   1.454
  462ACOH    C212591   9.688   8.655   1.486
  462ACOH    O112592   9.634   8.763   1.506
  462ACOH    C112593   9.609   8.536   1.447
  462ACOH    H112594   9.672   8.449   1.438
  462ACOH    H212595   9.559   8.555   1.352
  462ACOH    H312596   9.534   8.517   1.523
  463ACOH    H412597   7.215   7.883   6.458
  463ACOH    O212598   7.275   7.815   6.498
  463ACOH    C212599   7.200   7.748   6.589
  463ACOH    O112600   7.080   7.760   6.607
  463ACOH    C112601   7.281   7.649   6.663
  463ACOH    H112602   7.245   7.549   6.643
  463ACOH    H212603   7.273   7.668   6.770
  463ACOH    H312604   7.386   7.654   6.635
  464ACOH    H412605   8.393   2.711   7.315
  464ACOH    O212606   8.411   2.646   7.240
  464ACOH    C212607   8.524   2.687   7.181
  464ACOH    O112608   8.564   2.802   7.175
  464ACOH    C112609   8.572   2.583   7.089
  464ACOH    H112610   8.536   2.485   7.118
  464ACOH    H212611   8.681   2.582   7.088
  464ACOH    H312612   8.536   2.605   6.989
  465ACOH    H412613   6.619   7.342   3.707
  465ACOH    O212614   6.712   7.375   3.716
  465ACOH    C212615   6.712   7.500   3.664
  465ACOH    O112616   6.625   7.549   3.594
  465ACOH    C112617   6.843   7.565   3.681
  465ACOH    H112618   6.905   7.513   3.754
  465ACOH    H212619   6.829   7.667   3.715
  465ACOH    H312620   6.896   7.568   3.586
  466ACOH    H412621   7.548   8.368   1.086
  466ACOH    O212622   7.458   8.323   1.083
  466ACOH    C212623   7.381   8.387   1.173
  466ACOH    O112624   7.412   8.481   1.244
  466ACOH    C112625   7.244   8.330   1.176
  466ACOH    H112626   7.172   8.405   1.142
  466ACOH    H212627   7.219   8.303   1.279
  466ACOH    H312628   7.237   8.242   1.114
  467ACOH    H412629   7.911   4.814   4.210
  467ACOH    O212630   7.976   4.852   4.275
  467ACOH    C212631   8.065   4.755   4.300
  467ACOH    O112632   8.057   4.638   4.264
  467ACOH    C112633   8.181   4.805   4.377
  467ACOH    H112634   8.270   4.801   4.315
  467ACOH    H212635   8.197   4.744   4.465
  467ACOH    H312636   8.164   4.908   4.408
  468ACOH    H412637   1.733   7.111   3.064
  468ACOH    O212638   1.660   7.108   3.133
  468ACOH    C212639   1.669   6.987   3.193
  468ACOH    O112640   1.760   6.907   3.183
  468ACOH    C112641   1.557   6.970   3.288
  468ACOH    H112642   1.566   6.876   3.342
  468ACOH    H212643   1.462   6.969   3.234
  468ACOH    H312644   1.556   7.051   3.359
  469ACOH    H412645   1.316   4.281   8.101
  469ACOH    O212646   1.378   4.351   8.125
  469ACOH    C212647   1.421   4.322   8.249
  469ACOH    O112648   1.375   4.237   8.323
  469ACOH    C112649   1.530   4.414   8.291
  469ACOH    H112650   1.612   4.407   8.220
  469ACOH    H212651   1.566   4.387   8.390
  469ACOH    H312652   1.492   4.516   8.293
  470ACOH    H412653   5.546   8.161   7.372
  470ACOH    O212654   5.613   8.120   7.432
  470ACOH    C212655   5.555   8.103   7.552
  470ACOH    O112656   5.439   8.126   7.580
  470ACOH    C112657   5.649   8.045   7.651
  470ACOH    H112658   5.610   7.951   7.688
  470ACOH    H212659   5.660   8.114   7.734
  470ACOH    H312660   5.746   8.028   7.605
  471ACOH    H412661   4.675   6.721   4.169
  471ACOH    O212662   4.706   6.816   4.155
  471ACOH    C212663   4.645   6.889   4.250
  471ACOH    O112664   4.545   6.857   4.313
  471ACOH    C112665   4.697   7.028   4.252
  471ACOH    H112666   4.702   7.067   4.151
  471ACOH    H212667   4.797   7.028   4.295
  471ACOH    H312668   4.634   7.092   4.312
  472ACOH    H412669   5.583   2.417   2.580
  472ACOH    O212670   5.486   2.429   2.571
  472ACOH    C212671   5.467   2.543   2.502
  472ACOH    O112672   5.554   2.618   2.463
  472ACOH    C112673   5.323   2.571   2.479
  472ACOH    H112674   5.304   2.582   2.373
  472ACOH    H212675   5.295   2.664   2.529
  472ACOH    H312676   5.261   2.490   2.517
  473ACOH    H412677   7.016   6.549   3.622
  473ACOH    O212678   6.969   6.576   3.538
  473ACOH    C212679   6.944   6.463   3.470
  473ACOH    O112680   7.000   6.355   3.484
  473ACOH    C112681   6.848   6.486   3.360
  473ACOH    H112682   6.896   6.467   3.264
  473ACOH    H212683   6.813   6.589   3.361
  473ACOH    H312684   6.763   6.420   3.372
  474ACOH    H412685   6.265   5.034   2.710
  474ACOH    O212686   6.202   5.092   2.761
  474ACOH    C212687   6.172   5.196   2.681
  474ACOH    O112688   6.186   5.201   2.560
  474ACOH    C112689   6.100   5.301   2.757
  474ACOH    H112690   6.012   5.258   2.805
  474ACOH    H212691   6.070   5.383   2.692
  474ACOH    H312692   6.166   5.341   2.834
  475ACOH    H412693   8.014   4.057   1.806
  475ACOH    O212694   7.999   4.024   1.714
  475ACOH    C212695   7.891   3.944   1.717
  475ACOH    O112696   7.824   3.914   1.814
  475ACOH    C112697   7.863   3.890   1.581
  475ACOH    H112698   7.949   3.836   1.544
  475ACOH    H212699   7.840   3.972   1.514
  475ACOH    H312700   7.778   3.822   1.584
  476ACOH    H412701   7.289   3.731   2.193
  476ACOH    O212702   7.216   3.799   2.195
  476ACOH    C212703   7.160   3.801   2.073
  476ACOH    O112704   7.201   3.744   1.973
  476ACOH    C112705   7.046   3.895   2.072
  476ACOH    H112706   6.967   3.855   2.134
  476ACOH    H212707   7.008   3.910   1.971
  476ACOH    H312708   7.077   3.991   2.113
  477ACOH    H412709   5.315   6.030   2.224
  477ACOH    O212710   5.403   5.987   2.210
  477ACOH    C212711   5.443   5.937   2.328
  477ACOH    O112712   5.383   5.943   2.434
  477ACOH    C112713   5.573   5.866   2.316
  477ACOH    H112714   5.646   5.912   2.381
  477ACOH    H212715   5.609   5.870   2.213
  477ACOH    H312716   5.561   5.762   2.344
  478ACOH    H412717   6.951   5.643   7.155
  478ACOH    O212718   6.969   5.738   7.174
  478ACOH    C212719   6.937   5.759   7.303
  478ACOH    O112720   6.853   5.698   7.366
  478ACOH    C112721   6.990   5.890   7.348
  478ACOH    H112722   6.973   5.965   7.272
  478ACOH    H212723   7.096   5.881   7.367
  478ACOH    H312724   6.940   5.921   7.440
  479ACOH    H412725   5.569   7.325   4.924
  479ACOH    O212726   5.571   7.229   4.948
  479ACOH    C212727   5.695   7.200   4.991
  479ACOH    O112728   5.791   7.275   4.992
  479ACOH    C112729   5.701   7.060   5.039
  479ACOH    H112730   5.677   6.993   4.956
  479ACOH    H212731   5.629   7.045   5.118
  479ACOH    H312732   5.801   7.036   5.076
  480ACOH    H412733   4.460   0.437   5.135
  480ACOH    O212734   4.545   0.387   5.144
  480ACOH    C212735   4.512   0.256   5.139
  480ACOH    O112736   4.409   0.209   5.095
  480ACOH    C112737   4.628   0.171   5.176
  480ACOH    H112738   4.604   0.066   5.165
  480ACOH    H212739   4.657   0.192   5.278
  480ACOH    H312740   4.712   0.194   5.111
  481ACOH    H412741   7.816   5.059   4.572
  481ACOH    O212742   7.741   5.124   4.569
  481ACOH    C212743   7.695   5.128   4.443
  481ACOH    O112744   7.704   5.040   4.359
  481ACOH    C112745   7.606   5.244   4.425
  481ACOH    H112746   7.551   5.238   4.332
  481ACOH    H212747   7.665   5.335   4.426
  481ACOH    H312748   7.535   5.249   4.508
  482ACOH    H412749   4.857   4.164   5.079
  482ACOH    O212750   4.933   4.199   5.025
  482ACOH    C212751   5.022   4.098   5.022
  482ACOH    O112752   4.994   3.979   5.019
  482ACOH    C112753   5.157   4.150   4.991
  482ACOH    H112754   5.153   4.213   4.903
  482ACOH    H212755   5.227   4.069   4.975
  482ACOH    H312756   5.191   4.209   5.076
  483ACOH    H412757   6.791   3.954   3.185
  483ACOH    O212758   6.695   3.979   3.170
  483ACOH    C212759   6.622   3.869   3.194
  483ACOH    O112760   6.664   3.755   3.208
  483ACOH    C112761   6.477   3.900   3.192
  483ACOH    H112762   6.461   4.007   3.181
  483ACOH    H212763   6.431   3.866   3.284
  483ACOH    H312764   6.431   3.849   3.108
  484ACOH    H412765   8.406   4.543   7.766
  484ACOH    O212766   8.450   4.618   7.815
  484ACOH    C212767   8.547   4.563   7.889
  484ACOH    O112768   8.555   4.446   7.922
  484ACOH    C112769   8.634   4.669   7.946
  484ACOH    H112770   8.692   4.714   7.866
  484ACOH    H212771   8.702   4.626   8.020
  484ACOH    H312772   8.572   4.745   7.993
  485ACOH    H412773   6.962   5.845   6.494
  485ACOH    O212774   6.887   5.790   6.459
  485ACOH    C212775   6.777   5.868   6.460
  485ACOH    O112776   6.773   5.988   6.475
  485ACOH    C112777   6.657   5.788   6.427
  485ACOH    H112778   6.669   5.742   6.329
  485ACOH    H212779   6.568   5.850   6.427
  485ACOH    H312780   6.645   5.710   6.501
  486ACOH    H412781   8.116   4.811   4.847
  486ACOH    O212782   8.086   4.771   4.761
  486ACOH    C212783   8.049   4.644   4.788
  486ACOH    O112784   8.039   4.593   4.898
  486ACOH    C112785   8.011   4.574   4.663
  486ACOH    H112786   7.931   4.628   4.613
  486ACOH    H212787   7.978   4.472   4.685
  486ACOH    H312788   8.097   4.568   4.597
  487ACOH    H412789   8.068   8.385   4.820
  487ACOH    O212790   8.141   8.452   4.836
  487ACOH    C212791   8.149   8.468   4.970
  487ACOH    O112792   8.065   8.434   5.052
  487ACOH    C112793   8.262   8.555   5.007
  487ACOH    H112794   8.320   8.508   5.086
  487ACOH    H212795   8.224   8.650   5.044
  487ACOH    H312796   8.327   8.574   4.922
  488ACOH    H412797   7.294   6.411   1.074
  488ACOH    O212798   7.333   6.460   0.996
  488ACOH    C212799   7.381   6.576   1.044
  488ACOH    O112800   7.359   6.625   1.154
  488ACOH    C112801   7.457   6.647   0.939
  488ACOH    H112802   7.544   6.589   0.911
  488ACOH    H212803   7.489   6.745   0.973
  488ACOH    H312804   7.395   6.660   0.850
  489ACOH    H412805   7.437   1.310   2.942
  489ACOH    O212806   7.393   1.243   3.000
  489ACOH    C212807   7.263   1.236   2.967
  489ACOH    O112808   7.208   1.291   2.873
  489ACOH    C112809   7.187   1.155   3.066
  489ACOH    H112810   7.254   1.109   3.137
  489ACOH    H212811   7.131   1.077   3.014
  489ACOH    H312812   7.117   1.219   3.119
  490ACOH    H412813   1.991   6.724   0.376
  490ACOH    O212814   1.893   6.721   0.356
  490ACOH    C212815   1.831   6.715   0.476
  490ACOH    O112816   1.879   6.746   0.583
  490ACOH    C112817   1.689   6.678   0.460
  490ACOH    H112818   1.639   6.671   0.556
  490ACOH    H212819   1.681   6.583   0.409
  490ACOH    H312820   1.638   6.753   0.400
  491ACOH    H412821   4.188   8.082   7.136
  491ACOH    O212822   4.188   8.040   7.045
  491ACOH    C212823   4.304   8.076   6.987
  491ACOH    O112824   4.384   8.157   7.029
  491ACOH    C112825   4.324   8.008   6.857
  491ACOH    H112826   4.416   7.950   6.860
  491ACOH    H212827   4.332   8.082   6.778
  491ACOH    H312828   4.241   7.941   6.835
  492ACOH    H412829   3.871   1.061   1.761
  492ACOH    O212830   3.928   1.141   1.764
  492ACOH    C212831   3.860   1.237   1.829
  492ACOH    O112832   3.743   1.235   1.863
  492ACOH    C112833   3.948   1.353   1.860
  492ACOH    H112834   4.046   1.340   1.814
  492ACOH    H212835   3.960   1.362   1.967
  492ACOH    H312836   3.903   1.444   1.821
  493ACOH    H412837   3.039   8.891   5.117
  493ACOH    O212838   3.119   8.873   5.061
  493ACOH    C212839   3.175   8.992   5.032
  493ACOH    O112840   3.140   9.102   5.071
  493ACOH    C112841   3.298   8.970   4.952
  493ACOH    H112842   3.270   8.936   4.852
  493ACOH    H212843   3.358   8.893   4.999
  493ACOH    H312844   3.357   9.061   4.944
  494ACOH    H412845   6.876   6.166   0.696
  494ACOH    O212846   6.870   6.210   0.786
  494ACOH    C212847   6.996   6.238   0.823
  494ACOH    O112848   7.099   6.202   0.767
  494ACOH    C112849   7.000   6.314   0.950
  494ACOH    H112850   6.900   6.341   0.983
  494ACOH    H212851   7.059   6.404   0.937
  494ACOH    H312852   7.047   6.253   1.028
  495ACOH    H412853   9.281   9.469   2.914
  495ACOH    O212854   9.282   9.469   2.815
  495ACOH    C212855   9.242   9.591   2.776
  495ACOH    O112856   9.246   9.692   2.844
  495ACOH    C112857   9.228   9.598   2.629
  495ACOH    H112858   9.215   9.499   2.587
  495ACOH    H212859   9.317   9.643   2.586
  495ACOH    H312860   9.142   9.659   2.603
  496ACOH    H412861   4.892   8.676   0.603
  496ACOH    O212862   4.862   8.719   0.518
  496ACOH    C212863   4.834   8.621   0.431
  496ACOH    O112864   4.875   8.506   0.437
  496ACOH    C112865   4.768   8.674   0.310
  496ACOH    H112866   4.838   8.674   0.227
  496ACOH    H212867   4.732   8.775   0.327
  496ACOH    H312868   4.683   8.611   0.284
  497ACOH    H412869   6.404   9.308   2.415
  497ACOH    O212870   6.325   9.347   2.368
  497ACOH    C212871   6.236   9.383   2.463
  497ACOH    O112872   6.252   9.382   2.583
  497ACOH    C112873   6.114   9.439   2.401
  497ACOH    H112874   6.110   9.546   2.419
  497ACOH    H212875   6.026   9.392   2.443
  497ACOH    H312876   6.114   9.423   2.293
  498ACOH    H412877   1.417   6.539   4.137
  498ACOH    O212878   1.403   6.563   4.042
  498ACOH    C212879   1.272   6.588   4.025
  498ACOH    O112880   1.183   6.558   4.102
  498ACOH    C112881   1.243   6.642   3.890
  498ACOH    H112882   1.200   6.741   3.900
  498ACOH    H212883   1.173   6.578   3.839
  498ACOH    H312884   1.334   6.649   3.832
  499ACOH    H412885   6.179   6.398   0.876
  499ACOH    O212886   6.257   6.453   0.901
  499ACOH    C212887   6.240   6.483   1.031
  499ACOH    O112888   6.139   6.466   1.097
  499ACOH    C112889   6.361   6.544   1.091
  499ACOH    H112890   6.430   6.574   1.013
  499ACOH    H212891   6.409   6.471   1.155
  499ACOH    H312892   6.333   6.631   1.150
  500ACOH    H412893   5.742   9.342   1.258
  500ACOH    O212894   5.672   9.406   1.226
  500ACOH    C212895   5.730   9.528   1.226
  500ACOH    O112896   5.848   9.554   1.239
  500ACOH    C112897   5.628   9.632   1.197
  500ACOH    H112898   5.578   9.608   1.104
  500ACOH    H212899   5.675   9.729   1.189
  500ACOH    H312900   5.556   9.634   1.277
  501ACOH    H412901   1.972   7.598   5.883
  501ACOH    O212902   1.986   7.687   5.928
  501ACOH    C212903   1.926   7.778   5.849
  501ACOH    O112904   1.856   7.757   5.752
  501ACOH    C112905   1.945   7.915   5.904
  501ACOH    H112906   1.880   7.985   5.854
  501ACOH    H212907   2.048   7.945   5.890
  501ACOH    H312908   1.923   7.915   6.010
  502ACOH    H412909   6.401   2.885   3.652
  502ACOH    O212910   6.394   2.958   3.719
  502ACOH    C212911   6.334   2.907   3.828
  502ACOH    O112912   6.302   2.791   3.846
  502ACOH    C112913   6.314   3.011   3.932
  502ACOH    H112914   6.377   2.989   4.018
  502ACOH    H212915   6.210   3.011   3.963
  502ACOH    H312916   6.339   3.109   3.893
  503ACOH    H412917   8.013   9.717   0.819
  503ACOH    O212918   7.938   9.771   0.782
  503ACOH    C212919   7.989   9.838   0.677
  503ACOH    O112920   8.098   9.821   0.627
  503ACOH    C112921   7.888   9.929   0.617
  503ACOH    H112922   7.797   9.932   0.676
  503ACOH    H212923   7.864   9.895   0.516
  503ACOH    H312924   7.930   0.029   0.611
  504ACOH    H412925   1.927   9.378   7.521
  504ACOH    O212926   1.846   9.436   7.515
  504ACOH    C212927   1.754   9.365   7.447
  504ACOH    O112928   1.769   9.252   7.402
  504ACOH    C112929   1.632   9.446   7.423
  504ACOH    H112930   1.589   9.475   7.518
  504ACOH    H212931   1.558   9.389   7.367
  504ACOH    H312932   1.658   9.535   7.367
  505ACOH    H412933   7.168   7.949   7.991
  505ACOH    O212934   7.188   7.994   8.078
  505ACOH    C212935   7.207   7.896   8.168
  505ACOH    O112936   7.192   7.777   8.151
  505ACOH    C112937   7.247   7.953   8.299
  505ACOH    H112938   7.173   8.025   8.332
  505ACOH    H212939   7.343   8.002   8.289
  505ACOH    H312940   7.255   7.874   8.374
  506ACOH    H412941   1.710   3.593   3.431
  506ACOH    O212942   1.775   3.522   3.402
  506ACOH    C212943   1.806   3.452   3.513
  506ACOH    O112944   1.773   3.479   3.627
  506ACOH    C112945   1.893   3.337   3.479
  506ACOH    H112946   1.983   3.372   3.430
  506ACOH    H212947   1.840   3.269   3.413
  506ACOH    H312948   1.921   3.283   3.569
  507ACOH    H412949   9.751   4.341   2.328
  507ACOH    O212950   9.768   4.399   2.407
  507ACOH    C212951   9.805   4.321   2.509
  507ACOH    O112952   9.824   4.200   2.505
  507ACOH    C112953   9.821   4.402   2.632
  507ACOH    H112954   9.728   4.452   2.655
  507ACOH    H212955   9.898   4.477   2.615
  507ACOH    H312956   9.850   4.340   2.716
  508ACOH    H412957   0.841   7.127   7.389
  508ACOH    O212958   0.837   7.223   7.416
  508ACOH    C212959   0.775   7.289   7.317
  508ACOH    O112960   0.747   7.248   7.206
  508ACOH    C112961   0.745   7.429   7.358
  508ACOH    H112962   0.637   7.444   7.358
  508ACOH    H212963   0.790   7.498   7.287
  508ACOH    H312964   0.783   7.449   7.457
  509ACOH    H412965   4.879   7.842   6.562
  509ACOH    O212966   4.816   7.791   6.503
  509ACOH    C212967   4.888   7.691   6.449
  509ACOH    O112968   5.006   7.666   6.469
  509ACOH    C112969   4.805   7.609   6.357
  509ACOH    H112970   4.767   7.672   6.277
  509ACOH    H212971   4.722   7.566   6.411
  509ACOH    H312972   4.864   7.529   6.313
  510ACOH    H412973   7.615   3.907   5.430
  510ACOH    O212974   7.590   3.957   5.514
  510ACOH    C212975   7.597   3.865   5.612
  510ACOH    O112976   7.600   3.744   5.600
  510ACOH    C112977   7.584   3.929   5.746
  510ACOH    H112978   7.577   4.037   5.737
  510ACOH    H212979   7.671   3.903   5.805
  510ACOH    H312980   7.495   3.890   5.795
  511ACOH    H412981   5.864   2.197   8.108
  511ACOH    O212982   5.947   2.205   8.059
  511ACOH    C212983   5.914   2.227   7.931
  511ACOH    O112984   5.802   2.225   7.884
  511ACOH    C112985   6.036   2.246   7.848
  511ACOH    H112986   6.010   2.260   7.744
  511ACOH    H212987   6.099   2.159   7.858
  511ACOH    H312988   6.090   2.333   7.883
  512ACOH    H412989   8.327   7.353   0.222
  512ACOH    O212990   8.253   7.406   0.180
  512ACOH    C212991   8.228   7.511   0.260
  512ACOH    O112992   8.276   7.533   0.370
  512ACOH    C112993   8.126   7.599   0.198
  512ACOH    H112994   8.093   7.674   0.268
  512ACOH    H212995   8.041   7.539   0.168
  512ACOH    H312996   8.169   7.647   0.110
  513ACOH    H412997   5.778   3.490   1.876
  513ACOH    O212998   5.686   3.451   1.881
  513ACOH    C212999   5.677   3.363   1.779
  513ACOH    O113000   5.769   3.317   1.714
  513ACOH    C113001   5.538   3.316   1.760
  513ACOH    H113002   5.508   3.329   1.656
  513ACOH    H213003   5.469   3.371   1.822
  513ACOH    H313004   5.531   3.210   1.785
  514ACOH    H413005   5.581   0.969   1.655
  514ACOH    O213006   5.661   1.010   1.613
  514ACOH    C213007   5.739   0.907   1.573
  514ACOH    O113008   5.699   0.798   1.534
  514ACOH    C113009   5.877   0.951   1.544
  514ACOH    H113010   5.899   1.044   1.596
  514ACOH    H213011   5.891   0.966   1.438
  514ACOH    H313012   5.948   0.875   1.578
  515ACOH    H413013   9.396   0.457   0.997
  515ACOH    O213014   9.350   0.543   0.984
  515ACOH    C213015   9.324   0.556   0.852
  515ACOH    O113016   9.351   0.475   0.765
  515ACOH    C113017   9.256   0.685   0.826
  515ACOH    H113018   9.226   0.693   0.722
  515ACOH    H213019   9.323   0.767   0.850
  515ACOH    H313020   9.167   0.692   0.888
  516ACOH    H413021   8.441   3.639   3.929
  516ACOH    O213022   8.459   3.551   3.886
  516ACOH    C213023   8.589   3.553   3.850
  516ACOH    O113024   8.667   3.645   3.865
  516ACOH    C113025   8.626   3.428   3.780
  516ACOH    H113026   8.648   3.450   3.675
  516ACOH    H213027   8.546   3.354   3.784
  516ACOH    H313028   8.715   3.386   3.826
  517ACOH    H413029   2.909   0.853   4.109
  517ACOH    O213030   3.001   0.824   4.132
  517ACOH    C213031   3.087   0.903   4.067
  517ACOH    O113032   3.060   1.006   4.008
  517ACOH    C113033   3.227   0.859   4.091
  517ACOH    H113034   3.248   0.861   4.198
  517ACOH    H213035   3.297   0.923   4.039
  517ACOH    H313036   3.239   0.757   4.055
  518ACOH    H413037   4.575   4.381   7.666
  518ACOH    O213038   4.607   4.429   7.584
  518ACOH    C213039   4.733   4.389   7.563
  518ACOH    O113040   4.768   4.273   7.571
  518ACOH    C113041   4.803   4.487   7.476
  518ACOH    H113042   4.756   4.584   7.483
  518ACOH    H213043   4.799   4.453   7.373
  518ACOH    H313044   4.906   4.496   7.506
  519ACOH    H413045   3.810   2.910   2.023
  519ACOH    O213046   3.877   2.903   2.096
  519ACOH    C213047   3.811   2.859   2.205
  519ACOH    O113048   3.694   2.825   2.212
  519ACOH    C113049   3.900   2.859   2.323
  519ACOH    H113050   3.937   2.960   2.342
  519ACOH    H213051   3.986   2.794   2.305
  519ACOH    H313052   3.848   2.824   2.412
  520ACOH    H413053   9.008   7.993   4.882
  520ACOH    O213054   8.966   7.913   4.840
  520ACOH    C213055   8.841   7.951   4.806
  520ACOH    O113056   8.783   8.051   4.844
  520ACOH    C113057   8.770   7.844   4.732
  520ACOH    H113058   8.838   7.764   4.703
  520ACOH    H213059   8.725   7.885   4.643
  520ACOH    H313060   8.692   7.801   4.795
  521ACOH    H413061   7.596   4.538   5.610
  521ACOH    O213062   7.631   4.571   5.698
  521ACOH    C213063   7.695   4.686   5.670
  521ACOH    O113064   7.671   4.762   5.578
  521ACOH    C113065   7.783   4.727   5.782
  521ACOH    H113066   7.801   4.643   5.848
  521ACOH    H213067   7.736   4.807   5.838
  521ACOH    H313068   7.878   4.762   5.743
  522ACOH    H413069   6.810   7.092   2.356
  522ACOH    O213070   6.736   7.093   2.423
  522ACOH    C213071   6.722   6.967   2.465
  522ACOH    O113072   6.748   6.868   2.399
  522ACOH    C113073   6.637   6.960   2.586
  522ACOH    H113074   6.538   6.925   2.559
  522ACOH    H213075   6.629   7.058   2.632
  522ACOH    H313076   6.681   6.891   2.658
  523ACOH    H413077   5.390   6.729   1.024
  523ACOH    O213078   5.486   6.740   1.050
  523ACOH    C213079   5.487   6.823   1.156
  523ACOH    O113080   5.395   6.895   1.193
  523ACOH    C113081   5.623   6.829   1.215
  523ACOH    H113082   5.693   6.869   1.143
  523ACOH    H213083   5.655   6.729   1.243
  523ACOH    H313084   5.623   6.891   1.305
  524ACOH    H413085   4.087   6.954   8.413
  524ACOH    O213086   4.182   6.947   8.397
  524ACOH    C213087   4.198   6.883   8.280
  524ACOH    O113088   4.108   6.841   8.209
  524ACOH    C113089   4.341   6.863   8.246
  524ACOH    H113090   4.362   6.910   8.150
  524ACOH    H213091   4.362   6.757   8.239
  524ACOH    H313092   4.404   6.908   8.322
  525ACOH    H413093   8.718   6.623   3.261
  525ACOH    O213094   8.741   6.538   3.308
  525ACOH    C213095   8.804   6.459   3.218
  525ACOH    O113096   8.801   6.473   3.097
  525ACOH    C113097   8.861   6.339   3.283
  525ACOH    H113098   8.798   6.253   3.264
  525ACOH    H213099   8.870   6.353   3.391
  525ACOH    H313100   8.960   6.320   3.242
  526ACOH    H413101   7.152   4.371   3.709
  526ACOH    O213102   7.149   4.289   3.767
  526ACOH    C213103   7.197   4.325   3.887
  526ACOH    O113104   7.267   4.422   3.910
  526ACOH    C113105   7.171   4.219   3.987
  526ACOH    H113106   7.208   4.124   3.950
  526ACOH    H213107   7.064   4.211   4.004
  526ACOH    H313108   7.221   4.242   4.081
  527ACOH    H413109   7.353   7.978   1.398
  527ACOH    O213110   7.375   7.882   1.377
  527ACOH    C213111   7.494   7.880   1.315
  527ACOH    O113112   7.560   7.975   1.276
  527ACOH    C113113   7.535   7.740   1.292
  527ACOH    H113114   7.551   7.690   1.387
  527ACOH    H213115   7.627   7.736   1.234
  527ACOH    H313116   7.457   7.688   1.237
  528ACOH    H413117   1.338   9.335   7.630
  528ACOH    O213118   1.395   9.317   7.709
  528ACOH    C213119   1.502   9.251   7.662
  528ACOH    O113120   1.498   9.169   7.572
  528ACOH    C113121   1.612   9.254   7.761
  528ACOH    H113122   1.684   9.174   7.742
  528ACOH    H213123   1.573   9.242   7.862
  528ACOH    H313124   1.664   9.349   7.754
  529ACOH    H413125   5.259   1.282   3.602
  529ACOH    O213126   5.216   1.214   3.543
  529ACOH    C213127   5.083   1.221   3.563
  529ACOH    O113128   5.026   1.295   3.641
  529ACOH    C113129   5.008   1.128   3.475
  529ACOH    H113130   4.954   1.056   3.536
  529ACOH    H213131   5.075   1.075   3.408
  529ACOH    H313132   4.936   1.184   3.416
  530ACOH    H413133   6.642   7.896   7.379
  530ACOH    O213134   6.594   7.835   7.441
  530ACOH    C213135   6.622   7.709   7.402
  530ACOH    O113136   6.690   7.676   7.307
  530ACOH    C113137   6.556   7.612   7.492
  530ACOH    H113138   6.448   7.621   7.483
  530ACOH    H213139   6.584   7.633   7.595
  530ACOH    H313140   6.585   7.510   7.467
  531ACOH    H413141   7.916   3.903   5.701
  531ACOH    O213142   7.926   3.887   5.799
  531ACOH    C213143   8.040   3.946   5.837
  531ACOH    O113144   8.111   4.018   5.769
  531ACOH    C113145   8.071   3.915   5.978
  531ACOH    H113146   7.988   3.946   6.041
  531ACOH    H213147   8.162   3.965   6.010
  531ACOH    H313148   8.085   3.808   5.988
  532ACOH    H413149   7.554   2.966   5.512
  532ACOH    O213150   7.465   2.987   5.552
  532ACOH    C213151   7.372   2.909   5.495
  532ACOH    O113152   7.387   2.837   5.398
  532ACOH    C113153   7.239   2.931   5.557
  532ACOH    H113154   7.198   2.836   5.589
  532ACOH    H213155   7.172   2.976   5.484
  532ACOH    H313156   7.248   2.997   5.643
  533ACOH    H413157   4.320   3.050   4.386
  533ACOH    O213158   4.358   3.059   4.295
  533ACOH    C213159   4.426   2.945   4.270
  533ACOH    O113160   4.463   2.864   4.353
  533ACOH    C113161   4.468   2.935   4.128
  533ACOH    H113162   4.429   3.018   4.070
  533ACOH    H213163   4.430   2.843   4.085
  533ACOH    H313164   4.576   2.934   4.121
  534ACOH    H413165   8.915   1.205   5.025
  534ACOH    O213166   8.886   1.299   5.027
  534ACOH    C213167   8.761   1.299   5.076
  534ACOH    O113168   8.711   1.211   5.144
  534ACOH    C113169   8.694   1.429   5.049
  534ACOH    H113170   8.751   1.509   5.095
  534ACOH    H213171   8.593   1.429   5.090
  534ACOH    H313172   8.689   1.446   4.942
  535ACOH    H413173   3.893   1.497   4.625
  535ACOH    O213174   3.966   1.556   4.594
  535ACOH    C213175   3.920   1.625   4.488
  535ACOH    O113176   3.804   1.638   4.454
  535ACOH    C113177   4.032   1.695   4.420
  535ACOH    H113178   4.105   1.623   4.385
  535ACOH    H213179   4.080   1.763   4.490
  535ACOH    H313180   3.996   1.753   4.336
  536ACOH    H413181   1.946   7.950   2.017
  536ACOH    O213182   1.889   8.001   2.081
  536ACOH    C213183   1.934   8.128   2.074
  536ACOH    O113184   2.017   8.172   1.997
  536ACOH    C113185   1.860   8.216   2.167
  536ACOH    H113186   1.789   8.276   2.112
  536ACOH    H213187   1.930   8.283   2.217
  536ACOH    H313188   1.809   8.158   2.243
  537ACOH    H413189   7.506   3.197   7.817
  537ACOH    O213190   7.484   3.110   7.860
  537ACOH    C213191   7.373   3.063   7.801
  537ACOH    O113192   7.317   3.113   7.705
  537ACOH    C113193   7.329   2.936   7.862
  537ACOH    H113194   7.224   2.944   7.890
  537ACOH    H213195   7.387   2.913   7.950
  537ACOH    H313196   7.340   2.855   7.790
  538ACOH    H413197   3.549   6.514   6.014
  538ACOH    O213198   3.636   6.473   6.037
  538ACOH    C213199   3.710   6.468   5.925
  538ACOH    O113200   3.688   6.530   5.822
  538ACOH    C113201   3.837   6.394   5.946
  538ACOH    H113202   3.849   6.320   5.868
  538ACOH    H213203   3.835   6.344   6.042
  538ACOH    H313204   3.920   6.464   5.944
  539ACOH    H413205   4.108   3.926   5.287
  539ACOH    O213206   4.039   3.926   5.216
  539ACOH    C213207   3.988   3.801   5.210
  539ACOH    O113208   4.038   3.700   5.256
  539ACOH    C113209   3.872   3.798   5.118
  539ACOH    H113210   3.789   3.851   5.163
  539ACOH    H213211   3.841   3.695   5.098
  539ACOH    H313212   3.898   3.846   5.024
  540ACOH    H413213   3.870   7.769   0.282
  540ACOH    O213214   3.810   7.833   0.236
  540ACOH    C213215   3.870   7.864   0.119
  540ACOH    O113216   3.967   7.809   0.070
  540ACOH    C113217   3.790   7.967   0.048
  540ACOH    H113218   3.787   8.057   0.107
  540ACOH    H213219   3.689   7.931   0.033
  540ACOH    H313220   3.834   7.989  10.033
  541ACOH    H413221   5.483   6.936   2.642
  541ACOH    O213222   5.577   6.917   2.614
  541ACOH    C213223   5.599   6.787   2.637
  541ACOH    O113224   5.514   6.700   2.641
  541ACOH    C113225   5.744   6.754   2.625
  541ACOH    H113226   5.804   6.845   2.630
  541ACOH    H213227   5.762   6.705   2.530
  541ACOH    H313228   5.773   6.688   2.705
  542ACOH    H413229   3.947   5.139   6.383
  542ACOH    O213230   3.900   5.102   6.304
  542ACOH    C213231   3.793   5.034   6.350
  542ACOH    O113232   3.768   5.007   6.466
  542ACOH    C113233   3.707   4.985   6.239
  542ACOH    H113234   3.698   4.877   6.246
  542ACOH    H213235   3.751   5.011   6.143
  542ACOH    H313236   3.609   5.030   6.247
  543ACOH    H413237   0.190   1.356   1.559
  543ACOH    O213238   0.147   1.437   1.522
  543ACOH    C213239   0.014   1.415   1.532
  543ACOH    O113240   9.959   1.348   1.617
  543ACOH    C113241   9.941   1.508   1.443
  543ACOH    H113242   9.834   1.507   1.466
  543ACOH    H213243   9.955   1.478   1.340
  543ACOH    H313244   9.978   1.609   1.456
  544ACOH    H413245   3.473   7.575   2.491
  544ACOH    O213246   3.568   7.564   2.518
  544ACOH    C213247   3.639   7.661   2.459
  544ACOH    O113248   3.596   7.751   2.389
  544ACOH    C113249   3.783   7.652   2.493
  544ACOH    H113250   3.842   7.639   2.403
  544ACOH    H213251   3.802   7.568   2.560
  544ACOH    H313252   3.814   7.743   2.543
  545ACOH    H413253   9.012   0.714   5.269
  545ACOH    O213254   9.016   0.672   5.360
  545ACOH    C213255   8.961   0.550   5.348
  545ACOH    O113256   8.940   0.491   5.244
  545ACOH    C113257   8.950   0.482   5.479
  545ACOH    H113258   8.849   0.442   5.491
  545ACOH    H213259   8.971   0.551   5.560
  545ACOH    H313260   9.020   0.399   5.483
  546ACOH    H413261   6.198   7.275   5.716
  546ACOH    O213262   6.151   7.285   5.803
  546ACOH    C213263   6.096   7.166   5.831
  546ACOH    O113264   6.092   7.069   5.758
  546ACOH    C113265   6.029   7.167   5.964
  546ACOH    H113266   5.924   7.144   5.952
  546ACOH    H213267   6.039   7.264   6.011
  546ACOH    H313268   6.075   7.092   6.028
  547ACOH    H413269   6.680   9.736   1.181
  547ACOH    O213270   6.587   9.739   1.145
  547ACOH    C213271   6.549   9.611   1.127
  547ACOH    O113272   6.604   9.512   1.173
  547ACOH    C113273   6.419   9.604   1.056
  547ACOH    H113274   6.345   9.663   1.110
  547ACOH    H213275   6.384   9.501   1.050
  547ACOH    H313276   6.430   9.644   0.956
  548ACOH    H413277   5.603   5.140   6.040
  548ACOH    O213278   5.674   5.208   6.029
  548ACOH    C213279   5.790   5.141   6.009
  548ACOH    O113280   5.802   5.022   5.991
  548ACOH    C113281   5.905   5.235   6.001
  548ACOH    H113282   5.873   5.336   6.023
  548ACOH    H213283   5.947   5.231   5.901
  548ACOH    H313284   5.980   5.205   6.073
  549ACOH    H413285   0.687   1.512   0.680
  549ACOH    O213286   0.733   1.428   0.708
  549ACOH    C213287   0.653   1.327   0.666
  549ACOH    O113288   0.552   1.339   0.598
  549ACOH    C113289   0.707   1.195   0.704
  549ACOH    H113290   0.631   1.138   0.757
  549ACOH    H213291   0.794   1.206   0.769
  549ACOH    H313292   0.737   1.140   0.615
  550ACOH    H413293   7.666   1.651   0.551
  550ACOH    O213294   7.622   1.694   0.473
  550ACOH    C213295   7.520   1.766   0.521
  550ACOH    O113296   7.504   1.803   0.635
  550ACOH    C113297   7.435   1.819   0.411
  550ACOH    H113298   7.331   1.816   0.440
  550ACOH    H213299   7.447   1.757   0.322
  550ACOH    H313300   7.465   1.921   0.388
  551ACOH    H413301   5.195   0.920   0.783
  551ACOH    O213302   5.245   0.858   0.722
  551ACOH    C213303   5.366   0.913   0.702
  551ACOH    O113304   5.414   1.007   0.764
  551ACOH    C113305   5.444   0.838   0.601
  551ACOH    H113306   5.530   0.792   0.649
  551ACOH    H213307   5.480   0.907   0.524
  551ACOH    H313308   5.384   0.762   0.554
  552SOL     OW13309   2.250   1.371   7.869
  552SOL    HW113310   2.320   1.381   7.940
  552SOL    HW213311   2.166   1.417   7.897
  553SOL     OW13312   4.056   4.332   6.156
  553SOL    HW113313   3.976   4.354   6.212
  553SOL    HW213314   4.139   4.358   6.205
  554SOL     OW13315   2.501   4.335   1.557
  554SOL    HW113316   2.542   4.375   1.475
  554SOL    HW213317   2.406   4.312   1.538
  555SOL     OW13318   6.746   9.755   1.763
  555SOL    HW113319   6.795   9.781   1.846
  555SOL    HW213320   6.657   9.717   1.787
  556SOL     OW13321   2.616   4.801   4.872
  556SOL    HW113322   2.677   4.749   4.931
  556SOL    HW213323   2.642   4.786   4.776
  557SOL     OW13324   4.413   6.685   0.897
  557SOL    HW113325   4.456   6.597   0.877
  557SOL    HW213326   4.467   6.759   0.857
  558SOL     OW13327   5.122   1.440   5.885
  558SOL    HW113328   5.046   1.413   5.826
  558SOL    HW213329   5.114   1.394   5.973
  559SOL     OW13330   2.946   0.876   3.506
  559SOL    HW113331   2.982   0.785   3.484
  559SOL    HW213332   2.920   0.879   3.602
  560SOL     OW13333   6.936   0.802   6.930
  560SOL    HW113334   7.019   0.752   6.954
  560SOL    HW213335   6.947   0.844   6.840
  561SOL     OW13336   3.326   5.189   4.119
  561SOL    HW113337   3.291   5.180   4.213
  561SOL    HW213338   3.417   5.230   4.121
  562SOL     OW13339   8.620   4.079   7.739
  562SOL    HW113340   8.565   4.027   7.674
  562SOL    HW213341   8.579   4.074   7.830
  563SOL     OW13342   0.393   1.547   4.559
  563SOL    HW113343   0.464   1.580   4.622
  563SOL    HW213344   0.405   1.590   4.470
  564SOL     OW13345   1.817   6.340   3.236
  564SOL    HW113346   1.748   6.338   3.309
  564SOL    HW213347   1.831   6.435   3.206
  565SOL     OW13348   3.894   6.276   1.535
  565SOL    HW113349   3.989   6.257   1.561
  565SOL    HW213350   3.862   6.357   1.584
  566SOL     OW13351   2.362   3.814   3.319
  566SOL    HW113352   2.395   3.751   3.390
  566SOL    HW213353   2.367   3.768   3.230
  567SOL     OW13354   1.699   2.058   2.969
  567SOL    HW113355   1.785   2.089   2.928
  567SOL    HW213356   1.623   2.106   2.927
  568SOL     OW13357   6.344   0.762   2.857
  568SOL    HW113358   6.322   0.666   2.873
  568SOL    HW213359   6.328   0.784   2.760
  569SOL     OW13360   0.766   3.639   7.295
  569SOL    HW113361   0.735   3.690   7.376
  569SOL    HW213362   0.687   3.611   7.241
  570SOL     OW13363   4.648   5.755   4.315
  570SOL    HW113364   4.660   5.706   4.401
  570SOL    HW213365   4.608   5.845   4.334
  571SOL     OW13366   1.425   9.656   6.392
  571SOL    HW113367   1.413   9.631   6.488
  571SOL    HW213368   1.520   9.681   6.375
  572SOL     OW13369   0.760   3.574   0.163
  572SOL    HW113370   0.849   3.615   0.184
  572SOL    HW213371   0.701   3.643   0.123
  573SOL     OW13372   8.666   7.866   2.861
  573SOL    HW113373   8.679   7.781   2.912
  573SOL    HW213374   8.754   7.897   2.825
  574SOL     OW13375   2.750   0.898   4.090
  574SOL    HW113376   2.696   0.854   4.161
  574SOL    HW213377   2.747   0.997   4.102
  575SOL     OW13378   1.246   9.032   5.217
  575SOL    HW113379   1.253   9.119   5.168
  575SOL    HW213380   1.260   9.048   5.314
  576SOL     OW13381   9.934   7.660   6.154
  576SOL    HW113382   0.014   7.614   6.116
  576SOL    HW213383   9.862   7.594   6.171
  577SOL     OW13384   1.031   7.343   3.263
  577SOL    HW113385   1.080   7.396   3.194
  577SOL    HW213386   1.097   7.301   3.326
  578SOL     OW13387   1.620   1.427   2.634
  578SOL    HW113388   1.571   1.502   2.590
  578SOL    HW213389   1.716   1.454   2.649
  579SOL     OW13390   3.340   0.688   2.406
  579SOL    HW113391   3.412   0.746   2.366
  579SOL    HW213392   3.302   0.734   2.486
  580SOL     OW13393   6.491   3.972   0.610
  580SOL    HW113394   6.576   4.025   0.616
  580SOL    HW213395   6.447   3.972   0.700
  581SOL     OW13396   6.911   1.660   4.252
  581SOL    HW113397   6.997   1.709   4.269
  581SOL    HW213398   6.864   1.703   4.175
  582SOL     OW13399   1.993   3.511   2.343
  582SOL    HW113400   2.061   3.584   2.341
  582SOL    HW213401   2.022   3.440   2.408
  583SOL     OW13402   6.696   2.454   0.485
  583SOL    HW113403   6.708   2.486   0.579
  583SOL    HW213404   6.674   2.357   0.485
  584SOL     OW13405   3.408   0.620   1.927
  584SOL    HW113406   3.390   0.540   1.984
  584SOL    HW213407   3.333   0.685   1.937
  585SOL     OW13408   2.380   8.054   3.402
  585SOL    HW113409   2.303   8.082   3.345
  585SOL    HW213410   2.434   7.985   3.354
  586SOL     OW13411   1.935   9.592   6.411
  586SOL    HW113412   2.021   9.617   6.366
  586SOL    HW213413   1.950   9.515   6.472
  587SOL     OW13414   7.372   5.481   6.746
  587SOL    HW113415   7.401   5.505   6.839
  587SOL    HW213416   7.388   5.558   6.684
  588SOL     OW13417   3.878   3.466   0.347
  588SOL    HW113418   3.853   3.514   0.431
  588SOL    HW213419   3.973   3.487   0.324
  589SOL     OW13420   1.131   2.651   3.255
  589SOL    HW113421   1.040   2.683   3.231
  589SOL    HW213422   1.124   2.571   3.315
  590SOL     OW13423   5.091   2.900   6.157
  590SOL    HW113424   5.143   2.887   6.072
  590SOL    HW213425   5.135   2.850   6.231
  591SOL     OW13426   7.317   9.796   7.082
  591SOL    HW113427   7.399   9.742   7.099
  591SOL    HW213428   7.238   9.735   7.070
  592SOL     OW13429   2.570   2.958   7.092
  592SOL    HW113430   2.559   2.979   6.995
  592SOL    HW213431   2.595   2.862   7.103
  593SOL     OW13432   2.401   1.129   5.019
  593SOL    HW113433   2.428   1.113   5.114
  593SOL    HW213434   2.302   1.123   5.011
  594SOL     OW13435   0.951   7.505   5.575
  594SOL    HW113436   1.037   7.547   5.545
  594SOL    HW213437   0.875   7.568   5.558
  595SOL     OW13438   6.411   9.914   1.781
  595SOL    HW113439   6.387   9.856   1.704
  595SOL    HW213440   6.443   0.003   1.748
  596SOL     OW13441   9.924   6.955   6.783
  596SOL    HW113442   9.929   6.857   6.763
  596SOL    HW213443   9.921   7.006   6.698
  597SOL     OW13444   9.958   3.146   5.924
  597SOL    HW113445   0.017   3.114   5.999
  597SOL    HW213446   9.959   3.078   5.850
  598SOL     OW13447   0.889   3.548   4.709
  598SOL    HW113448   0.941   3.585   4.786
  598SOL    HW213449   0.868   3.452   4.726
  599SOL     OW13450   2.327   5.739   6.317
  599SOL    HW113451   2.394   5.692   6.375
  599SOL    HW213452   2.349   5.721   6.221
  600SOL     OW13453   0.215   5.564   1.392
  600SOL    HW113454   0.303   5.541   1.434
  600SOL    HW213455   0.224   5.558   1.292
  601SOL     OW13456   5.462   7.633   5.968
  601SOL    HW113457   5.448   7.568   5.892
  601SOL    HW213458   5.433   7.724   5.939
  602SOL     OW13459   2.064   4.459   0.839
  602SOL    HW113460   2.055   4.414   0.928
  602SOL    HW213461   1.980   4.447   0.787
  603SOL     OW13462   0.320   1.375   5.491
  603SOL    HW113463   0.317   1.427   5.405
  603SOL    HW213464   0.227   1.353   5.520
  604SOL     OW13465   0.901   1.216   6.221
  604SOL    HW113466   0.903   1.126   6.177
  604SOL    HW213467   0.811   1.231   6.260
  605SOL     OW13468   4.424   4.664   0.713
  605SOL    HW113469   4.380   4.578   0.688
  605SOL    HW213470   4.359   4.723   0.761
  606SOL     OW13471   8.165   6.466   0.617
  606SOL    HW113472   8.149   6.420   0.529
  606SOL    HW213473   8.221   6.547   0.602
  607SOL     OW13474   3.139   0.640   5.439
  607SOL    HW113475   3.120   0.727   5.394
  607SOL    HW213476   3.055   0.604   5.479
  608SOL     OW13477   7.301   6.576   6.911
  608SOL    HW113478   7.321   6.623   6.825
  608SOL    HW213479   7.373   6.596   6.978
  609SOL     OW13480   8.428   8.676   6.726
  609SOL    HW113481   8.448   8.649   6.820
  609SOL    HW213482   8.437   8.596   6.666
  610SOL     OW13483   9.431   8.729   3.570
  610SOL    HW113484   9.338   8.706   3.602
  610SOL    HW213485   9.465   8.808   3.621
  611SOL     OW13486   5.401   3.690   0.092
  611SOL    HW113487   5.488   3.678   0.045
  611SOL    HW213488   5.347   3.606   0.085
  612SOL     OW13489   4.904   7.592   3.035
  612SOL    HW113490   4.982   7.529   3.037
  612SOL    HW213491   4.891   7.632   3.126
  613SOL     OW13492   9.862   6.390   0.436
  613SOL    HW113493   9.823   6.303   0.406
  613SOL    HW213494   9.830   6.463   0.375
  614SOL     OW13495   5.164   6.290   0.959
  614SOL    HW113496   5.093   6.294   1.029
  614SOL    HW213497   5.243   6.239   0.994
  615SOL     OW13498   2.035   2.626   2.801
  615SOL    HW113499   1.956   2.679   2.833
  615SOL    HW213500   2.083   2.586   2.879
  616SOL     OW13501   7.823   6.540   6.339
  616SOL    HW113502   7.861   6.539   6.431
  616SOL    HW213503   7.785   6.450   6.318
  617SOL     OW13504   8.541   6.716   2.992
  617SOL    HW113505   8.454   6.673   3.014
  617SOL    HW213506   8.592   6.736   3.076
  618SOL     OW13507   7.512   8.712   2.203
  618SOL    HW113508   7.563   8.640   2.250
  618SOL    HW213509   7.520   8.797   2.255
  619SOL     OW13510   9.384   7.372   4.210
  619SOL    HW113511   9.420   7.281   4.228
  619SOL    HW213512   9.460   7.435   4.193
  620SOL     OW13513   7.244   5.960   2.130
  620SOL    HW113514   7.322   5.993   2.183
  620SOL    HW213515   7.160   6.000   2.165
  621SOL     OW13516   0.834   2.972   7.353
  621SOL    HW113517   0.911   2.908   7.346
  621SOL    HW213518   0.856   3.056   7.303
  622SOL     OW13519   0.517   6.410   3.872
  622SOL    HW113520   0.582   6.356   3.818
  622SOL    HW213521   0.473   6.351   3.940
  623SOL     OW13522   2.481   0.025   0.195
  623SOL    HW113523   2.393   9.977   0.197
  623SOL    HW213524   2.468   0.116   0.157
  624SOL     OW13525   0.673   7.426   7.893
  624SOL    HW113526   0.605   7.378   7.949
  624SOL    HW213527   0.761   7.378   7.899
  625SOL     OW13528   0.939   8.849   7.118
  625SOL    HW113529   1.014   8.894   7.069
  625SOL    HW213530   0.915   8.902   7.199
  626SOL     OW13531   2.191   9.342   2.848
  626SOL    HW113532   2.261   9.371   2.914
  626SOL    HW213533   2.129   9.276   2.891
  627SOL     OW13534   4.723   3.871   2.413
  627SOL    HW113535   4.796   3.810   2.445
  627SOL    HW213536   4.652   3.817   2.367
  628SOL     OW13537   2.407   0.407   1.236
  628SOL    HW113538   2.363   0.376   1.320
  628SOL    HW213539   2.506   0.405   1.247
  629SOL     OW13540   7.019   4.535   1.037
  629SOL    HW113541   6.920   4.521   1.041
  629SOL    HW213542   7.065   4.447   1.031
  630SOL     OW13543   9.126   3.549   6.806
  630SOL    HW113544   9.167   3.458   6.806
  630SOL    HW213545   9.108   3.578   6.712
  631SOL     OW13546   2.069   4.468   2.822
  631SOL    HW113547   2.071   4.407   2.901
  631SOL    HW213548   2.158   4.513   2.812
  632SOL     OW13549   0.487   5.391   7.276
  632SOL    HW113550   0.422   5.316   7.279
  632SOL    HW213551   0.488   5.432   7.185
  633SOL     OW13552   6.666   9.899   2.563
  633SOL    HW113553   6.679   9.936   2.471
  633SOL    HW213554   6.696   9.803   2.565
  634SOL     OW13555   9.958   2.957   7.006
  634SOL    HW113556   0.035   2.893   6.999
  634SOL    HW213557   9.912   2.963   6.918
  635SOL     OW13558   1.511   7.373   5.161
  635SOL    HW113559   1.507   7.455   5.104
  635SOL    HW213560   1.607   7.354   5.184
  636SOL     OW13561   0.318   1.120   0.423
  636SOL    HW113562   0.289   1.206   0.379
  636SOL    HW213563   0.306   1.128   0.522
  637SOL     OW13564   2.046   7.428   6.877
  637SOL    HW113565   2.029   7.486   6.957
  637SOL    HW213566   1.988   7.347   6.881
  638SOL     OW13567   1.211   7.786   4.127
  638SOL    HW113568   1.265   7.716   4.173
  638SOL    HW213569   1.247   7.801   4.035
  639SOL     OW13570   5.028   8.988   7.214
  639SOL    HW113571   4.959   8.928   7.255
  639SOL    HW213572   5.055   8.952   7.125
  640SOL     OW13573   9.076   9.368   7.547
  640SOL    HW113574   9.060   9.294   7.613
  640SOL    HW213575   8.989   9.404   7.514
  641SOL     OW13576   8.045   4.792   7.779
  641SOL    HW113577   8.129   4.820   7.827
  641SOL    HW213578   8.069   4.735   7.701
  642SOL     OW13579   3.214   8.366   5.374
  642SOL    HW113580   3.191   8.439   5.310
  642SOL    HW213581   3.307   8.379   5.409
  643SOL     OW13582   7.004   2.091   2.643
  643SOL    HW113583   7.047   2.181   2.656
  643SOL    HW213584   6.905   2.102   2.637
  644SOL     OW13585   1.448   0.131   4.790
  644SOL    HW113586   1.437   0.230   4.779
  644SOL    HW213587   1.478   0.111   4.883
  645SOL     OW13588   5.502   0.536   3.522
  645SOL    HW113589   5.467   0.591   3.446
  645SOL    HW213590   5.428   0.480   3.559
  646SOL     OW13591   0.941   0.680   5.993
  646SOL    HW113592   1.024   0.654   5.944
  646SOL    HW213593   0.897   0.599   6.031
  647SOL     OW13594   7.999   9.716   6.189
  647SOL    HW113595   7.927   9.720   6.120
  647SOL    HW213596   8.083   9.755   6.152
  648SOL     OW13597   0.755   0.186   5.729
  648SOL    HW113598   0.829   0.121   5.746
  648SOL    HW213599   0.747   0.203   5.631
  649SOL     OW13600   0.330   3.996   5.780
  649SOL    HW113601   0.281   3.964   5.698
  649SOL    HW213602   0.300   4.089   5.801
  650SOL     OW13603   5.261   6.485   0.793
  650SOL    HW113604   5.341   6.438   0.754
  650SOL    HW213605   5.212   6.422   0.853
  651SOL     OW13606   4.867   9.366   4.901
  651SOL    HW113607   4.893   9.403   4.991
  651SOL    HW213608   4.783   9.409   4.870
  652SOL     OW13609   1.473   2.296   4.700
  652SOL    HW113610   1.533   2.257   4.770
  652SOL    HW213611   1.379   2.299   4.734
  653SOL     OW13612   0.308   0.208   5.364
  653SOL    HW113613   0.247   0.287   5.357
  653SOL    HW213614   0.402   0.240   5.375
  654SOL     OW13615   1.464   4.227   7.368
  654SOL    HW113616   1.372   4.267   7.368
  654SOL    HW213617   1.457   4.128   7.379
  655SOL     OW13618   8.575   9.085   1.659
  655SOL    HW113619   8.640   9.047   1.593
  655SOL    HW213620   8.510   9.144   1.611
  656SOL     OW13621   4.862   8.239   4.088
  656SOL    HW113622   4.895   8.277   4.001
  656SOL    HW213623   4.846   8.141   4.078
  657SOL     OW13624   6.102   8.818   3.673
  657SOL    HW113625   6.089   8.728   3.632
  657SOL    HW213626   6.148   8.808   3.762
  658SOL     OW13627   2.126   1.165   3.514
  658SOL    HW113628   2.081   1.214   3.439
  658SOL    HW213629   2.221   1.147   3.489
  659SOL     OW13630   7.167   1.670   5.909
  659SOL    HW113631   7.161   1.726   5.826
  659SOL    HW213632   7.200   1.578   5.885
  660SOL     OW13633   6.074   1.474   5.830
  660SOL    HW113634   6.110   1.473   5.737
  660SOL    HW213635   6.001   1.406   5.840
  661SOL     OW13636   8.394   7.068   2.714
  661SOL    HW113637   8.297   7.078   2.733
  661SOL    HW213638   8.414   6.973   2.688
  662SOL     OW13639   6.623   3.944   1.845
  662SOL    HW113640   6.609   3.933   1.943
  662SOL    HW213641   6.623   4.042   1.823
  663SOL     OW13642   5.617   7.995   5.853
  663SOL    HW113643   5.695   8.016   5.913
  663SOL    HW213644   5.643   7.923   5.789
  664SOL     OW13645   2.406   3.228   2.799
  664SOL    HW113646   2.505   3.235   2.801
  664SOL    HW213647   2.378   3.134   2.820
  665SOL     OW13648   5.076   2.042   4.613
  665SOL    HW113649   5.041   2.119   4.559
  665SOL    HW213650   5.000   1.998   4.661
  666SOL     OW13651   3.032   4.356   6.205
  666SOL    HW113652   3.057   4.260   6.194
  666SOL    HW213653   3.089   4.397   6.277
  667SOL     OW13654   9.612   4.812   6.797
  667SOL    HW113655   9.671   4.733   6.778
  667SOL    HW213656   9.533   4.782   6.850
  668SOL     OW13657   9.766   6.038   0.608
  668SOL    HW113658   9.676   6.080   0.621
  668SOL    HW213659   9.764   5.945   0.644
  669SOL     OW13660   2.507   2.476   5.806
  669SOL    HW113661   2.606   2.463   5.798
  669SOL    HW213662   2.462   2.387   5.809
  670SOL     OW13663   7.999   0.760   4.973
  670SOL    HW113664   7.929   0.697   5.007
  670SOL    HW213665   8.036   0.726   4.887
  671SOL     OW13666   3.993   3.525   7.734
  671SOL    HW113667   3.982   3.607   7.790
  671SOL    HW213668   3.909   3.472   7.735
  672SOL     OW13669   2.158   6.143   4.890
  672SOL    HW113670   2.203   6.115   4.975
  672SOL    HW213671   2.187   6.235   4.866
  673SOL     OW13672   1.870   5.706   1.634
  673SOL    HW113673   1.878   5.686   1.537
  673SOL    HW213674   1.833   5.626   1.681
  674SOL     OW13675   8.871   5.691   2.747
  674SOL    HW113676   8.916   5.624   2.689
  674SOL    HW213677   8.795   5.734   2.698
  675SOL     OW13678   4.795   7.305   4.021
  675SOL    HW113679   4.788   7.389   3.966
  675SOL    HW213680   4.891   7.280   4.031
  676SOL     OW13681   0.736   0.828   1.845
  676SOL    HW113682   0.674   0.865   1.775
  676SOL    HW213683   0.686   0.762   1.901
  677SOL     OW13684   8.946   6.765   2.885
  677SOL    HW113685   8.939   6.787   2.982
  677SOL    HW213686   8.987   6.674   2.874
  678SOL     OW13687   9.634   6.583   1.638
  678SOL    HW113688   9.658   6.498   1.685
  678SOL    HW213689   9.559   6.628   1.687
  679SOL     OW13690   7.524   6.872   7.228
  679SOL    HW113691   7.444   6.932   7.232
  679SOL    HW213692   7.556   6.853   7.321
  680SOL     OW13693   8.262   6.166   2.429
  680SOL    HW113694   8.171   6.178   2.388
  680SOL    HW213695   8.266   6.219   2.514
  681SOL     OW13696   5.871   2.327   4.672
  681SOL    HW113697   5.875   2.310   4.574
  681SOL    HW213698   5.951   2.288   4.716
  682SOL     OW13699   5.565   1.698   6.074
  682SOL    HW113700   5.542   1.778   6.017
  682SOL    HW213701   5.585   1.729   6.167
  683SOL     OW13702   4.490   3.909   6.086
  683SOL    HW113703   4.567   3.952   6.040
  683SOL    HW213704   4.523   3.840   6.150
  684SOL     OW13705   3.267   2.326   3.615
  684SOL    HW113706   3.202   2.250   3.606
  684SOL    HW213707   3.233   2.390   3.684
  685SOL     OW13708   2.216   4.686   5.881
  685SOL    HW113709   2.293   4.732   5.837
  685SOL    HW213710   2.189   4.607   5.826
  686SOL     OW13711   2.985   9.696   2.111
  686SOL    HW113712   2.947   9.735   2.027
  686SOL    HW213713   2.986   9.597   2.104
  687SOL     OW13714   0.291   1.653   6.959
  687SOL    HW113715   0.280   1.746   6.924
  687SOL    HW213716   0.211   1.598   6.933
  688SOL     OW13717   9.747   9.351   3.525
  688SOL    HW113718   9.740   9.442   3.567
  688SOL    HW213719   9.799   9.291   3.585
  689SOL     OW13720   5.244   7.749   2.874
  689SOL    HW113721   5.281   7.672   2.925
  689SOL    HW213722   5.219   7.823   2.936
  690SOL     OW13723   7.988   1.901   6.994
  690SOL    HW113724   8.075   1.942   7.023
  690SOL    HW213725   7.996   1.801   6.999
  691SOL     OW13726   2.769   5.327   2.668
  691SOL    HW113727   2.829   5.398   2.706
  691SOL    HW213728   2.682   5.327   2.716
  692SOL     OW13729   2.938   9.522   4.473
  692SOL    HW113730   3.025   9.526   4.423
  692SOL    HW213731   2.941   9.448   4.540
  693SOL     OW13732   1.301   7.686   7.115
  693SOL    HW113733   1.289   7.671   7.213
  693SOL    HW213734   1.353   7.770   7.100
  694SOL     OW13735   4.300   2.274   6.356
  694SOL    HW113736   4.276   2.234   6.267
  694SOL    HW213737   4.226   2.257   6.421
  695SOL     OW13738   3.884   8.306   6.339
  695SOL    HW113739   3.811   8.372   6.324
  695SOL    HW213740   3.848   8.228   6.390
  696SOL     OW13741   0.829   0.704   2.807
  696SOL    HW113742   0.884   0.641   2.753
  696SOL    HW213743   0.854   0.798   2.785
  697SOL     OW13744   9.722   4.038   1.254
  697SOL    HW113745   9.727   4.130   1.293
  697SOL    HW213746   9.649   3.986   1.299
  698SOL     OW13747   8.849   8.576   3.919
  698SOL    HW113748   8.835   8.624   3.833
  698SOL    HW213749   8.890   8.638   3.986
  699SOL     OW13750   1.347   3.398   5.251
  699SOL    HW113751   1.367   3.486   5.292
  699SOL    HW213752   1.427   3.338   5.257
  700SOL     OW13753   8.017   8.927   1.925
  700SOL    HW113754   7.917   8.926   1.919
  700SOL    HW213755   8.054   8.981   1.850
  701SOL     OW13756   4.590   0.734   4.599
  701SOL    HW113757   4.643   0.654   4.573
  701SOL    HW213758   4.492   0.714   4.591
  702SOL     OW13759   9.716   4.558   6.760
  702SOL    HW113760   9.715   4.508   6.847
  702SOL    HW213761   9.647   4.519   6.699
  703SOL     OW13762   9.577   6.929   1.588
  703SOL    HW113763   9.627   6.969   1.664
  703SOL    HW213764   9.638   6.871   1.534
  704SOL     OW13765   0.593   2.150   3.288
  704SOL    HW113766   0.522   2.179   3.352
  704SOL    HW213767   0.593   2.051   3.282
  705SOL     OW13768   1.654   8.004   4.630
  705SOL    HW113769   1.670   7.919   4.681
  705SOL    HW213770   1.680   7.991   4.534
  706SOL     OW13771   3.922   9.831   6.596
  706SOL    HW113772   3.877   9.878   6.520
  706SOL    HW213773   3.950   9.899   6.664
  707SOL     OW13774   4.855   4.467   5.092
  707SOL    HW113775   4.803   4.543   5.051
  707SOL    HW213776   4.874   4.398   5.022
  708SOL     OW13777   0.853   1.944   6.273
  708SOL    HW113778   0.911   1.897   6.340
  708SOL    HW213779   0.769   1.974   6.318
  709SOL     OW13780   3.699   6.334   0.350
  709SOL    HW113781   3.726   6.293   0.437
  709SOL    HW213782   3.602   6.358   0.353
  710SOL     OW13783   0.689   2.619   7.536
  710SOL    HW113784   0.689   2.641   7.439
  710SOL    HW213785   0.687   2.704   7.589
  711SOL     OW13786   4.457   8.110   1.883
  711SOL    HW113787   4.477   8.207   1.899
  711SOL    HW213788   4.358   8.098   1.878
  712SOL     OW13789   8.160   6.865   3.015
  712SOL    HW113790   8.064   6.844   2.999
  712SOL    HW213791   8.194   6.925   2.943
  713SOL     OW13792   8.446   5.122   0.529
  713SOL    HW113793   8.484   5.214   0.512
  713SOL    HW213794   8.497   5.055   0.474
  714SOL     OW13795   8.026   2.519   3.526
  714SOL    HW113796   8.009   2.445   3.591
  714SOL    HW213797   8.025   2.482   3.433
  715SOL     OW13798   3.405   4.302   2.914
  715SOL    HW113799   3.353   4.334   2.834
  715SOL    HW213800   3.501   4.328   2.904
  716SOL     OW13801   0.836   7.629   3.596
  716SOL    HW113802   0.818   7.672   3.685
  716SOL    HW213803   0.935   7.619   3.583
  717SOL     OW13804   8.653   1.013   5.943
  717SOL    HW113805   8.584   1.058   5.888
  717SOL    HW213806   8.714   0.960   5.884
  718SOL     OW13807   8.167   2.046   2.375
  718SOL    HW113808   8.205   2.078   2.288
  718SOL    HW213809   8.094   1.980   2.357
  719SOL     OW13810   3.847   4.839   3.698
  719SOL    HW113811   3.906   4.795   3.630
  719SOL    HW213812   3.776   4.892   3.651
  720SOL     OW13813   3.754   6.386   0.785
  720SOL    HW113814   3.664   6.374   0.826
  720SOL    HW213815   3.815   6.430   0.850
  721SOL     OW13816   8.746   9.650   6.493
  721SOL    HW113817   8.787   9.599   6.569
  721SOL    HW213818   8.658   9.687   6.521
  722SOL     OW13819   3.183   6.539   3.040
  722SOL    HW113820   3.090   6.571   3.022
  722SOL    HW213821   3.206   6.466   2.975
  723SOL     OW13822   8.131   8.096   5.375
  723SOL    HW113823   8.228   8.105   5.355
  723SOL    HW213824   8.087   8.186   5.368
  724SOL     OW13825   7.472   1.300   0.786
  724SOL    HW113826   7.571   1.306   0.775
  724SOL    HW213827   7.449   1.217   0.837
  725SOL     OW13828   5.352   3.843   2.031
  725SOL    HW113829   5.322   3.920   2.087
  725SOL    HW213830   5.303   3.761   2.058
  726SOL     OW13831   1.892   0.262   5.563
  726SOL    HW113832   1.981   0.273   5.518
  726SOL    HW213833   1.863   0.350   5.602
  727SOL     OW13834   3.388   8.249   0.114
  727SOL    HW113835   3.472   8.228   0.165
  727SOL    HW213836   3.311   8.199   0.155
  728SOL     OW13837   1.032   6.735   1.259
  728SOL    HW113838   1.125   6.731   1.221
  728SOL    HW213839   0.966   6.710   1.188
  729SOL     OW13840   4.691   7.511   2.856
  729SOL    HW113841   4.761   7.557   2.912
  729SOL    HW213842   4.606   7.563   2.860
  730SOL     OW13843   3.680   0.685   1.398
  730SOL    HW113844   3.709   0.608   1.341
  730SOL    HW213845   3.736   0.688   1.480
  731SOL     OW13846   2.457   0.496   5.906
  731SOL    HW113847   2.414   0.503   5.996
  731SOL    HW213848   2.518   0.575   5.893
  732SOL     OW13849   0.659   9.708   2.444
  732SOL    HW113850   0.647   9.610   2.464
  732SOL    HW213851   0.652   9.761   2.528
  733SOL     OW13852   1.861   5.581   6.006
  733SOL    HW113853   1.799   5.503   6.017
  733SOL    HW213854   1.817   5.662   6.046
  734SOL     OW13855   2.902   5.845   1.996
  734SOL    HW113856   2.950   5.888   2.072
  734SOL    HW213857   2.819   5.801   2.030
  735SOL     OW13858   8.234   8.474   0.234
  735SOL    HW113859   8.199   8.567   0.225
  735SOL    HW213860   8.204   8.435   0.321
  736SOL     OW13861   8.471   0.518   0.788
  736SOL    HW113862   8.557   0.472   0.768
  736SOL    HW213863   8.487   0.592   0.853
  737SOL     OW13864   0.127   3.763   4.697
  737SOL    HW113865   0.166   3.782   4.607
  737SOL    HW213866   0.073   3.678   4.692
  738SOL     OW13867   2.465   7.852   1.202
  738SOL    HW113868   2.378   7.808   1.181
  738SOL    HW213869   2.450   7.926   1.268
  739SOL     OW13870   7.766   5.508   6.818
  739SOL    HW113871   7.742   5.591   6.769
  739SOL    HW213872   7.761   5.525   6.917
  740SOL     OW13873   7.705   0.363   6.913
  740SOL    HW113874   7.708   0.389   7.010
  740SOL    HW213875   7.713   0.264   6.905
  741SOL     OW13876   1.310   7.646   6.476
  741SOL    HW113877   1.256   7.632   6.559
  741SOL    HW213878   1.371   7.724   6.488
  742SOL     OW13879   7.048   0.799   4.308
  742SOL    HW113880   7.049   0.821   4.211
  742SOL    HW213881   7.079   0.704   4.321
  743SOL     OW13882   2.522   6.320   1.034
  743SOL    HW113883   2.498   6.232   1.076
  743SOL    HW213884   2.565   6.378   1.103
  744SOL     OW13885   0.607   4.653   4.846
  744SOL    HW113886   0.600   4.731   4.784
  744SOL    HW213887   0.560   4.574   4.806
  745SOL     OW13888   8.339   3.604   1.789
  745SOL    HW113889   8.249   3.619   1.829
  745SOL    HW213890   8.395   3.687   1.798
  746SOL     OW13891   9.766   8.981   2.790
  746SOL    HW113892   9.828   9.050   2.827
  746SOL    HW213893   9.672   9.005   2.813
  747SOL     OW13894   6.604   2.381   1.540
  747SOL    HW113895   6.562   2.433   1.614
  747SOL    HW213896   6.651   2.444   1.477
  748SOL     OW13897   4.462   0.455   7.813
  748SOL    HW113898   4.484   0.457   7.910
  748SOL    HW213899   4.424   0.366   7.789
  749SOL     OW13900   9.572   0.818   0.093
  749SOL    HW113901   9.632   0.897   0.082
  749SOL    HW213902   9.563   0.797   0.191
  750SOL     OW13903   9.823   6.726   7.211
  750SOL    HW113904   9.753   6.793   7.232
  750SOL    HW213905   9.792   6.635   7.238
  751SOL     OW13906   0.858   6.355   0.117
  751SOL    HW113907   0.900   6.399   0.038
  751SOL    HW213908   0.814   6.423   0.175
  752SOL     OW13909   5.894   0.031   3.821
  752SOL    HW113910   5.980   0.017   3.870
  752SOL    HW213911   5.818   0.001   3.878
  753SOL     OW13912   3.876   7.968   6.783
  753SOL    HW113913   3.875   7.986   6.882
  753SOL    HW213914   3.782   7.968   6.749
  754SOL     OW13915   8.329   9.574   0.709
  754SOL    HW113916   8.268   9.609   0.779
  754SOL    HW213917   8.276   9.545   0.630
  755SOL     OW13918   8.019   1.988   4.500
  755SOL    HW113919   8.023   1.895   4.535
  755SOL    HW213920   7.933   2.031   4.528
  756SOL     OW13921   3.838   7.849   3.937
  756SOL    HW113922   3.791   7.878   3.854
  756SOL    HW213923   3.915   7.790   3.913
  757SOL     OW13924   0.515   9.698   3.383
  757SOL    HW113925   0.445   9.716   3.452
  757SOL    HW213926   0.492   9.746   3.298
  758SOL     OW13927   4.808   2.143   1.153
  758SOL    HW113928   4.717   2.152   1.193
  758SOL    HW213929   4.859   2.228   1.166
  759SOL     OW13930   7.767   8.272   5.432
  759SOL    HW113931   7.785   8.232   5.522
  759SOL    HW213932   7.691   8.337   5.439
  760SOL     OW13933   3.067   2.850   4.205
  760SOL    HW113934   3.083   2.766   4.256
  760SOL    HW213935   3.125   2.923   4.242
  761SOL     OW13936   3.816   8.376   0.969
  761SOL    HW113937   3.899   8.343   0.925
  761SOL    HW213938   3.839   8.427   1.052
  762SOL     OW13939   7.310   8.262   3.776
  762SOL    HW113940   7.322   8.163   3.763
  762SOL    HW213941   7.258   8.299   3.699
  763SOL     OW13942   2.932   0.539   7.527
  763SOL    HW113943   2.980   0.626   7.529
  763SOL    HW213944   2.953   0.491   7.442
  764SOL     OW13945   0.078   9.747   5.341
  764SOL    HW113946   0.126   9.830   5.371
  764SOL    HW213947   0.052   9.693   5.421
  765SOL     OW13948   9.928   1.785   2.027
  765SOL    HW113949   9.878   1.704   2.056
  765SOL    HW213950   9.956   1.837   2.108
  766SOL     OW13951   6.996   0.679   6.080
  766SOL    HW113952   7.084   0.709   6.116
  766SOL    HW213953   6.969   0.739   6.004
  767SOL     OW13954   3.846   4.893   0.538
  767SOL    HW113955   3.847   4.800   0.503
  767SOL    HW213956   3.865   4.957   0.464
  768SOL     OW13957   2.054   1.123   3.934
  768SOL    HW113958   1.965   1.076   3.931
  768SOL    HW213959   2.118   1.070   3.990
  769SOL     OW13960   2.564   7.341   4.517
  769SOL    HW113961   2.652   7.388   4.506
  769SOL    HW213962   2.541   7.295   4.431
  770SOL     OW13963   2.409   4.903   5.488
  770SOL    HW113964   2.503   4.924   5.462
  770SOL    HW213965   2.369   4.982   5.535
  771SOL     OW13966   3.603   7.658   1.487
  771SOL    HW113967   3.685   7.689   1.438
  771SOL    HW213968   3.553   7.594   1.430
  772SOL     OW13969   6.758   0.625   2.750
  772SOL    HW113970   6.727   0.708   2.704
  772SOL    HW213971   6.782   0.556   2.681
  773SOL     OW13972   1.072   0.563   0.057
  773SOL    HW113973   1.043   0.619  10.061
  773SOL    HW213974   1.169   0.579   0.074
  774SOL     OW13975   9.274   6.294   7.540
  774SOL    HW113976   9.192   6.327   7.588
  774SOL    HW213977   9.309   6.213   7.586
  775SOL     OW13978   0.798   7.129   2.477
  775SOL    HW113979   0.715   7.073   2.485
  775SOL    HW213980   0.794   7.183   2.393
  776SOL     OW13981   6.693   2.282   2.119
  776SOL    HW113982   6.636   2.209   2.083
  776SOL    HW213983   6.761   2.243   2.182
  777SOL     OW13984   9.085   8.186   5.474
  777SOL    HW113985   9.148   8.124   5.428
  777SOL    HW213986   9.062   8.149   5.564
  778SOL     OW13987   7.654   7.326   7.252
  778SOL    HW113988   7.697   7.236   7.255
  778SOL    HW213989   7.627   7.354   7.344
  779SOL     OW13990   1.292   9.605   0.680
  779SOL    HW113991   1.232   9.594   0.600
  779SOL    HW213992   1.330   9.516   0.705
  780SOL     OW13993   0.597   9.507   2.915
  780SOL    HW113994   0.594   9.422   2.967
  780SOL    HW213995   0.687   9.516   2.872
  781SOL     OW13996   6.187   1.505   0.034
  781SOL    HW113997   6.193   1.429  10.050
  781SOL    HW213998   6.099   1.501   0.081
  782SOL     OW13999   3.612   2.578   7.755
  782SOL    HW114000   3.525   2.529   7.750
  782SOL    HW214001   3.627   2.628   7.669
  783SOL     OW14002   2.093   3.526   3.676
  783SOL    HW114003   2.057   3.606   3.722
  783SOL    HW214004   2.104   3.545   3.578
  784SOL     OW14005   7.758   9.771   2.963
  784SOL    HW114006   7.817   9.747   2.886
  784SOL    HW214007   7.678   9.711   2.962
  785SOL     OW14008   6.774   1.078   1.815
  785SOL    HW114009   6.873   1.090   1.809
  785SOL    HW214010   6.740   1.123   1.897
  786SOL     OW14011   3.648   0.057   0.135
  786SOL    HW114012   3.720   0.100   0.081
  786SOL    HW214013   3.666   0.071   0.232
  787SOL     OW14014   3.761   7.265   0.434
  787SOL    HW114015   3.671   7.247   0.474
  787SOL    HW214016   3.825   7.194   0.460
  788SOL     OW14017   5.956   7.808   6.099
  788SOL    HW114018   5.891   7.801   6.175
  788SOL    HW214019   6.042   7.762   6.125
  789SOL     OW14020   5.005   4.037   2.226
  789SOL    HW114021   4.962   3.998   2.145
  789SOL    HW214022   4.934   4.071   2.288
  790SOL     OW14023   3.633   0.116   1.679
  790SOL    HW114024   3.624   0.026   1.636
  790SOL    HW214025   3.631   0.187   1.609
  791SOL     OW14026   3.319   8.681   7.693
  791SOL    HW114027   3.306   8.601   7.636
  791SOL    HW214028   3.247   8.747   7.675
  792SOL     OW14029   0.669   8.930   4.511
  792SOL    HW114030   0.571   8.949   4.517
  792SOL    HW214031   0.684   8.854   4.449
  793SOL     OW14032   6.504   5.134   1.995
  793SOL    HW114033   6.441   5.100   2.064
  793SOL    HW214034   6.597   5.136   2.032
  794SOL     OW14035   4.317   7.352   4.772
  794SOL    HW114036   4.324   7.450   4.752
  794SOL    HW214037   4.225   7.331   4.804
  795SOL     OW14038   0.815   2.789   0.434
  795SOL    HW114039   0.854   2.727   0.367
  795SOL    HW214040   0.738   2.838   0.394
  796SOL     OW14041   2.049   8.992   2.388
  796SOL    HW114042   2.010   9.023   2.301
  796SOL    HW214043   2.134   9.041   2.405
  797SOL     OW14044   5.661   1.101   6.344
  797SOL    HW114045   5.603   1.020   6.350
  797SOL    HW214046   5.623   1.174   6.401
  798SOL     OW14047   4.430   9.001   0.655
  798SOL    HW114048   4.517   8.994   0.606
  798SOL    HW214049   4.434   8.945   0.738
  799SOL     OW14050   8.544   6.915   2.021
  799SOL    HW114051   8.570   7.007   1.990
  799SOL    HW214052   8.597   6.891   2.102
  800SOL     OW14053   5.192   7.698   2.613
  800SOL    HW114054   5.098   7.727   2.590
  800SOL    HW214055   5.213   7.725   2.707
  801SOL     OW14056   8.240   7.537   0.660
  801SOL    HW114057   8.301   7.469   0.700
  801SOL    HW214058   8.234   7.521   0.561
  802SOL     OW14059   1.550   0.061   5.047
  802SOL    HW114060   1.642   0.048   5.012
  802SOL    HW214061   1.519   9.976   5.090
  803SOL     OW14062   2.549   4.792   1.686
  803SOL    HW114063   2.648   4.794   1.696
  803SOL    HW214064   2.508   4.867   1.740
  804SOL     OW14065   4.711   1.181   0.163
  804SOL    HW114066   4.685   1.248   0.093
  804SOL    HW214067   4.779   1.221   0.225
  805SOL     OW14068   3.123   0.063   4.388
  805SOL    HW114069   3.134   0.150   4.435
  805SOL    HW214070   3.165   0.068   4.297
  806SOL     OW14071   8.907   2.236   2.115
  806SOL    HW114072   8.951   2.174   2.050
  806SOL    HW214073   8.973   2.304   2.147
  807SOL     OW14074   9.901   8.744   7.061
  807SOL    HW114075   9.888   8.666   6.999
  807SOL    HW214076   9.997   8.774   7.056
  808SOL     OW14077   5.863   3.774   2.415
  808SOL    HW114078   5.871   3.849   2.350
  808SOL    HW214079   5.797   3.707   2.380
  809SOL     OW14080   7.469   3.570   0.585
  809SOL    HW114081   7.383   3.617   0.567
  809SOL    HW214082   7.452   3.494   0.647
  810SOL     OW14083   4.922   4.133   7.092
  810SOL    HW114084   4.933   4.144   6.993
  810SOL    HW214085   4.845   4.188   7.124
  811SOL     OW14086   7.089   1.147   4.884
  811SOL    HW114087   7.184   1.119   4.895
  811SOL    HW214088   7.029   1.070   4.907
  812SOL     OW14089   1.680   8.513   5.969
  812SOL    HW114090   1.633   8.589   5.924
  812SOL    HW214091   1.653   8.509   6.065
  813SOL     OW14092   2.423   4.833   5.762
  813SOL    HW114093   2.420   4.829   5.663
  813SOL    HW214094   2.427   4.928   5.792
  814SOL     OW14095   1.711   4.259   2.154
  814SOL    HW114096   1.721   4.337   2.093
  814SOL    HW214097   1.663   4.288   2.237
  815SOL     OW14098   8.466   4.307   2.426
  815SOL    HW114099   8.564   4.322   2.443
  815SOL    HW214100   8.421   4.395   2.413
  816SOL     OW14101   1.444   4.536   1.085
  816SOL    HW114102   1.374   4.559   1.017
  816SOL    HW214103   1.531   4.577   1.058
  817SOL     OW14104   9.422   4.891   2.940
  817SOL    HW114105   9.460   4.809   2.897
  817SOL    HW214106   9.431   4.884   3.039
  818SOL     OW14107   8.607   4.326   7.618
  818SOL    HW114108   8.603   4.239   7.668
  818SOL    HW214109   8.702   4.353   7.604
  819SOL     OW14110   3.623   2.359   3.158
  819SOL    HW114111   3.660   2.390   3.070
  819SOL    HW214112   3.693   2.307   3.207
  820SOL     OW14113   8.811   1.228   0.429
  820SOL    HW114114   8.782   1.254   0.521
  820SOL    HW214115   8.857   1.306   0.385
  821SOL     OW14116   3.423   3.595   5.338
  821SOL    HW114117   3.522   3.607   5.331
  821SOL    HW214118   3.381   3.679   5.372
  822SOL     OW14119   7.384   2.328   3.884
  822SOL    HW114120   7.298   2.294   3.923
  822SOL    HW214121   7.455   2.258   3.895
  823SOL     OW14122   4.857   2.792   0.449
  823SOL    HW114123   4.806   2.870   0.414
  823SOL    HW214124   4.805   2.749   0.523
  824SOL     OW14125   9.829   6.691   1.967
  824SOL    HW114126   9.740   6.645   1.960
  824SOL    HW214127   9.865   6.707   1.875
  825SOL     OW14128   2.671   5.476   3.511
  825SOL    HW114129   2.770   5.482   3.498
  825SOL    HW214130   2.645   5.380   3.522
  826SOL     OW14131   9.688   0.416   1.963
  826SOL    HW114132   9.713   0.437   2.058
  826SOL    HW214133   9.596   0.450   1.945
  827SOL     OW14134   9.775   6.814   0.803
  827SOL    HW114135   9.700   6.861   0.849
  827SOL    HW214136   9.752   6.800   0.707
  828SOL     OW14137   6.899   6.645   1.715
  828SOL    HW114138   6.863   6.579   1.650
  828SOL    HW214139   6.961   6.599   1.779
  829SOL     OW14140   3.800   5.600   7.885
  829SOL    HW114141   3.758   5.551   7.808
  829SOL    HW214142   3.749   5.684   7.902
  830SOL     OW14143   3.998   1.652   6.048
  830SOL    HW114144   3.912   1.672   6.000
  830SOL    HW214145   3.985   1.574   6.109
  831SOL     OW14146   0.156   3.860   7.592
  831SOL    HW114147   0.224   3.918   7.548
  831SOL    HW214148   0.173   3.856   7.690
  832SOL     OW14149   7.890   0.018   4.089
  832SOL    HW114150   7.830   0.059   4.157
  832SOL    HW214151   7.907   0.083   4.016
  833SOL     OW14152   6.897   5.531   6.818
  833SOL    HW114153   6.929   5.520   6.912
  833SOL    HW214154   6.975   5.541   6.757
  834SOL     OW14155   4.618   3.988   0.642
  834SOL    HW114156   4.671   4.054   0.589
  834SOL    HW214157   4.634   4.003   0.740
  835SOL     OW14158   8.918   3.302   3.952
  835SOL    HW114159   8.845   3.238   3.976
  835SOL    HW214160   8.932   3.301   3.853
  836SOL     OW14161   4.561   4.109   7.256
  836SOL    HW114162   4.553   4.093   7.354
  836SOL    HW214163   4.611   4.033   7.214
  837SOL     OW14164   1.070   0.524   0.478
  837SOL    HW114165   1.066   0.554   0.573
  837SOL    HW214166   1.160   0.547   0.440
  838SOL     OW14167   5.597   5.236   0.586
  838SOL    HW114168   5.603   5.277   0.495
  838SOL    HW214169   5.565   5.142   0.578
  839SOL     OW14170   0.958   0.996   1.238
  839SOL    HW114171   0.975   1.094   1.233
  839SOL    HW214172   1.037   0.950   1.280
  840SOL     OW14173   0.305   0.644   2.358
  840SOL    HW114174   0.223   0.694   2.330
  840SOL    HW214175   0.364   0.703   2.413
  841SOL     OW14176   8.439   7.565   1.793
  841SOL    HW114177   8.379   7.630   1.746
  841SOL    HW214178   8.410   7.472   1.773
  842SOL     OW14179   3.249   0.327   7.369
  842SOL    HW114180   3.262   0.425   7.386
  842SOL    HW214181   3.313   0.297   7.299
  843SOL     OW14182   3.119   9.703   5.926
  843SOL    HW114183   3.109   9.800   5.904
  843SOL    HW214184   3.155   9.654   5.847
  844SOL     OW14185   6.828   7.314   5.210
  844SOL    HW114186   6.885   7.366   5.146
  844SOL    HW214187   6.744   7.285   5.163
  845SOL     OW14188   2.980   8.640   0.966
  845SOL    HW114189   2.960   8.718   0.907
  845SOL    HW214190   3.001   8.672   1.058
  846SOL     OW14191   8.194   2.383   2.185
  846SOL    HW114192   8.212   2.453   2.117
  846SOL    HW214193   8.213   2.293   2.147
  847SOL     OW14194   5.713   1.030   6.912
  847SOL    HW114195   5.803   0.991   6.933
  847SOL    HW214196   5.724   1.126   6.888
  848SOL     OW14197   3.221   1.881   4.856
  848SOL    HW114198   3.130   1.841   4.849
  848SOL    HW214199   3.287   1.823   4.808
  849SOL     OW14200   2.707   1.905   2.605
  849SOL    HW114201   2.698   1.957   2.520
  849SOL    HW214202   2.620   1.908   2.654
  850SOL     OW14203   2.015   5.083   7.534
  850SOL    HW114204   2.063   5.024   7.469
  850SOL    HW214205   2.053   5.175   7.530
  851SOL     OW14206   9.176   3.182   6.224
  851SOL    HW114207   9.087   3.217   6.197
  851SOL    HW214208   9.230   3.159   6.143
  852SOL     OW14209   1.704   2.298   3.518
  852SOL    HW114210   1.749   2.378   3.479
  852SOL    HW214211   1.684   2.315   3.615
  853SOL     OW14212   9.624   6.937   5.700
  853SOL    HW114213   9.580   6.968   5.617
  853SOL    HW214214   9.563   6.874   5.749
  854SOL     OW14215   6.740   0.033   3.794
  854SOL    HW114216   6.676   0.110   3.791
  854SOL    HW214217   6.826   0.061   3.750
  855SOL     OW14218   8.499   9.214   0.436
  855SOL    HW114219   8.574   9.171   0.487
  855SOL    HW214220   8.419   9.223   0.496
  856SOL     OW14221   7.114   2.122   4.297
  856SOL    HW114222   7.068   2.058   4.358
  856SOL    HW214223   7.049   2.155   4.228
  857SOL     OW14224   6.826   1.829   1.796
  857SOL    HW114225   6.890   1.835   1.872
  857SOL    HW214226   6.747   1.774   1.823
  858SOL     OW14227   2.526   0.419   6.301
  858SOL    HW114228   2.514   0.389   6.396
  858SOL    HW214229   2.550   0.340   6.245
  859SOL     OW14230   3.660   5.449   5.881
  859SOL    HW114231   3.726   5.376   5.868
  859SOL    HW214232   3.568   5.416   5.861
  860SOL     OW14233   8.106   1.207   4.221
  860SOL    HW114234   8.095   1.108   4.227
  860SOL    HW214235   8.146   1.231   4.132
  861SOL     OW14236   7.359   9.926   6.620
  861SOL    HW114237   7.445   9.901   6.665
  861SOL    HW214238   7.367   9.910   6.522
  862SOL     OW14239   5.278   8.464   6.919
  862SOL    HW114240   5.374   8.436   6.922
  862SOL    HW214241   5.272   8.563   6.936
  863SOL     OW14242   3.458   4.669   2.704
  863SOL    HW114243   3.540   4.700   2.656
  863SOL    HW214244   3.454   4.714   2.794
  864SOL     OW14245   1.870   1.281   5.947
  864SOL    HW114246   1.834   1.199   5.992
  864SOL    HW214247   1.798   1.350   5.943
  865SOL     OW14248   9.511   1.255   2.560
  865SOL    HW114249   9.420   1.268   2.520
  865SOL    HW214250   9.564   1.339   2.550
  866SOL     OW14251   0.699   3.766   0.521
  866SOL    HW114252   0.733   3.681   0.562
  866SOL    HW214253   0.604   3.754   0.493
  867SOL     OW14254   1.425   5.730   5.630
  867SOL    HW114255   1.407   5.785   5.548
  867SOL    HW214256   1.369   5.647   5.628
  868SOL     OW14257   9.230   4.755   6.035
  868SOL    HW114258   9.141   4.721   6.005
  868SOL    HW214259   9.264   4.821   5.968
  869SOL     OW14260   3.156   2.309   4.829
  869SOL    HW114261   3.230   2.370   4.799
  869SOL    HW214262   3.087   2.363   4.878
  870SOL     OW14263   3.292   0.164   2.354
  870SOL    HW114264   3.339   0.251   2.344
  870SOL    HW214265   3.200   0.171   2.317
  871SOL     OW14266   3.246   4.777   0.954
  871SOL    HW114267   3.195   4.763   1.039
  871SOL    HW214268   3.222   4.705   0.889
  872SOL     OW14269   0.771   3.999   2.077
  872SOL    HW114270   0.828   4.044   2.008
  872SOL    HW214271   0.731   3.916   2.037
  873SOL     OW14272   0.601   8.112   0.236
  873SOL    HW114273   0.590   8.212   0.240
  873SOL    HW214274   0.521   8.068   0.276
  874SOL     OW14275   0.838   7.656   1.547
  874SOL    HW114276   0.787   7.657   1.461
  874SOL    HW214277   0.816   7.574   1.599
  875SOL     OW14278   0.817   8.924   2.698
  875SOL    HW114279   0.858   8.949   2.611
  875SOL    HW214280   0.720   8.949   2.697
  876SOL     OW14281   1.671   2.223   0.907
  876SOL    HW114282   1.760   2.202   0.868
  876SOL    HW214283   1.601   2.167   0.862
  877SOL     OW14284   3.214   1.185   4.297
  877SOL    HW114285   3.169   1.267   4.332
  877SOL    HW214286   3.146   1.121   4.262
  878SOL     OW14287   2.248   9.965   5.460
  878SOL    HW114288   2.153   9.962   5.432
  878SOL    HW214289   2.255   9.938   5.556
  879SOL     OW14290   5.666   7.799   5.670
  879SOL    HW114291   5.723   7.827   5.593
  879SOL    HW214292   5.704   7.717   5.712
  880SOL     OW14293   6.926   0.589   1.334
  880SOL    HW114294   6.880   0.557   1.251
  880SOL    HW214295   6.881   0.671   1.368
  881SOL     OW14296   9.596   2.921   1.983
  881SOL    HW114297   9.621   2.824   1.982
  881SOL    HW214298   9.581   2.950   2.078
  882SOL     OW14299   9.258   9.148   2.492
  882SOL    HW114300   9.195   9.212   2.535
  882SOL    HW214301   9.207   9.071   2.454
  883SOL     OW14302   1.412   7.034   4.998
  883SOL    HW114303   1.376   7.127   4.988
  883SOL    HW214304   1.348   6.980   5.052
  884SOL     OW14305   9.076   9.377   3.962
  884SOL    HW114306   9.085   9.468   4.004
  884SOL    HW214307   9.161   9.353   3.917
  885SOL     OW14308   1.132   9.131   2.354
  885SOL    HW114309   1.086   9.209   2.311
  885SOL    HW214310   1.220   9.161   2.391
  886SOL     OW14311   5.654   1.585   1.339
  886SOL    HW114312   5.671   1.563   1.435
  886SOL    HW214313   5.558   1.569   1.318
  887SOL     OW14314   4.397   9.910   3.828
  887SOL    HW114315   4.376   0.007   3.822
  887SOL    HW214316   4.404   9.871   3.736
  888SOL     OW14317   1.199   9.822   6.372
  888SOL    HW114318   1.274   9.757   6.385
  888SOL    HW214319   1.210   9.868   6.284
  889SOL     OW14320   7.859   5.627   3.015
  889SOL    HW114321   7.877   5.593   3.107
  889SOL    HW214322   7.819   5.555   2.959
  890SOL     OW14323   2.418   0.454   0.679
  890SOL    HW114324   2.335   0.476   0.627
  890SOL    HW214325   2.431   0.521   0.752
  891SOL     OW14326   9.047   5.707   4.437
  891SOL    HW114327   9.097   5.790   4.411
  891SOL    HW214328   9.084   5.629   4.386
  892SOL     OW14329   1.426   1.005   1.653
  892SOL    HW114330   1.381   1.078   1.705
  892SOL    HW214331   1.515   0.985   1.694
  893SOL     OW14332   3.181   1.062   6.619
  893SOL    HW114333   3.217   0.975   6.584
  893SOL    HW214334   3.213   1.076   6.713
  894SOL     OW14335   7.870   1.873   3.829
  894SOL    HW114336   7.876   1.819   3.914
  894SOL    HW214337   7.916   1.960   3.842
  895SOL     OW14338   3.609   1.730   0.446
  895SOL    HW114339   3.655   1.766   0.365
  895SOL    HW214340   3.516   1.766   0.450
  896SOL     OW14341   1.210   2.000   2.616
  896SOL    HW114342   1.170   2.091   2.619
  896SOL    HW214343   1.145   1.934   2.655
  897SOL     OW14344   0.706   0.092   6.696
  897SOL    HW114345   0.686   0.089   6.598
  897SOL    HW214346   0.669   0.176   6.735
  898SOL     OW14347   2.519   9.556   4.120
  898SOL    HW114348   2.423   9.555   4.148
  898SOL    HW214349   2.570   9.616   4.181
  899SOL     OW14350   4.504   0.424   3.807
  899SOL    HW114351   4.454   0.468   3.881
  899SOL    HW214352   4.600   0.452   3.811
  900SOL     OW14353   7.300   6.993   4.019
  900SOL    HW114354   7.300   6.973   3.921
  900SOL    HW214355   7.371   6.939   4.064
  901SOL     OW14356   0.723   8.286   5.390
  901SOL    HW114357   0.774   8.210   5.352
  901SOL    HW214358   0.706   8.270   5.487
  902SOL     OW14359   0.790   0.437   4.815
  902SOL    HW114360   0.816   0.464   4.722
  902SOL    HW214361   0.790   0.518   4.874
  903SOL     OW14362   4.131   5.807   7.250
  903SOL    HW114363   4.213   5.803   7.308
  903SOL    HW214364   4.079   5.890   7.273
  904SOL     OW14365   2.385   4.740   7.377
  904SOL    HW114366   2.381   4.713   7.473
  904SOL    HW214367   2.481   4.743   7.347
  905SOL     OW14368   3.984   8.517   3.744
  905SOL    HW114369   3.896   8.512   3.790
  905SOL    HW214370   3.970   8.511   3.645
  906SOL     OW14371   7.480   2.428   0.894
  906SOL    HW114372   7.391   2.421   0.938
  906SOL    HW214373   7.549   2.455   0.962
  907SOL     OW14374   4.926   0.616   2.333
  907SOL    HW114375   4.833   0.622   2.369
  907SOL    HW214376   4.942   0.690   2.268
  908SOL     OW14377   2.792   0.475   3.515
  908SOL    HW114378   2.723   0.523   3.461
  908SOL    HW214379   2.879   0.523   3.508
  909SOL     OW14380   2.540   9.941   1.784
  909SOL    HW114381   2.553   9.863   1.845
  909SOL    HW214382   2.443   9.948   1.760
  910SOL     OW14383   2.536   6.568   5.580
  910SOL    HW114384   2.531   6.661   5.543
  910SOL    HW214385   2.628   6.552   5.615
  911SOL     OW14386   7.329   7.070   6.391
  911SOL    HW114387   7.234   7.042   6.396
  911SOL    HW214388   7.336   7.169   6.405
  912SOL     OW14389   1.076   0.620   0.737
  912SOL    HW114390   1.009   0.694   0.726
  912SOL    HW214391   1.159   0.657   0.778
  913SOL     OW14392   9.250   8.671   0.283
  913SOL    HW114393   9.284   8.734   0.353
  913SOL    HW214394   9.308   8.589   0.281
  914SOL     OW14395   8.982   1.016   0.454
  914SOL    HW114396   8.910   1.084   0.438
  914SOL    HW214397   9.006   1.015   0.551
  915SOL     OW14398   3.185   4.490   6.390
  915SOL    HW114399   3.186   4.589   6.379
  915SOL    HW214400   3.156   4.467   6.483
  916SOL     OW14401   7.259   8.141   6.595
  916SOL    HW114402   7.208   8.102   6.519
  916SOL    HW214403   7.354   8.111   6.591
  917SOL     OW14404   5.802   9.822   6.789
  917SOL    HW114405   5.732   9.779   6.845
  917SOL    HW214406   5.854   9.752   6.740
  918SOL     OW14407   3.319   6.221   2.564
  918SOL    HW114408   3.354   6.129   2.585
  918SOL    HW214409   3.242   6.213   2.501
  919SOL     OW14410   9.218   9.739   2.330
  919SOL    HW114411   9.127   9.700   2.345
  919SOL    HW214412   9.222   9.831   2.368
  920SOL     OW14413   7.694   9.018   3.702
  920SOL    HW114414   7.609   9.059   3.737
  920SOL    HW214415   7.772   9.064   3.743
  921SOL     OW14416   0.610   6.284   2.932
  921SOL    HW114417   0.691   6.306   2.877
  921SOL    HW214418   0.548   6.226   2.878
  922SOL     OW14419   1.691   4.473   6.664
  922SOL    HW114420   1.778   4.430   6.640
  922SOL    HW214421   1.628   4.465   6.588
  923SOL     OW14422   5.734   1.359   3.451
  923SOL    HW114423   5.688   1.271   3.436
  923SOL    HW214424   5.728   1.414   3.368
  924SOL     OW14425   5.107   9.801   1.839
  924SOL    HW114426   5.148   9.884   1.878
  924SOL    HW214427   5.079   9.741   1.913
  925SOL     OW14428   8.824   9.366   3.551
  925SOL    HW114429   8.729   9.379   3.580
  925SOL    HW214430   8.831   9.376   3.452
  926SOL     OW14431   5.908   2.312   2.121
  926SOL    HW114432   5.960   2.359   2.192
  926SOL    HW214433   5.817   2.352   2.114
  927SOL     OW14434   2.560   6.061   7.665
  927SOL    HW114435   2.649   6.105   7.654
  927SOL    HW214436   2.487   6.124   7.636
  928SOL     OW14437   8.468   2.591   5.921
  928SOL    HW114438   8.473   2.618   5.825
  928SOL    HW214439   8.379   2.550   5.939
  929SOL     OW14440   3.710   3.554   5.856
  929SOL    HW114441   3.798   3.597   5.834
  929SOL    HW214442   3.726   3.466   5.901
  930SOL     OW14443   2.955   0.074   7.157
  930SOL    HW114444   3.000   9.994   7.195
  930SOL    HW214445   3.017   0.120   7.093
  931SOL     OW14446   4.471   9.365   1.057
  931SOL    HW114447   4.420   9.425   1.118
  931SOL    HW214448   4.411   9.331   0.985
  932SOL     OW14449   3.915   0.786   2.716
  932SOL    HW114450   4.007   0.824   2.724
  932SOL    HW214451   3.901   0.752   2.623
  933SOL     OW14452   7.631   4.756   0.751
  933SOL    HW114453   7.543   4.709   0.744
  933SOL    HW214454   7.704   4.688   0.753
  934SOL     OW14455   4.566   8.121   5.708
  934SOL    HW114456   4.487   8.075   5.747
  934SOL    HW214457   4.551   8.220   5.708
  935SOL     OW14458   8.579   2.690   2.764
  935SOL    HW114459   8.664   2.713   2.812
  935SOL    HW214460   8.595   2.615   2.701
  936SOL     OW14461   2.213   6.204   6.462
  936SOL    HW114462   2.134   6.250   6.504
  936SOL    HW214463   2.217   6.109   6.493
  937SOL     OW14464   2.998   8.290   2.037
  937SOL    HW114465   3.044   8.354   2.098
  937SOL    HW214466   3.014   8.196   2.069
  938SOL     OW14467   3.616   7.192   7.393
  938SOL    HW114468   3.534   7.188   7.451
  938SOL    HW214469   3.666   7.106   7.400
  939SOL     OW14470   5.448   5.743   0.935
  939SOL    HW114471   5.504   5.664   0.960
  939SOL    HW214472   5.378   5.715   0.870
  940SOL     OW14473   5.849   9.638   6.218
  940SOL    HW114474   5.814   9.597   6.134
  940SOL    HW214475   5.897   9.724   6.196
  941SOL     OW14476   0.869   9.069   2.099
  941SOL    HW114477   0.830   9.157   2.126
  941SOL    HW214478   0.803   8.996   2.118
  942SOL     OW14479   2.421   7.097   2.741
  942SOL    HW114480   2.461   7.141   2.822
  942SOL    HW214481   2.492   7.045   2.693
  943SOL     OW14482   3.820   6.711   2.867
  943SOL    HW114483   3.877   6.650   2.812
  943SOL    HW214484   3.737   6.664   2.895
  944SOL     OW14485   0.492   3.678   7.875
  944SOL    HW114486   0.582   3.636   7.862
  944SOL    HW214487   0.429   3.610   7.912
  945SOL     OW14488   2.580   5.596   3.274
  945SOL    HW114489   2.642   5.670   3.248
  945SOL    HW214490   2.602   5.565   3.366
  946SOL     OW14491   7.299   5.951   6.739
  946SOL    HW114492   7.217   5.923   6.689
  946SOL    HW214493   7.279   6.032   6.794
  947SOL     OW14494   8.711   2.743   3.544
  947SOL    HW114495   8.713   2.755   3.445
  947SOL    HW214496   8.620   2.714   3.573
  948SOL     OW14497   3.294   6.244   6.331
  948SOL    HW114498   3.324   6.275   6.421
  948SOL    HW214499   3.258   6.151   6.339
  949SOL     OW14500   6.224   0.543   1.783
  949SOL    HW114501   6.318   0.517   1.805
  949SOL    HW214502   6.216   0.561   1.685
  950SOL     OW14503   1.746   7.121   1.945
  950SOL    HW114504   1.791   7.112   1.857
  950SOL    HW214505   1.800   7.074   2.015
  951SOL     OW14506   5.813   9.046   2.145
  951SOL    HW114507   5.734   9.076   2.092
  951SOL    HW214508   5.838   8.953   2.117
  952SOL     OW14509   2.598   7.942   5.546
  952SOL    HW114510   2.690   7.904   5.544
  952SOL    HW214511   2.554   7.930   5.457
  953SOL     OW14512   1.572   7.598   1.444
  953SOL    HW114513   1.607   7.553   1.526
  953SOL    HW214514   1.636   7.668   1.414
  954SOL     OW14515   2.793   1.694   2.931
  954SOL    HW114516   2.830   1.671   3.022
  954SOL    HW214517   2.774   1.792   2.926
  955SOL     OW14518   8.298   2.809   1.316
  955SOL    HW114519   8.369   2.871   1.282
  955SOL    HW214520   8.244   2.775   1.239
  956SOL     OW14521   2.894   7.871   2.842
  956SOL    HW114522   2.974   7.815   2.861
  956SOL    HW214523   2.904   7.915   2.753
  957SOL     OW14524   6.025   7.564   6.405
  957SOL    HW114525   6.081   7.588   6.326
  957SOL    HW214526   6.065   7.605   6.487
  958SOL     OW14527   9.410   5.648   2.544
  958SOL    HW114528   9.457   5.717   2.599
  958SOL    HW214529   9.408   5.561   2.593
  959SOL     OW14530   6.260   1.476   1.482
  959SOL    HW114531   6.236   1.556   1.537
  959SOL    HW214532   6.200   1.399   1.506
  960SOL     OW14533   2.872   3.365   4.934
  960SOL    HW114534   2.943   3.435   4.933
  960SOL    HW214535   2.785   3.406   4.962
  961SOL     OW14536   2.981   0.156   7.869
  961SOL    HW114537   3.002   0.178   7.965
  961SOL    HW214538   2.914   0.222   7.834
  962SOL     OW14539   4.138   0.514   4.915
  962SOL    HW114540   4.151   0.609   4.888
  962SOL    HW214541   4.040   0.498   4.932
  963SOL     OW14542   3.627   5.410   3.112
  963SOL    HW114543   3.663   5.318   3.131
  963SOL    HW214544   3.536   5.401   3.071
  964SOL     OW14545   9.940   4.721   6.413
  964SOL    HW114546   9.867   4.768   6.462
  964SOL    HW214547   0.029   4.757   6.441
  965SOL     OW14548   2.412   1.351   6.472
  965SOL    HW114549   2.313   1.361   6.463
  965SOL    HW214550   2.434   1.315   6.563
  966SOL     OW14551   9.285   4.703   6.652
  966SOL    HW114552   9.208   4.639   6.656
  966SOL    HW214553   9.338   4.686   6.569
  967SOL     OW14554   1.641   4.960   0.654
  967SOL    HW114555   1.721   4.986   0.599
  967SOL    HW214556   1.566   4.934   0.593
  968SOL     OW14557   0.161   5.543   7.549
  968SOL    HW114558   0.222   5.596   7.489
  968SOL    HW214559   0.165   5.447   7.523
  969SOL     OW14560   5.523   9.261   3.749
  969SOL    HW114561   5.486   9.247   3.657
  969SOL    HW214562   5.573   9.179   3.777
  970SOL     OW14563   0.781   0.644   3.075
  970SOL    HW114564   0.861   0.662   3.133
  970SOL    HW214565   0.806   0.655   2.979
  971SOL     OW14566   8.333   0.060   5.279
  971SOL    HW114567   8.401   0.119   5.236
  971SOL    HW214568   8.241   0.095   5.261
  972SOL     OW14569   2.959   3.742   3.616
  972SOL    HW114570   2.889   3.680   3.581
  972SOL    HW214571   2.919   3.804   3.682
  973SOL     OW14572   2.161   9.076   0.361
  973SOL    HW114573   2.066   9.104   0.370
  973SOL    HW214574   2.182   9.059   0.265
  974SOL     OW14575   9.849   1.367   5.210
  974SOL    HW114576   9.833   1.460   5.245
  974SOL    HW214577   9.865   1.305   5.287
  975SOL     OW14578   0.581   7.160   5.930
  975SOL    HW114579   0.533   7.108   6.000
  975SOL    HW214580   0.656   7.212   5.972
  976SOL     OW14581   3.509   1.027   2.074
  976SOL    HW114582   3.559   1.107   2.106
  976SOL    HW214583   3.529   1.012   1.977
  977SOL     OW14584   7.989   5.069   0.927
  977SOL    HW114585   7.910   5.059   0.867
  977SOL    HW214586   8.058   5.001   0.902
  978SOL     OW14587   7.757   7.466   7.676
  978SOL    HW114588   7.741   7.550   7.728
  978SOL    HW214589   7.816   7.486   7.598
  979SOL     OW14590   0.407   0.263   0.909
  979SOL    HW114591   0.405   0.192   0.838
  979SOL    HW214592   0.419   0.352   0.866
  980SOL     OW14593   1.792   1.992   6.249
  980SOL    HW114594   1.757   1.940   6.327
  980SOL    HW214595   1.891   1.981   6.243
  981SOL     OW14596   1.260   2.608   4.111
  981SOL    HW114597   1.348   2.574   4.145
  981SOL    HW214598   1.263   2.708   4.104
  982SOL     OW14599   3.236   3.016   2.017
  982SOL    HW114600   3.175   3.043   1.943
  982SOL    HW214601   3.228   3.083   2.092
  983SOL     OW14602   7.618   7.099   1.566
  983SOL    HW114603   7.546   7.057   1.621
  983SOL    HW214604   7.582   7.180   1.520
  984SOL     OW14605   6.824   3.213   1.387
  984SOL    HW114606   6.735   3.171   1.368
  984SOL    HW214607   6.890   3.142   1.412
  985SOL     OW14608   6.851   3.887   1.491
  985SOL    HW114609   6.756   3.881   1.461
  985SOL    HW214610   6.882   3.798   1.524
  986SOL     OW14611   2.915   9.526   7.575
  986SOL    HW114612   2.925   9.460   7.650
  986SOL    HW214613   2.821   9.522   7.540
  987SOL     OW14614   9.497   4.660   6.109
  987SOL    HW114615   9.528   4.594   6.041
  987SOL    HW214616   9.401   4.682   6.093
  988SOL     OW14617   2.661   6.313   2.667
  988SOL    HW114618   2.735   6.357   2.719
  988SOL    HW214619   2.639   6.369   2.588
  989SOL     OW14620   0.054   1.531   6.878
  989SOL    HW114621   0.046   1.587   6.796
  989SOL    HW214622   0.020   1.438   6.860
  990SOL     OW14623   0.676   5.535   3.603
  990SOL    HW114624   0.736   5.597   3.554
  990SOL    HW214625   0.592   5.521   3.551
  991SOL     OW14626   9.520   3.490   4.922
  991SOL    HW114627   9.595   3.539   4.967
  991SOL    HW214628   9.453   3.461   4.990
  992SOL     OW14629   3.812   7.541   6.143
  992SOL    HW114630   3.745   7.467   6.151
  992SOL    HW214631   3.815   7.593   6.228
  993SOL     OW14632   3.086   6.018   1.161
  993SOL    HW114633   3.162   5.955   1.176
  993SOL    HW214634   3.031   5.986   1.084
  994SOL     OW14635   4.784   8.792   1.753
  994SOL    HW114636   4.826   8.732   1.686
  994SOL    HW214637   4.839   8.875   1.763
  995SOL     OW14638   7.275   1.924   3.548
  995SOL    HW114639   7.213   1.850   3.573
  995SOL    HW214640   7.305   1.972   3.631
  996SOL     OW14641   2.723   7.566   5.073
  996SOL    HW114642   2.799   7.553   5.009
  996SOL    HW214643   2.650   7.618   5.029
  997SOL     OW14644   0.912   2.453   7.547
  997SOL    HW114645   0.826   2.503   7.540
  997SOL    HW214646   0.922   2.415   7.639
  998SOL     OW14647   1.314   3.168   1.712
  998SOL    HW114648   1.354   3.230   1.780
  998SOL    HW214649   1.323   3.208   1.621
  999SOL     OW14650   2.692   6.258   1.979
  999SOL    HW114651   2.757   6.273   2.053
  999SOL    HW214652   2.599   6.252   2.016
 1000SOL     OW14653   3.159   7.828   5.037
 1000SOL    HW114654   3.175   7.806   4.941
 1000SOL    HW214655   3.230   7.787   5.093
 1001SOL     OW14656   4.568   1.387   1.051
 1001SOL    HW114657   4.504   1.456   1.083
 1001SOL    HW214658   4.661   1.422   1.055
 1002SOL     OW14659   7.659   0.940   2.266
 1002SOL    HW114660   7.608   0.907   2.345
 1002SOL    HW214661   7.721   0.868   2.235
 1003SOL     OW14662   7.950   6.334   7.014
 1003SOL    HW114663   7.884   6.334   6.938
 1003SOL    HW214664   7.975   6.240   7.036
 1004SOL     OW14665   2.871   8.812   3.325
 1004SOL    HW114666   2.891   8.886   3.260
 1004SOL    HW214667   2.951   8.753   3.333
 1005SOL     OW14668   1.391   4.949   5.069
 1005SOL    HW114669   1.313   4.988   5.020
 1005SOL    HW214670   1.438   4.884   5.010
 1006SOL     OW14671   3.474   5.695   5.313
 1006SOL    HW114672   3.531   5.734   5.241
 1006SOL    HW214673   3.532   5.651   5.382
 1007SOL     OW14674   9.485   5.051   6.748
 1007SOL    HW114675   9.534   4.968   6.775
 1007SOL    HW214676   9.493   5.065   6.650
 1008SOL     OW14677   3.092   6.385   1.439
 1008SOL    HW114678   3.006   6.428   1.466
 1008SOL    HW214679   3.148   6.451   1.389
 1009SOL     OW14680   9.000   0.433   3.273
 1009SOL    HW114681   8.917   0.381   3.252
 1009SOL    HW214682   9.075   0.370   3.292
 1010SOL     OW14683   2.228   6.390   3.489
 1010SOL    HW114684   2.167   6.441   3.429
 1010SOL    HW214685   2.292   6.337   3.434
 1011SOL     OW14686   0.756   7.669   6.341
 1011SOL    HW114687   0.785   7.604   6.412
 1011SOL    HW214688   0.836   7.706   6.295
 1012SOL     OW14689   3.276   7.945   7.446
 1012SOL    HW114690   3.245   7.864   7.496
 1012SOL    HW214691   3.342   7.917   7.376
 1013SOL     OW14692   6.616   8.557   6.124
 1013SOL    HW114693   6.610   8.655   6.141
 1013SOL    HW214694   6.541   8.510   6.170
 1014SOL     OW14695   9.285   1.537   3.219
 1014SOL    HW114696   9.235   1.532   3.133
 1014SOL    HW214697   9.304   1.445   3.253
 1015SOL     OW14698   5.792   0.715   3.259
 1015SOL    HW114699   5.718   0.782   3.244
 1015SOL    HW214700   5.880   0.761   3.251
 1016SOL     OW14701   3.685   3.058   5.317
 1016SOL    HW114702   3.701   3.089   5.411
 1016SOL    HW214703   3.604   2.999   5.316
 1017SOL     OW14704   4.316   4.115   7.144
 1017SOL    HW114705   4.244   4.118   7.214
 1017SOL    HW214706   4.406   4.115   7.188
 1018SOL     OW14707   0.382   8.551   2.727
 1018SOL    HW114708   0.359   8.457   2.701
 1018SOL    HW214709   0.311   8.613   2.693
 1019SOL     OW14710   1.470   2.976   1.268
 1019SOL    HW114711   1.528   3.049   1.232
 1019SOL    HW214712   1.488   2.891   1.218
 1020SOL     OW14713   8.037   8.449   3.316
 1020SOL    HW114714   7.954   8.445   3.373
 1020SOL    HW214715   8.085   8.362   3.323
 1021SOL     OW14716   8.452   3.123   1.579
 1021SOL    HW114717   8.364   3.147   1.540
 1021SOL    HW214718   8.440   3.091   1.673
 1022SOL     OW14719   4.661   9.167   6.382
 1022SOL    HW114720   4.730   9.175   6.311
 1022SOL    HW214721   4.608   9.251   6.388
 1023SOL     OW14722   0.619   7.321   1.225
 1023SOL    HW114723   0.664   7.238   1.194
 1023SOL    HW214724   0.688   7.389   1.251
 1024SOL     OW14725   6.549   9.862   5.746
 1024SOL    HW114726   6.521   9.810   5.827
 1024SOL    HW214727   6.588   9.800   5.678
 1025SOL     OW14728   4.952   3.012   2.078
 1025SOL    HW114729   4.987   3.020   1.985
 1025SOL    HW214730   4.876   2.948   2.081
 1026SOL     OW14731   7.304   4.781   2.711
 1026SOL    HW114732   7.230   4.715   2.728
 1026SOL    HW214733   7.300   4.811   2.615
 1027SOL     OW14734   9.869   5.521   7.302
 1027SOL    HW114735   9.861   5.512   7.401
 1027SOL    HW214736   9.784   5.558   7.265
 1028SOL     OW14737   6.993   6.892   2.798
 1028SOL    HW114738   7.006   6.795   2.779
 1028SOL    HW214739   7.028   6.913   2.889
 1029SOL     OW14740   8.643   0.237   3.464
 1029SOL    HW114741   8.683   0.245   3.373
 1029SOL    HW214742   8.714   0.250   3.533
 1030SOL     OW14743   2.743   8.736   2.594
 1030SOL    HW114744   2.774   8.698   2.681
 1030SOL    HW214745   2.650   8.772   2.604
 1031SOL     OW14746   1.269   5.497   5.628
 1031SOL    HW114747   1.279   5.425   5.697
 1031SOL    HW214748   1.189   5.478   5.572
 1032SOL     OW14749   0.081   7.128   3.636
 1032SOL    HW114750   0.105   7.068   3.560
 1032SOL    HW214751   0.136   7.105   3.716
 1033SOL     OW14752   0.973   4.954   7.468
 1033SOL    HW114753   0.916   4.981   7.546
 1033SOL    HW214754   1.065   4.993   7.479
 1034SOL     OW14755   3.326   1.815   6.878
 1034SOL    HW114756   3.226   1.809   6.880
 1034SOL    HW214757   3.365   1.726   6.903
 1035SOL     OW14758   6.767   8.367   2.308
 1035SOL    HW114759   6.707   8.383   2.229
 1035SOL    HW214760   6.847   8.426   2.300
 1036SOL     OW14761   4.839   1.634   1.773
 1036SOL    HW114762   4.906   1.708   1.773
 1036SOL    HW214763   4.809   1.616   1.679
 1037SOL     OW14764   9.582   5.563   2.346
 1037SOL    HW114765   9.514   5.594   2.413
 1037SOL    HW214766   9.545   5.576   2.254
 1038SOL     OW14767   2.189   9.657   6.299
 1038SOL    HW114768   2.274   9.631   6.253
 1038SOL    HW214769   2.137   9.718   6.239
 1039SOL     OW14770   8.485   0.812   3.319
 1039SOL    HW114771   8.506   0.809   3.417
 1039SOL    HW214772   8.405   0.869   3.304
 1040SOL     OW14773   8.194   6.284   6.676
 1040SOL    HW114774   8.186   6.359   6.741
 1040SOL    HW214775   8.110   6.275   6.623
 1041SOL     OW14776   8.504   7.711   0.136
 1041SOL    HW114777   8.445   7.790   0.122
 1041SOL    HW214778   8.599   7.737   0.120
 1042SOL     OW14779   2.447   6.588   1.491
 1042SOL    HW114780   2.399   6.616   1.408
 1042SOL    HW214781   2.540   6.625   1.490
 1043SOL     OW14782   6.246   8.251   4.064
 1043SOL    HW114783   6.184   8.175   4.082
 1043SOL    HW214784   6.214   8.333   4.113
 1044SOL     OW14785   3.952   2.629   5.425
 1044SOL    HW114786   4.014   2.605   5.350
 1044SOL    HW214787   3.862   2.650   5.387
 1045SOL     OW14788   1.344   7.921   2.190
 1045SOL    HW114789   1.441   7.905   2.172
 1045SOL    HW214790   1.331   7.935   2.288
 1046SOL     OW14791   8.494   4.743   2.820
 1046SOL    HW114792   8.505   4.840   2.798
 1046SOL    HW214793   8.567   4.690   2.777
 1047SOL     OW14794   2.329   0.768   7.440
 1047SOL    HW114795   2.312   0.864   7.464
 1047SOL    HW214796   2.394   0.764   7.365
 1048SOL     OW14797   7.889   0.619   7.512
 1048SOL    HW114798   7.920   0.529   7.542
 1048SOL    HW214799   7.965   0.666   7.467
 1049SOL     OW14800   5.990   5.528   1.993
 1049SOL    HW114801   5.969   5.490   1.903
 1049SOL    HW214802   5.905   5.538   2.046
 1050SOL     OW14803   5.495   5.832   1.369
 1050SOL    HW114804   5.440   5.837   1.286
 1050SOL    HW214805   5.435   5.840   1.449
 1051SOL     OW14806   7.235   0.228   1.211
 1051SOL    HW114807   7.159   0.276   1.256
 1051SOL    HW214808   7.265   0.280   1.131
 1052SOL     OW14809   9.686   3.813   0.207
 1052SOL    HW114810   9.740   3.874   0.265
 1052SOL    HW214811   9.590   3.842   0.209
 1053SOL     OW14812   1.582   5.369   7.118
 1053SOL    HW114813   1.571   5.282   7.069
 1053SOL    HW214814   1.512   5.433   7.088
 1054SOL     OW14815   9.088   8.117   4.957
 1054SOL    HW114816   9.046   8.139   5.045
 1054SOL    HW214817   9.129   8.200   4.918
 1055SOL     OW14818   7.712   2.065   0.411
 1055SOL    HW114819   7.657   2.125   0.469
 1055SOL    HW214820   7.767   2.005   0.469
 1056SOL     OW14821   6.967   3.154   3.494
 1056SOL    HW114822   6.906   3.091   3.540
 1056SOL    HW214823   7.053   3.162   3.545
 1057SOL     OW14824   6.844   0.150   5.852
 1057SOL    HW114825   6.867   0.245   5.874
 1057SOL    HW214826   6.926   0.103   5.821
 1058SOL     OW14827   5.776   9.853   4.034
 1058SOL    HW114828   5.721   9.798   4.096
 1058SOL    HW214829   5.801   9.799   3.954
 1059SOL     OW14830   2.340   5.024   0.186
 1059SOL    HW114831   2.419   4.992   0.134
 1059SOL    HW214832   2.358   5.117   0.220
 1060SOL     OW14833   3.823   2.090   6.890
 1060SOL    HW114834   3.760   2.150   6.940
 1060SOL    HW214835   3.917   2.115   6.911
 1061SOL     OW14836   2.753   7.708   3.792
 1061SOL    HW114837   2.849   7.680   3.786
 1061SOL    HW214838   2.731   7.767   3.715
 1062SOL     OW14839   4.759   3.972   7.582
 1062SOL    HW114840   4.768   4.071   7.572
 1062SOL    HW214841   4.664   3.949   7.602
 1063SOL     OW14842   1.782   3.233   4.756
 1063SOL    HW114843   1.800   3.168   4.830
 1063SOL    HW214844   1.815   3.323   4.782
 1064SOL     OW14845   8.616   2.742   7.563
 1064SOL    HW114846   8.568   2.690   7.634
 1064SOL    HW214847   8.689   2.687   7.524
 1065SOL     OW14848   3.085   6.537   5.738
 1065SOL    HW114849   3.090   6.445   5.699
 1065SOL    HW214850   3.175   6.581   5.732
 1066SOL     OW14851   1.367   1.903   1.268
 1066SOL    HW114852   1.297   1.836   1.294
 1066SOL    HW214853   1.430   1.917   1.344
 1067SOL     OW14854   0.703   6.827   0.367
 1067SOL    HW114855   0.771   6.901   0.362
 1067SOL    HW214856   0.647   6.840   0.449
 1068SOL     OW14857   4.743   2.094   4.447
 1068SOL    HW114858   4.731   2.146   4.363
 1068SOL    HW214859   4.728   1.997   4.429
 1069SOL     OW14860   2.877   6.834   0.982
 1069SOL    HW114861   2.889   6.770   0.906
 1069SOL    HW214862   2.791   6.884   0.969
 1070SOL     OW14863   9.262   5.603   7.525
 1070SOL    HW114864   9.243   5.539   7.450
 1070SOL    HW214865   9.355   5.588   7.559
 1071SOL     OW14866   8.791   0.252   3.231
 1071SOL    HW114867   8.845   0.167   3.235
 1071SOL    HW214868   8.752   0.262   3.140
 1072SOL     OW14869   9.624   4.287   7.670
 1072SOL    HW114870   9.536   4.324   7.699
 1072SOL    HW214871   9.609   4.219   7.598
 1073SOL     OW14872   2.766   7.540   7.284
 1073SOL    HW114873   2.756   7.574   7.377
 1073SOL    HW214874   2.755   7.441   7.283
 1074SOL     OW14875   4.141   8.567   3.116
 1074SOL    HW114876   4.116   8.556   3.212
 1074SOL    HW214877   4.241   8.560   3.107
 1075SOL     OW14878   3.206   5.932   4.791
 1075SOL    HW114879   3.116   5.901   4.758
 1075SOL    HW214880   3.195   6.017   4.842
 1076SOL     OW14881   7.197   8.535   5.187
 1076SOL    HW114882   7.140   8.535   5.269
 1076SOL    HW214883   7.278   8.477   5.202
 1077SOL     OW14884   7.504   5.784   3.015
 1077SOL    HW114885   7.505   5.686   2.993
 1077SOL    HW214886   7.593   5.823   2.992
 1078SOL     OW14887   4.009   6.957   3.428
 1078SOL    HW114888   4.076   6.882   3.433
 1078SOL    HW214889   3.999   6.998   3.519
 1079SOL     OW14890   1.908   9.163   0.360
 1079SOL    HW114891   1.845   9.085   0.353
 1079SOL    HW214892   1.879   9.222   0.435
 1080SOL     OW14893   0.661   6.757   2.248
 1080SOL    HW114894   0.682   6.756   2.346
 1080SOL    HW214895   0.729   6.704   2.199
 1081SOL     OW14896   1.030   0.395   0.890
 1081SOL    HW114897   1.046   0.478   0.836
 1081SOL    HW214898   0.933   0.370   0.883
 1082SOL     OW14899   1.690   2.605   5.562
 1082SOL    HW114900   1.650   2.518   5.589
 1082SOL    HW214901   1.618   2.673   5.550
 1083SOL     OW14902   1.220   0.078   0.392
 1083SOL    HW114903   1.169   0.005   0.438
 1083SOL    HW214904   1.305   0.096   0.442
 1084SOL     OW14905   1.642   0.981   7.145
 1084SOL    HW114906   1.594   1.060   7.185
 1084SOL    HW214907   1.617   0.898   7.195
 1085SOL     OW14908   3.702   1.656   6.801
 1085SOL    HW114909   3.622   1.632   6.856
 1085SOL    HW214910   3.681   1.646   6.704
 1086SOL     OW14911   8.767   5.516   2.948
 1086SOL    HW114912   8.793   5.594   2.890
 1086SOL    HW214913   8.668   5.516   2.961
 1087SOL     OW14914   3.360   2.921   7.311
 1087SOL    HW114915   3.316   2.978   7.242
 1087SOL    HW214916   3.294   2.899   7.383
 1088SOL     OW14917   8.068   4.137   1.944
 1088SOL    HW114918   8.078   4.231   1.911
 1088SOL    HW214919   8.145   4.115   2.005
 1089SOL     OW14920   2.189   0.546   2.267
 1089SOL    HW114921   2.198   0.611   2.342
 1089SOL    HW214922   2.230   0.459   2.294
 1090SOL     OW14923   1.214   2.447   6.175
 1090SOL    HW114924   1.148   2.498   6.120
 1090SOL    HW214925   1.307   2.479   6.155
 1091SOL     OW14926   8.210   8.757   1.133
 1091SOL    HW114927   8.232   8.830   1.068
 1091SOL    HW214928   8.245   8.781   1.223
 1092SOL     OW14929   3.315   8.390   2.740
 1092SOL    HW114930   3.326   8.485   2.711
 1092SOL    HW214931   3.220   8.363   2.728
 1093SOL     OW14932   4.549   6.729   0.590
 1093SOL    HW114933   4.619   6.661   0.611
 1093SOL    HW214934   4.551   6.801   0.659
 1094SOL     OW14935   9.585   8.406   6.883
 1094SOL    HW114936   9.517   8.467   6.841
 1094SOL    HW214937   9.557   8.387   6.978
 1095SOL     OW14938   8.315   2.654   3.876
 1095SOL    HW114939   8.242   2.590   3.897
 1095SOL    HW214940   8.343   2.644   3.780
 1096SOL     OW14941   0.175   9.954   7.818
 1096SOL    HW114942   0.224   9.870   7.841
 1096SOL    HW214943   0.228   0.033   7.849
 1097SOL     OW14944   8.957   5.759   6.787
 1097SOL    HW114945   8.925   5.728   6.697
 1097SOL    HW214946   8.906   5.712   6.858
 1098SOL     OW14947   3.390   5.910   4.584
 1098SOL    HW114948   3.322   5.926   4.655
 1098SOL    HW214949   3.471   5.867   4.624
 1099SOL     OW14950   8.279   2.009   1.133
 1099SOL    HW114951   8.244   1.935   1.077
 1099SOL    HW214952   8.238   2.096   1.103
 1100SOL     OW14953   0.080   9.516   6.095
 1100SOL    HW114954   0.145   9.586   6.126
 1100SOL    HW214955   0.049   9.538   6.003
 1101SOL     OW14956   6.548   0.627   1.165
 1101SOL    HW114957   6.458   0.626   1.122
 1101SOL    HW214958   6.538   0.613   1.263
 1102SOL     OW14959   5.605   4.512   2.418
 1102SOL    HW114960   5.623   4.546   2.326
 1102SOL    HW214961   5.592   4.589   2.480
 1103SOL     OW14962   3.647   4.672   3.934
 1103SOL    HW114963   3.612   4.648   4.024
 1103SOL    HW214964   3.651   4.771   3.925
 1104SOL     OW14965   6.654   1.769   2.657
 1104SOL    HW114966   6.644   1.743   2.753
 1104SOL    HW214967   6.746   1.744   2.625
 1105SOL     OW14968   0.691   6.699   3.599
 1105SOL    HW114969   0.678   6.793   3.631
 1105SOL    HW214970   0.781   6.691   3.555
 1106SOL     OW14971   0.171   2.269   7.039
 1106SOL    HW114972   0.227   2.208   7.093
 1106SOL    HW214973   0.191   2.257   6.942
 1107SOL     OW14974   2.788   7.574   3.072
 1107SOL    HW114975   2.710   7.565   3.010
 1107SOL    HW214976   2.831   7.484   3.084
 1108SOL     OW14977   1.076   1.082   0.505
 1108SOL    HW114978   1.173   1.061   0.493
 1108SOL    HW214979   1.020   1.010   0.464
 1109SOL     OW14980   0.239   5.610   2.239
 1109SOL    HW114981   0.297   5.529   2.225
 1109SOL    HW214982   0.147   5.591   2.204
 1110SOL     OW14983   7.781   3.040   0.980
 1110SOL    HW114984   7.875   3.060   1.007
 1110SOL    HW214985   7.775   3.034   0.881
 1111SOL     OW14986   1.162   6.039   6.454
 1111SOL    HW114987   1.259   6.015   6.452
 1111SOL    HW214988   1.113   5.976   6.514
 1112SOL     OW14989   8.808   5.957   5.973
 1112SOL    HW114990   8.858   5.965   5.887
 1112SOL    HW214991   8.871   5.961   6.050
 1113SOL     OW14992   6.937   7.277   3.359
 1113SOL    HW114993   6.986   7.278   3.446
 1113SOL    HW214994   6.844   7.243   3.374
 1114SOL     OW14995   6.335   8.013   6.177
 1114SOL    HW114996   6.409   8.008   6.110
 1114SOL    HW214997   6.341   7.933   6.237
 1115SOL     OW14998   1.891   7.831   6.897
 1115SOL    HW114999   1.809   7.778   6.880
 1115SOL    HW215000   1.910   7.835   6.995
 1116SOL     OW15001   9.707   1.044   3.600
 1116SOL    HW115002   9.789   0.987   3.591
 1116SOL    HW215003   9.729   1.138   3.574
 1117SOL     OW15004   0.648   3.500   5.037
 1117SOL    HW115005   0.713   3.451   5.095
 1117SOL    HW215006   0.561   3.450   5.034
 1118SOL     OW15007   4.348   4.119   6.193
 1118SOL    HW115008   4.404   4.045   6.155
 1118SOL    HW215009   4.367   4.128   6.290
 1119SOL     OW15010   1.651   7.462   1.669
 1119SOL    HW115011   1.672   7.366   1.650
 1119SOL    HW215012   1.587   7.468   1.746
 1120SOL     OW15013   6.318   0.809   3.165
 1120SOL    HW115014   6.382   0.874   3.206
 1120SOL    HW215015   6.336   0.802   3.067
 1121SOL     OW15016   2.224   4.047   0.678
 1121SOL    HW115017   2.257   4.136   0.708
 1121SOL    HW215018   2.129   4.054   0.649
 1122SOL     OW15019   9.052   4.514   4.679
 1122SOL    HW115020   8.992   4.454   4.732
 1122SOL    HW215021   9.123   4.460   4.634
 1123SOL     OW15022   8.978   5.900   1.191
 1123SOL    HW115023   8.979   5.981   1.250
 1123SOL    HW215024   9.027   5.919   1.107
 1124SOL     OW15025   5.995   8.299   5.989
 1124SOL    HW115026   6.015   8.334   5.897
 1124SOL    HW215027   5.919   8.349   6.028
 1125SOL     OW15028   5.322   0.443   7.741
 1125SOL    HW115029   5.227   0.419   7.721
 1125SOL    HW215030   5.369   0.363   7.777
 1126SOL     OW15031   7.907   8.530   4.145
 1126SOL    HW115032   7.897   8.443   4.096
 1126SOL    HW215033   7.843   8.532   4.222
 1127SOL     OW15034   5.359   8.099   7.038
 1127SOL    HW115035   5.395   8.123   6.947
 1127SOL    HW215036   5.342   8.000   7.042
 1128SOL     OW15037   3.542   9.007   3.389
 1128SOL    HW115038   3.536   8.938   3.317
 1128SOL    HW215039   3.591   8.968   3.468
 1129SOL     OW15040   2.731   9.755   7.299
 1129SOL    HW115041   2.764   9.667   7.265
 1129SOL    HW215042   2.789   9.785   7.375
 1130SOL     OW15043   5.807   3.876   0.423
 1130SOL    HW115044   5.904   3.899   0.427
 1130SOL    HW215045   5.786   3.810   0.495
 1131SOL     OW15046   9.030   1.797   6.397
 1131SOL    HW115047   8.968   1.733   6.443
 1131SOL    HW215048   9.003   1.807   6.302
 1132SOL     OW15049   4.248   8.977   2.029
 1132SOL    HW115050   4.227   9.060   1.977
 1132SOL    HW215051   4.312   8.920   1.976
 1133SOL     OW15052   9.908   2.209   1.255
 1133SOL    HW115053   9.829   2.188   1.312
 1133SOL    HW215054   9.979   2.251   1.312
 1134SOL     OW15055   6.664   8.045   5.016
 1134SOL    HW115056   6.589   8.076   5.073
 1134SOL    HW215057   6.681   8.112   4.943
 1135SOL     OW15058   7.997   2.783   3.485
 1135SOL    HW115059   8.012   2.687   3.506
 1135SOL    HW215060   7.899   2.804   3.490
 1136SOL     OW15061   6.592   8.663   3.705
 1136SOL    HW115062   6.567   8.577   3.749
 1136SOL    HW215063   6.674   8.700   3.749
 1137SOL     OW15064   5.563   5.049   1.662
 1137SOL    HW115065   5.642   5.031   1.604
 1137SOL    HW215066   5.576   5.137   1.708
 1138SOL     OW15067   1.415   9.808   7.487
 1138SOL    HW115068   1.415   9.861   7.402
 1138SOL    HW215069   1.371   9.860   7.559
 1139SOL     OW15070   8.365   9.250   5.237
 1139SOL    HW115071   8.421   9.171   5.212
 1139SOL    HW215072   8.417   9.334   5.221
 1140SOL     OW15073   6.670   2.184   0.526
 1140SOL    HW115074   6.725   2.188   0.610
 1140SOL    HW215075   6.705   2.113   0.466
 1141SOL     OW15076   8.858   7.607   2.394
 1141SOL    HW115077   8.808   7.530   2.431
 1141SOL    HW215078   8.843   7.688   2.451
 1142SOL     OW15079   0.389   1.096   2.347
 1142SOL    HW115080   0.464   1.091   2.282
 1142SOL    HW215081   0.405   1.172   2.410
 1143SOL     OW15082   3.948   1.918   1.661
 1143SOL    HW115083   3.912   1.912   1.568
 1143SOL    HW215084   3.892   1.981   1.714
 1144SOL     OW15085   1.770   2.277   1.409
 1144SOL    HW115086   1.745   2.369   1.439
 1144SOL    HW215087   1.869   2.269   1.405
 1145SOL     OW15088   9.019   2.685   0.201
 1145SOL    HW115089   8.950   2.758   0.201
 1145SOL    HW215090   8.979   2.602   0.163
 1146SOL     OW15091   0.077   5.369   2.913
 1146SOL    HW115092   0.057   5.431   2.838
 1146SOL    HW215093   0.087   5.276   2.878
 1147SOL     OW15094   0.123   2.126   2.131
 1147SOL    HW115095   0.074   2.055   2.181
 1147SOL    HW215096   0.089   2.216   2.159
 1148SOL     OW15097   2.371   2.502   2.977
 1148SOL    HW115098   2.433   2.490   3.055
 1148SOL    HW215099   2.285   2.541   3.009
 1149SOL     OW15100   2.251   7.296   2.671
 1149SOL    HW115101   2.315   7.222   2.692
 1149SOL    HW215102   2.277   7.378   2.722
 1150SOL     OW15103   1.708   8.418   7.649
 1150SOL    HW115104   1.760   8.499   7.676
 1150SOL    HW215105   1.638   8.444   7.584
 1151SOL     OW15106   6.680   9.353   6.751
 1151SOL    HW115107   6.723   9.441   6.734
 1151SOL    HW215108   6.706   9.321   6.843
 1152SOL     OW15109   2.005   5.258   6.200
 1152SOL    HW115110   1.949   5.255   6.283
 1152SOL    HW215111   2.035   5.352   6.183
 1153SOL     OW15112   9.945   0.382   0.219
 1153SOL    HW115113   9.938   0.337   0.130
 1153SOL    HW215114   0.033   0.429   0.227
 1154SOL     OW15115   3.892   2.678   6.972
 1154SOL    HW115116   3.991   2.688   6.970
 1154SOL    HW215117   3.854   2.738   7.042
 1155SOL     OW15118   2.056   9.547   5.028
 1155SOL    HW115119   1.999   9.543   4.945
 1155SOL    HW215120   2.018   9.485   5.097
 1156SOL     OW15121   7.866   5.133   2.709
 1156SOL    HW115122   7.774   5.115   2.675
 1156SOL    HW215123   7.924   5.054   2.692
 1157SOL     OW15124   9.669   5.547   3.345
 1157SOL    HW115125   9.697   5.454   3.373
 1157SOL    HW215126   9.574   5.545   3.316
 1158SOL     OW15127   6.518   1.720   5.835
 1158SOL    HW115128   6.489   1.673   5.751
 1158SOL    HW215129   6.567   1.804   5.811
 1159SOL     OW15130   1.155   2.204   3.270
 1159SOL    HW115131   1.095   2.241   3.199
 1159SOL    HW215132   1.242   2.176   3.228
 1160SOL     OW15133   0.086   2.813   0.440
 1160SOL    HW115134   0.021   2.817   0.365
 1160SOL    HW215135   0.082   2.723   0.484
 1161SOL     OW15136   6.210   4.864   1.463
 1161SOL    HW115137   6.156   4.947   1.477
 1161SOL    HW215138   6.279   4.857   1.535
 1162SOL     OW15139   6.206   9.337   5.083
 1162SOL    HW115140   6.124   9.284   5.061
 1162SOL    HW215141   6.283   9.300   5.030
 1163SOL     OW15142   7.346   3.822   2.845
 1163SOL    HW115143   7.256   3.780   2.829
 1163SOL    HW215144   7.340   3.883   2.924
 1164SOL     OW15145   6.573   9.272   5.786
 1164SOL    HW115146   6.514   9.203   5.829
 1164SOL    HW215147   6.550   9.279   5.689
 1165SOL     OW15148   7.788   8.156   1.348
 1165SOL    HW115149   7.708   8.104   1.318
 1165SOL    HW215150   7.830   8.202   1.269
 1166SOL     OW15151   3.756   8.908   3.063
 1166SOL    HW115152   3.770   8.980   2.994
 1166SOL    HW215153   3.820   8.833   3.046
 1167SOL     OW15154   0.412   9.422   7.309
 1167SOL    HW115155   0.401   9.447   7.405
 1167SOL    HW215156   0.330   9.448   7.259
 1168SOL     OW15157   6.496   7.228   5.437
 1168SOL    HW115158   6.554   7.277   5.503
 1168SOL    HW215159   6.532   7.136   5.424
 1169SOL     OW15160   0.215   8.816   2.902
 1169SOL    HW115161   0.200   8.912   2.923
 1169SOL    HW215162   0.204   8.800   2.804
 1170SOL     OW15163   1.200   2.050   5.899
 1170SOL    HW115164   1.145   1.969   5.880
 1170SOL    HW215165   1.144   2.117   5.948
 1171SOL     OW15166   3.653   3.128   0.747
 1171SOL    HW115167   3.563   3.157   0.715
 1171SOL    HW215168   3.656   3.128   0.847
 1172SOL     OW15169   1.351   3.444   3.142
 1172SOL    HW115170   1.267   3.425   3.091
 1172SOL    HW215171   1.353   3.388   3.225
 1173SOL     OW15172   3.360   3.770   1.109
 1173SOL    HW115173   3.355   3.791   1.011
 1173SOL    HW215174   3.345   3.854   1.161
 1174SOL     OW15175   1.674   9.630   7.018
 1174SOL    HW115176   1.592   9.602   7.068
 1174SOL    HW215177   1.664   9.607   6.921
 1175SOL     OW15178   7.592   9.778   1.280
 1175SOL    HW115179   7.656   9.766   1.204
 1175SOL    HW215180   7.502   9.743   1.254
 1176SOL     OW15181   3.782   8.659   6.510
 1176SOL    HW115182   3.862   8.631   6.562
 1176SOL    HW215183   3.804   8.740   6.456
 1177SOL     OW15184   8.729   1.349   3.008
 1177SOL    HW115185   8.715   1.253   3.033
 1177SOL    HW215186   8.643   1.388   2.975
 1178SOL     OW15187   0.080   5.253   4.618
 1178SOL    HW115188   0.061   5.218   4.709
 1178SOL    HW215189   0.044   5.346   4.610
 1179SOL     OW15190   6.318   2.357   0.731
 1179SOL    HW115191   6.316   2.397   0.822
 1179SOL    HW215192   6.317   2.430   0.662
 1180SOL     OW15193   7.671   7.477   5.059
 1180SOL    HW115194   7.656   7.404   5.126
 1180SOL    HW215195   7.745   7.536   5.091
 1181SOL     OW15196   2.127   1.253   1.382
 1181SOL    HW115197   2.113   1.308   1.299
 1181SOL    HW215198   2.038   1.231   1.423
 1182SOL     OW15199   0.036   6.096   0.616
 1182SOL    HW115200   0.062   6.189   0.593
 1182SOL    HW215201   9.936   6.087   0.613
 1183SOL     OW15202   2.068   1.410   1.167
 1183SOL    HW115203   1.978   1.424   1.208
 1183SOL    HW215204   2.072   1.457   1.079
 1184SOL     OW15205   1.610   0.458   0.571
 1184SOL    HW115206   1.648   0.382   0.623
 1184SOL    HW215207   1.551   0.422   0.498
 1185SOL     OW15208   9.391   0.054   7.711
 1185SOL    HW115209   9.478   0.073   7.666
 1185SOL    HW215210   9.389   9.959   7.742
 1186SOL     OW15211   5.363   8.524   5.718
 1186SOL    HW115212   5.356   8.611   5.765
 1186SOL    HW215213   5.441   8.473   5.753
 1187SOL     OW15214   0.448   4.821   2.601
 1187SOL    HW115215   0.482   4.787   2.513
 1187SOL    HW215216   0.517   4.879   2.644
 1188SOL     OW15217   5.882   0.276   6.121
 1188SOL    HW115218   5.980   0.273   6.099
 1188SOL    HW215219   5.869   0.317   6.211
 1189SOL     OW15220   8.187   0.966   3.608
 1189SOL    HW115221   8.116   0.955   3.539
 1189SOL    HW215222   8.201   0.879   3.656
 1190SOL     OW15223   6.208   1.381   3.573
 1190SOL    HW115224   6.128   1.322   3.568
 1190SOL    HW215225   6.285   1.330   3.612
 1191SOL     OW15226   1.027   3.139   0.431
 1191SOL    HW115227   1.040   3.059   0.489
 1191SOL    HW215228   1.109   3.152   0.374
 1192SOL     OW15229   2.420   2.248   7.836
 1192SOL    HW115230   2.390   2.293   7.753
 1192SOL    HW215231   2.505   2.288   7.868
 1193SOL     OW15232   5.137   9.123   5.919
 1193SOL    HW115233   5.160   9.200   5.860
 1193SOL    HW215234   5.195   9.125   6.000
 1194SOL     OW15235   1.885   8.361   5.301
 1194SOL    HW115236   1.957   8.294   5.282
 1194SOL    HW215237   1.917   8.426   5.370
 1195SOL     OW15238   2.072   7.633   1.538
 1195SOL    HW115239   1.999   7.619   1.605
 1195SOL    HW215240   2.154   7.582   1.566
 1196SOL     OW15241   1.448   5.302   3.578
 1196SOL    HW115242   1.451   5.390   3.531
 1196SOL    HW215243   1.455   5.317   3.677
 1197SOL     OW15244   0.771   2.690   0.686
 1197SOL    HW115245   0.677   2.676   0.715
 1197SOL    HW215246   0.772   2.718   0.590
 1198SOL     OW15247   4.190   9.102   7.471
 1198SOL    HW115248   4.265   9.166   7.455
 1198SOL    HW215249   4.106   9.154   7.491
 1199SOL     OW15250   1.668   1.387   4.668
 1199SOL    HW115251   1.693   1.295   4.637
 1199SOL    HW215252   1.569   1.400   4.659
 1200SOL     OW15253   0.206   0.121   7.036
 1200SOL    HW115254   0.166   0.200   6.989
 1200SOL    HW215255   0.135   0.053   7.055
 1201SOL     OW15256   0.411   4.669   4.545
 1201SOL    HW115257   0.413   4.593   4.609
 1201SOL    HW215258   0.345   4.737   4.577
 1202SOL     OW15259   6.630   7.677   4.532
 1202SOL    HW115260   6.711   7.639   4.487
 1202SOL    HW215261   6.658   7.721   4.617
 1203SOL     OW15262   7.008   5.562   1.976
 1203SOL    HW115263   7.083   5.613   2.019
 1203SOL    HW215264   7.038   5.528   1.887
 1204SOL     OW15265   1.187   2.944   7.884
 1204SOL    HW115266   1.212   2.863   7.938
 1204SOL    HW215267   1.267   2.975   7.832
 1205SOL     OW15268   4.903   6.772   2.174
 1205SOL    HW115269   4.899   6.852   2.114
 1205SOL    HW215270   4.996   6.759   2.206
 1206SOL     OW15271   1.496   4.375   6.136
 1206SOL    HW115272   1.412   4.394   6.186
 1206SOL    HW215273   1.551   4.458   6.130
 1207SOL     OW15274   3.940   0.780   2.994
 1207SOL    HW115275   3.854   0.786   3.046
 1207SOL    HW215276   3.920   0.781   2.896
 1208SOL     OW15277   9.819   9.832   4.977
 1208SOL    HW115278   9.787   9.739   4.996
 1208SOL    HW215279   9.915   9.840   5.006
 1209SOL     OW15280   0.191   3.418   6.336
 1209SOL    HW115281   0.217   3.514   6.333
 1209SOL    HW215282   0.098   3.408   6.300
 1210SOL     OW15283   2.736   1.971   5.205
 1210SOL    HW115284   2.655   1.918   5.179
 1210SOL    HW215285   2.716   2.069   5.197
 1211SOL     OW15286   7.431   7.103   2.748
 1211SOL    HW115287   7.453   7.006   2.741
 1211SOL    HW215288   7.468   7.139   2.834
 1212SOL     OW15289   1.294   0.800   2.781
 1212SOL    HW115290   1.296   0.833   2.876
 1212SOL    HW215291   1.362   0.851   2.727
 1213SOL     OW15292   7.296   5.418   2.220
 1213SOL    HW115293   7.258   5.353   2.154
 1213SOL    HW215294   7.354   5.484   2.173
 1214SOL     OW15295   6.776   8.485   3.258
 1214SOL    HW115296   6.844   8.440   3.200
 1214SOL    HW215297   6.684   8.463   3.226
 1215SOL     OW15298   5.527   9.081   4.762
 1215SOL    HW115299   5.567   9.049   4.848
 1215SOL    HW215300   5.556   9.176   4.745
 1216SOL     OW15301   4.528   0.202   5.866
 1216SOL    HW115302   4.473   0.282   5.889
 1216SOL    HW215303   4.485   0.152   5.791
 1217SOL     OW15304   4.077   0.472   3.789
 1217SOL    HW115305   4.086   0.376   3.818
 1217SOL    HW215306   4.032   0.475   3.700
 1218SOL     OW15307   0.316   3.201   6.228
 1218SOL    HW115308   0.377   3.156   6.293
 1218SOL    HW215309   0.275   3.281   6.272
 1219SOL     OW15310   9.985   9.026   7.371
 1219SOL    HW115311   0.026   9.099   7.424
 1219SOL    HW215312   0.002   9.041   7.273
 1220SOL     OW15313   4.945   6.404   0.333
 1220SOL    HW115314   4.857   6.385   0.291
 1220SOL    HW215315   4.948   6.499   0.364
 1221SOL     OW15316   2.636   3.335   3.475
 1221SOL    HW115317   2.542   3.368   3.462
 1221SOL    HW215318   2.672   3.300   3.388
 1222SOL     OW15319   9.615   4.076   6.874
 1222SOL    HW115320   9.680   4.138   6.831
 1222SOL    HW215321   9.663   4.013   6.935
 1223SOL     OW15322   0.086   6.273   1.743
 1223SOL    HW115323   0.027   6.303   1.818
 1223SOL    HW215324   0.045   6.192   1.700
 1224SOL     OW15325   0.103   6.237   7.334
 1224SOL    HW115326   0.067   6.291   7.257
 1224SOL    HW215327   0.027   6.200   7.387
 1225SOL     OW15328   7.678   6.207   1.133
 1225SOL    HW115329   7.766   6.232   1.173
 1225SOL    HW215330   7.689   6.193   1.034
 1226SOL     OW15331   2.988   8.667   5.372
 1226SOL    HW115332   3.067   8.648   5.315
 1226SOL    HW215333   2.910   8.611   5.342
 1227SOL     OW15334   7.626   8.359   3.688
 1227SOL    HW115335   7.698   8.361   3.619
 1227SOL    HW215336   7.537   8.366   3.643
 1228SOL     OW15337   5.970   8.172   4.984
 1228SOL    HW115338   5.919   8.250   5.018
 1228SOL    HW215339   5.937   8.149   4.892
 1229SOL     OW15340   7.103   1.715   3.601
 1229SOL    HW115341   7.034   1.689   3.534
 1229SOL    HW215342   7.062   1.712   3.693
 1230SOL     OW15343   8.685   8.880   0.332
 1230SOL    HW115344   8.587   8.864   0.333
 1230SOL    HW215345   8.709   8.939   0.254
 1231SOL     OW15346   5.347   3.934   7.931
 1231SOL    HW115347   5.361   3.892   7.842
 1231SOL    HW215348   5.345   3.863   8.002
 1232SOL     OW15349   3.174   0.761   1.980
 1232SOL    HW115350   3.152   0.711   2.064
 1232SOL    HW215351   3.192   0.857   2.002
 1233SOL     OW15352   6.571   0.081   3.488
 1233SOL    HW115353   6.572   0.145   3.565
 1233SOL    HW215354   6.664   0.045   3.473
 1234SOL     OW15355   2.132   3.618   0.373
 1234SOL    HW115356   2.150   3.618   0.472
 1234SOL    HW215357   2.070   3.543   0.350
 1235SOL     OW15358   4.563   2.757   1.864
 1235SOL    HW115359   4.592   2.756   1.769
 1235SOL    HW215360   4.482   2.814   1.874
 1236SOL     OW15361   8.926   6.949   1.085
 1236SOL    HW115362   8.827   6.953   1.095
 1236SOL    HW215363   8.967   7.035   1.115
 1237SOL     OW15364   9.984   9.998   1.603
 1237SOL    HW115365   9.890   0.033   1.597
 1237SOL    HW215366   0.031   0.041   1.679
 1238SOL     OW15367   7.694   9.399   5.065
 1238SOL    HW115368   7.639   9.455   5.127
 1238SOL    HW215369   7.635   9.334   5.018
 1239SOL     OW15370   0.684   6.326   7.290
 1239SOL    HW115371   0.736   6.312   7.374
 1239SOL    HW215372   0.624   6.406   7.301
 1240SOL     OW15373   2.125   7.219   4.595
 1240SOL    HW115374   2.031   7.189   4.581
 1240SOL    HW215375   2.184   7.139   4.609
 1241SOL     OW15376   1.211   9.034   1.472
 1241SOL    HW115377   1.151   8.983   1.535
 1241SOL    HW215378   1.238   8.974   1.396
 1242SOL     OW15379   6.984   2.612   4.186
 1242SOL    HW115380   7.045   2.573   4.255
 1242SOL    HW215381   7.034   2.681   4.134
 1243SOL     OW15382   1.155   7.673   0.394
 1243SOL    HW115383   1.107   7.617   0.325
 1243SOL    HW215384   1.254   7.667   0.379
 1244SOL     OW15385   3.336   5.431   0.235
 1244SOL    HW115386   3.406   5.489   0.192
 1244SOL    HW215387   3.367   5.335   0.233
 1245SOL     OW15388   4.145   5.954   1.236
 1245SOL    HW115389   4.176   5.878   1.292
 1245SOL    HW215390   4.070   6.001   1.282
 1246SOL     OW15391   4.186   0.849   1.004
 1246SOL    HW115392   4.178   0.808   1.095
 1246SOL    HW215393   4.279   0.836   0.971
 1247SOL     OW15394   2.003   9.729   2.355
 1247SOL    HW115395   1.983   9.661   2.426
 1247SOL    HW215396   2.071   9.692   2.292
 1248SOL     OW15397   9.811   9.439   6.126
 1248SOL    HW115398   9.763   9.470   6.044
 1248SOL    HW215399   9.909   9.457   6.115
 1249SOL     OW15400   0.879   4.954   4.808
 1249SOL    HW115401   0.935   5.003   4.741
 1249SOL    HW215402   0.887   4.856   4.793
 1250SOL     OW15403   8.788   5.094   0.818
 1250SOL    HW115404   8.800   5.145   0.734
 1250SOL    HW215405   8.703   5.123   0.863
 1251SOL     OW15406   7.521   0.779   5.259
 1251SOL    HW115407   7.533   0.878   5.265
 1251SOL    HW215408   7.606   0.734   5.284
 1252SOL     OW15409   9.307   3.648   1.165
 1252SOL    HW115410   9.254   3.724   1.127
 1252SOL    HW215411   9.395   3.641   1.116
 1253SOL     OW15412   7.408   0.982   0.331
 1253SOL    HW115413   7.380   0.943   0.418
 1253SOL    HW215414   7.503   0.956   0.312
 1254SOL     OW15415   8.068   4.571   5.752
 1254SOL    HW115416   8.015   4.532   5.677
 1254SOL    HW215417   8.035   4.533   5.839
 1255SOL     OW15418   3.869   8.500   1.985
 1255SOL    HW115419   3.815   8.477   1.905
 1255SOL    HW215420   3.829   8.579   2.031
 1256SOL     OW15421   4.558   3.576   5.328
 1256SOL    HW115422   4.605   3.545   5.245
 1256SOL    HW215423   4.504   3.657   5.307
 1257SOL     OW15424   8.917   0.618   0.907
 1257SOL    HW115425   8.906   0.521   0.931
 1257SOL    HW215426   8.932   0.626   0.809
 1258SOL     OW15427   8.209   5.276   7.819
 1258SOL    HW115428   8.218   5.217   7.899
 1258SOL    HW215429   8.170   5.224   7.743
 1259SOL     OW15430   9.477   1.248   3.623
 1259SOL    HW115431   9.387   1.236   3.666
 1259SOL    HW215432   9.527   1.162   3.626
 1260SOL     OW15433   0.970   3.719   2.342
 1260SOL    HW115434   0.974   3.796   2.405
 1260SOL    HW215435   1.052   3.717   2.285
 1261SOL     OW15436   1.268   6.405   5.159
 1261SOL    HW115437   1.218   6.472   5.103
 1261SOL    HW215438   1.293   6.328   5.101
 1262SOL     OW15439   2.520   9.189   6.692
 1262SOL    HW115440   2.546   9.286   6.690
 1262SOL    HW215441   2.583   9.139   6.751
 1263SOL     OW15442   2.955   4.029   2.580
 1263SOL    HW115443   3.045   4.053   2.544
 1263SOL    HW215444   2.889   4.025   2.504
 1264SOL     OW15445   7.299   8.553   5.538
 1264SOL    HW115446   7.313   8.652   5.529
 1264SOL    HW215447   7.209   8.529   5.503
 1265SOL     OW15448   0.027   4.426   1.938
 1265SOL    HW115449   0.014   4.506   1.997
 1265SOL    HW215450   9.982   4.442   1.850
 1266SOL     OW15451   1.963   2.200   7.432
 1266SOL    HW115452   1.906   2.249   7.366
 1266SOL    HW215453   1.914   2.119   7.464
 1267SOL     OW15454   5.528   1.231   4.119
 1267SOL    HW115455   5.429   1.230   4.134
 1267SOL    HW215456   5.568   1.311   4.163
 1268SOL     OW15457   6.448   7.345   5.188
 1268SOL    HW115458   6.457   7.311   5.281
 1268SOL    HW215459   6.509   7.294   5.127
 1269SOL     OW15460   7.789   6.283   5.854
 1269SOL    HW115461   7.856   6.274   5.928
 1269SOL    HW215462   7.736   6.199   5.847
 1270SOL     OW15463   6.015   1.072   0.965
 1270SOL    HW115464   5.974   1.160   0.941
 1270SOL    HW215465   6.047   1.027   0.882
 1271SOL     OW15466   7.822   3.853   2.095
 1271SOL    HW115467   7.826   3.949   2.124
 1271SOL    HW215468   7.827   3.848   1.995
 1272SOL     OW15469   4.161   4.647   7.162
 1272SOL    HW115470   4.132   4.577   7.097
 1272SOL    HW215471   4.092   4.657   7.233
 1273SOL     OW15472   5.741   3.878   1.306
 1273SOL    HW115473   5.831   3.835   1.310
 1273SOL    HW215474   5.670   3.808   1.315
 1274SOL     OW15475   2.131   3.550   1.260
 1274SOL    HW115476   2.068   3.535   1.183
 1274SOL    HW215477   2.199   3.477   1.262
 1275SOL     OW15478   8.620   9.905   4.552
 1275SOL    HW115479   8.553   9.862   4.492
 1275SOL    HW215480   8.599   9.883   4.647
 1276SOL     OW15481   8.006   1.231   7.221
 1276SOL    HW115482   7.909   1.215   7.202
 1276SOL    HW215483   8.017   1.260   7.316
 1277SOL     OW15484   0.607   3.353   6.872
 1277SOL    HW115485   0.549   3.336   6.951
 1277SOL    HW215486   0.578   3.437   6.826
 1278SOL     OW15487   8.508   3.506   5.691
 1278SOL    HW115488   8.560   3.559   5.757
 1278SOL    HW215489   8.571   3.458   5.630
 1279SOL     OW15490   1.658   6.401   4.447
 1279SOL    HW115491   1.686   6.307   4.428
 1279SOL    HW215492   1.608   6.405   4.533
 1280SOL     OW15493   3.345   8.257   1.020
 1280SOL    HW115494   3.307   8.165   1.020
 1280SOL    HW215495   3.336   8.297   0.929
 1281SOL     OW15496   1.154   1.740   1.337
 1281SOL    HW115497   1.101   1.758   1.254
 1281SOL    HW215498   1.102   1.771   1.417
 1282SOL     OW15499   6.981   6.475   2.999
 1282SOL    HW115500   6.938   6.420   2.928
 1282SOL    HW215501   7.045   6.418   3.051
 1283SOL     OW15502   4.782   5.698   0.233
 1283SOL    HW115503   4.692   5.686   0.191
 1283SOL    HW215504   4.810   5.613   0.277
 1284SOL     OW15505   2.328   0.275   2.652
 1284SOL    HW115506   2.419   0.241   2.630
 1284SOL    HW215507   2.293   0.225   2.732
 1285SOL     OW15508   3.473   3.792   0.577
 1285SOL    HW115509   3.478   3.692   0.581
 1285SOL    HW215510   3.556   3.830   0.618
 1286SOL     OW15511   9.749   0.538   0.606
 1286SOL    HW115512   9.758   0.553   0.508
 1286SOL    HW215513   9.831   0.571   0.653
 1287SOL     OW15514   9.733   4.290   1.351
 1287SOL    HW115515   9.650   4.337   1.321
 1287SOL    HW215516   9.739   4.293   1.451
 1288SOL     OW15517   6.273   8.645   5.960
 1288SOL    HW115518   6.225   8.604   6.037
 1288SOL    HW215519   6.314   8.732   5.988
 1289SOL     OW15520   7.570   0.064   7.236
 1289SOL    HW115521   7.473   0.045   7.252
 1289SOL    HW215522   7.586   0.162   7.243
 1290SOL     OW15523   4.726   3.187   1.002
 1290SOL    HW115524   4.759   3.143   0.918
 1290SOL    HW215525   4.803   3.230   1.050
 1291SOL     OW15526   8.451   5.157   3.546
 1291SOL    HW115527   8.494   5.245   3.564
 1291SOL    HW215528   8.520   5.085   3.546
 1292SOL     OW15529   1.604   6.159   0.366
 1292SOL    HW115530   1.532   6.107   0.411
 1292SOL    HW215531   1.654   6.100   0.303
 1293SOL     OW15532   0.591   3.038   1.649
 1293SOL    HW115533   0.567   3.096   1.727
 1293SOL    HW215534   0.676   3.071   1.609
 1294SOL     OW15535   6.288   9.759   2.271
 1294SOL    HW115536   6.356   9.698   2.230
 1294SOL    HW215537   6.332   9.814   2.342
 1295SOL     OW15538   9.517   1.670   2.851
 1295SOL    HW115539   9.430   1.659   2.802
 1295SOL    HW215540   9.563   1.581   2.856
 1296SOL     OW15541   8.272   9.609   1.496
 1296SOL    HW115542   8.278   9.534   1.562
 1296SOL    HW215543   8.277   9.573   1.403
 1297SOL     OW15544   8.740   3.682   6.752
 1297SOL    HW115545   8.784   3.765   6.718
 1297SOL    HW215546   8.790   3.649   6.832
 1298SOL     OW15547   5.304   5.702   0.476
 1298SOL    HW115548   5.368   5.658   0.413
 1298SOL    HW215549   5.327   5.676   0.570
 1299SOL     OW15550   4.635   2.548   6.212
 1299SOL    HW115551   4.705   2.486   6.248
 1299SOL    HW215552   4.552   2.540   6.267
 1300SOL     OW15553   7.672   4.709   7.785
 1300SOL    HW115554   7.762   4.725   7.825
 1300SOL    HW215555   7.637   4.620   7.816
 1301SOL     OW15556   0.749   6.579   0.262
 1301SOL    HW115557   0.733   6.670   0.300
 1301SOL    HW215558   0.669   6.522   0.276
 1302SOL     OW15559   7.357   7.405   6.880
 1302SOL    HW115560   7.268   7.447   6.899
 1302SOL    HW215561   7.390   7.358   6.962
 1303SOL     OW15562   4.023   9.429   2.613
 1303SOL    HW115563   4.071   9.444   2.527
 1303SOL    HW215564   4.087   9.396   2.682
 1304SOL     OW15565   7.510   7.719   6.370
 1304SOL    HW115566   7.486   7.703   6.274
 1304SOL    HW215567   7.435   7.765   6.416
 1305SOL     OW15568   4.840   5.796   0.691
 1305SOL    HW115569   4.747   5.779   0.723
 1305SOL    HW215570   4.902   5.728   0.730
 1306SOL     OW15571   2.438   1.397   2.866
 1306SOL    HW115572   2.424   1.302   2.894
 1306SOL    HW215573   2.403   1.410   2.773
 1307SOL     OW15574   3.172   9.116   3.258
 1307SOL    HW115575   3.104   9.079   3.195
 1307SOL    HW215576   3.262   9.116   3.214
 1308SOL     OW15577   5.097   3.177   7.673
 1308SOL    HW115578   5.105   3.079   7.686
 1308SOL    HW215579   5.052   3.196   7.586
 1309SOL     OW15580   3.504   0.673   2.829
 1309SOL    HW115581   3.409   0.642   2.818
 1309SOL    HW215582   3.549   0.618   2.899
 1310SOL     OW15583   7.243   7.501   3.431
 1310SOL    HW115584   7.273   7.575   3.491
 1310SOL    HW215585   7.321   7.469   3.377
 1311SOL     OW15586   6.765   8.118   2.611
 1311SOL    HW115587   6.824   8.119   2.530
 1311SOL    HW215588   6.820   8.104   2.693
 1312SOL     OW15589   4.882   2.017   0.807
 1312SOL    HW115590   4.833   1.980   0.728
 1312SOL    HW215591   4.859   1.964   0.888
 1313SOL     OW15592   2.822   5.729   1.545
 1313SOL    HW115593   2.734   5.776   1.547
 1313SOL    HW215594   2.858   5.729   1.452
 1314SOL     OW15595   1.956   6.231   7.799
 1314SOL    HW115596   1.925   6.183   7.718
 1314SOL    HW215597   2.052   6.256   7.788
 1315SOL     OW15598   3.527   2.760   7.144
 1315SOL    HW115599   3.474   2.802   7.218
 1315SOL    HW215600   3.624   2.782   7.157
 1316SOL     OW15601   0.863   5.454   5.846
 1316SOL    HW115602   0.798   5.508   5.899
 1316SOL    HW215603   0.949   5.504   5.836
 1317SOL     OW15604   0.071   0.710   3.272
 1317SOL    HW115605   0.139   0.773   3.310
 1317SOL    HW215606   9.979   0.747   3.284
 1318SOL     OW15607   1.705   6.130   4.386
 1318SOL    HW115608   1.727   6.035   4.408
 1318SOL    HW215609   1.613   6.135   4.349
 1319SOL     OW15610   1.594   7.445   6.317
 1319SOL    HW115611   1.592   7.511   6.242
 1319SOL    HW215612   1.500   7.415   6.338
 1320SOL     OW15613   9.771   7.745   0.818
 1320SOL    HW115614   9.793   7.647   0.822
 1320SOL    HW215615   9.838   7.796   0.872
 1321SOL     OW15616   9.355   9.582   3.975
 1321SOL    HW115617   9.263   9.595   4.014
 1321SOL    HW215618   9.395   9.671   3.956
 1322SOL     OW15619   9.767   6.891   7.534
 1322SOL    HW115620   9.715   6.834   7.598
 1322SOL    HW215621   9.861   6.899   7.566
 1323SOL     OW15622   7.588   6.201   4.249
 1323SOL    HW115623   7.498   6.241   4.263
 1323SOL    HW215624   7.620   6.160   4.335
 1324SOL     OW15625   7.821   1.079   0.141
 1324SOL    HW115626   7.846   1.176   0.141
 1324SOL    HW215627   7.900   1.025   0.111
 1325SOL     OW15628   7.680   9.815   4.341
 1325SOL    HW115629   7.747   9.883   4.313
 1325SOL    HW215630   7.720   9.723   4.335
 1326SOL     OW15631   8.583   0.885   4.305
 1326SOL    HW115632   8.615   0.866   4.213
 1326SOL    HW215633   8.650   0.940   4.354
 1327SOL     OW15634   2.573   7.480   6.760
 1327SOL    HW115635   2.475   7.470   6.782
 1327SOL    HW215636   2.621   7.397   6.790
 1328SOL     OW15637   7.916   3.400   4.965
 1328SOL    HW115638   7.972   3.318   4.977
 1328SOL    HW215639   7.829   3.375   4.923
 1329SOL     OW15640   1.456   9.820   5.165
 1329SOL    HW115641   1.434   9.791   5.258
 1329SOL    HW215642   1.526   9.761   5.126
 1330SOL     OW15643   9.439   2.588   3.174
 1330SOL    HW115644   9.454   2.668   3.232
 1330SOL    HW215645   9.343   2.560   3.180
 1331SOL     OW15646   1.103   7.783   5.836
 1331SOL    HW115647   1.043   7.862   5.840
 1331SOL    HW215648   1.048   7.699   5.840
 1332SOL     OW15649   4.286   9.983   0.609
 1332SOL    HW115650   4.353   9.949   0.543
 1332SOL    HW215651   4.230   9.906   0.641
 1333SOL     OW15652   8.190   8.729   2.635
 1333SOL    HW115653   8.146   8.713   2.723
 1333SOL    HW215654   8.226   8.643   2.599
 1334SOL     OW15655   0.257   5.915   1.521
 1334SOL    HW115656   0.178   5.874   1.474
 1334SOL    HW215657   0.330   5.932   1.455
 1335SOL     OW15658   3.350   9.981   1.544
 1335SOL    HW115659   3.321   0.013   1.634
 1335SOL    HW215660   3.429   9.921   1.554
 1336SOL     OW15661   8.874   3.118   1.410
 1336SOL    HW115662   8.778   3.137   1.387
 1336SOL    HW215663   8.923   3.089   1.328
 1337SOL     OW15664   3.537   2.547   3.340
 1337SOL    HW115665   3.565   2.639   3.311
 1337SOL    HW215666   3.572   2.479   3.275
 1338SOL     OW15667   1.265   6.894   2.901
 1338SOL    HW115668   1.183   6.842   2.926
 1338SOL    HW215669   1.346   6.840   2.925
 1339SOL     OW15670   3.039   2.544   6.280
 1339SOL    HW115671   2.964   2.584   6.228
 1339SOL    HW215672   3.116   2.608   6.281
 1340SOL     OW15673   0.263   1.210   6.049
 1340SOL    HW115674   0.263   1.119   6.009
 1340SOL    HW215675   0.192   1.266   6.006
 1341SOL     OW15676   9.237   2.689   1.819
 1341SOL    HW115677   9.147   2.715   1.783
 1341SOL    HW215678   9.286   2.770   1.850
 1342SOL     OW15679   8.833   2.640   3.834
 1342SOL    HW115680   8.740   2.640   3.872
 1342SOL    HW215681   8.855   2.731   3.800
 1343SOL     OW15682   7.358   8.022   5.587
 1343SOL    HW115683   7.271   8.038   5.635
 1343SOL    HW215684   7.369   7.924   5.570
 1344SOL     OW15685   7.866   1.720   4.065
 1344SOL    HW115686   7.915   1.709   4.152
 1344SOL    HW215687   7.771   1.744   4.083
 1345SOL     OW15688   3.647   8.923   1.438
 1345SOL    HW115689   3.600   8.852   1.491
 1345SOL    HW215690   3.688   8.990   1.500
 1346SOL     OW15691   0.130   5.701   6.088
 1346SOL    HW115692   0.219   5.744   6.101
 1346SOL    HW215693   0.134   5.605   6.118
 1347SOL     OW15694   4.734   2.088   5.591
 1347SOL    HW115695   4.788   2.067   5.672
 1347SOL    HW215696   4.703   2.183   5.594
 1348SOL     OW15697   3.820   4.763   4.202
 1348SOL    HW115698   3.763   4.799   4.276
 1348SOL    HW215699   3.805   4.664   4.194
 1349SOL     OW15700   3.229   5.279   7.777
 1349SOL    HW115701   3.277   5.212   7.720
 1349SOL    HW215702   3.130   5.264   7.768
 1350SOL     OW15703   1.401   2.393   5.413
 1350SOL    HW115704   1.447   2.455   5.350
 1350SOL    HW215705   1.343   2.446   5.475
 1351SOL     OW15706   1.090   7.085   6.292
 1351SOL    HW115707   1.148   7.004   6.289
 1351SOL    HW215708   1.066   7.105   6.387
 1352SOL     OW15709   6.514   8.981   2.406
 1352SOL    HW115710   6.550   8.939   2.490
 1352SOL    HW215711   6.450   8.918   2.362
 1353SOL     OW15712   0.038   8.318   2.854
 1353SOL    HW115713   9.954   8.265   2.846
 1353SOL    HW215714   0.034   8.397   2.793
 1354SOL     OW15715   3.152   2.794   7.769
 1354SOL    HW115716   3.073   2.796   7.830
 1354SOL    HW215717   3.208   2.714   7.789
 1355SOL     OW15718   9.958   1.512   5.723
 1355SOL    HW115719   9.871   1.550   5.753
 1355SOL    HW215720   0.013   1.585   5.681
 1356SOL     OW15721   2.999   7.617   3.744
 1356SOL    HW115722   3.081   7.661   3.707
 1356SOL    HW215723   3.019   7.522   3.768
 1357SOL     OW15724   0.975   5.799   7.687
 1357SOL    HW115725   1.059   5.846   7.661
 1357SOL    HW215726   0.900   5.829   7.627
 1358SOL     OW15727   2.538   3.076   0.277
 1358SOL    HW115728   2.556   2.977   0.273
 1358SOL    HW215729   2.622   3.126   0.257
 1359SOL     OW15730   7.984   2.199   7.447
 1359SOL    HW115731   7.943   2.176   7.359
 1359SOL    HW215732   8.027   2.289   7.442
 1360SOL     OW15733   7.713   7.567   2.809
 1360SOL    HW115734   7.748   7.652   2.850
 1360SOL    HW215735   7.630   7.587   2.757
 1361SOL     OW15736   9.267   1.327   6.108
 1361SOL    HW115737   9.235   1.277   6.027
 1361SOL    HW215738   9.285   1.422   6.083
 1362SOL     OW15739   9.402   6.789   5.810
 1362SOL    HW115740   9.376   6.884   5.823
 1362SOL    HW215741   9.325   6.730   5.833
 1363SOL     OW15742   2.659   8.849   5.563
 1363SOL    HW115743   2.716   8.926   5.536
 1363SOL    HW215744   2.708   8.792   5.629
 1364SOL     OW15745   8.440   9.940   5.723
 1364SOL    HW115746   8.484   9.850   5.722
 1364SOL    HW215747   8.506   0.009   5.755
 1365SOL     OW15748   0.453   2.373   1.059
 1365SOL    HW115749   0.529   2.395   0.997
 1365SOL    HW215750   0.368   2.411   1.023
 1366SOL     OW15751   9.744   6.564   0.251
 1366SOL    HW115752   9.737   6.530   0.158
 1366SOL    HW215753   9.653   6.581   0.288
 1367SOL     OW15754   3.622   3.651   1.070
 1367SOL    HW115755   3.659   3.598   1.146
 1367SOL    HW215756   3.533   3.688   1.095
 1368SOL     OW15757   1.391   8.149   7.763
 1368SOL    HW115758   1.350   8.240   7.748
 1368SOL    HW215759   1.342   8.102   7.836
 1369SOL     OW15760   0.183   3.307   6.934
 1369SOL    HW115761   0.201   3.209   6.923
 1369SOL    HW215762   0.142   3.343   6.850
 1370SOL     OW15763   0.388   8.409   1.910
 1370SOL    HW115764   0.468   8.430   1.855
 1370SOL    HW215765   0.344   8.326   1.875
 1371SOL     OW15766   5.960   0.905   6.978
 1371SOL    HW115767   6.008   0.818   6.967
 1371SOL    HW215768   6.023   0.981   6.963
 1372SOL     OW15769   0.414   4.281   4.519
 1372SOL    HW115770   0.372   4.288   4.428
 1372SOL    HW215771   0.397   4.190   4.557
 1373SOL     OW15772   9.818   0.560   2.788
 1373SOL    HW115773   9.888   0.546   2.718
 1373SOL    HW215774   9.855   0.621   2.859
 1374SOL     OW15775   6.465   2.354   4.954
 1374SOL    HW115776   6.555   2.331   4.919
 1374SOL    HW215777   6.468   2.445   4.996
 1375SOL     OW15778   2.897   9.174   1.599
 1375SOL    HW115779   2.881   9.173   1.698
 1375SOL    HW215780   2.921   9.267   1.571
 1376SOL     OW15781   2.023   1.496   7.945
 1376SOL    HW115782   1.928   1.525   7.931
 1376SOL    HW215783   2.080   1.577   7.959
 1377SOL     OW15784   9.813   4.638   5.289
 1377SOL    HW115785   9.776   4.583   5.363
 1377SOL    HW215786   9.825   4.581   5.208
 1378SOL     OW15787   3.385   1.300   4.105
 1378SOL    HW115788   3.434   1.234   4.048
 1378SOL    HW215789   3.343   1.252   4.182
 1379SOL     OW15790   6.608   3.442   1.980
 1379SOL    HW115791   6.700   3.480   1.988
 1379SOL    HW215792   6.582   3.399   2.066
 1380SOL     OW15793   5.628   0.765   3.860
 1380SOL    HW115794   5.717   0.807   3.841
 1380SOL    HW215795   5.556   0.815   3.811
 1381SOL     OW15796   1.435   9.236   7.162
 1381SOL    HW115797   1.517   9.179   7.167
 1381SOL    HW215798   1.368   9.203   7.228
 1382SOL     OW15799   9.478   8.511   6.040
 1382SOL    HW115800   9.414   8.433   6.039
 1382SOL    HW215801   9.487   8.545   6.134
 1383SOL     OW15802   1.694   2.228   0.217
 1383SOL    HW115803   1.730   2.318   0.241
 1383SOL    HW215804   1.757   2.157   0.249
 1384SOL     OW15805   1.893   3.471   4.839
 1384SOL    HW115806   1.962   3.507   4.776
 1384SOL    HW215807   1.933   3.462   4.931
 1385SOL     OW15808   8.649   4.680   5.319
 1385SOL    HW115809   8.616   4.594   5.359
 1385SOL    HW215810   8.577   4.749   5.323
 1386SOL     OW15811   3.235   7.953   3.003
 1386SOL    HW115812   3.219   7.919   2.910
 1386SOL    HW215813   3.315   7.908   3.042
 1387SOL     OW15814   8.191   0.273   3.189
 1387SOL    HW115815   8.120   0.327   3.143
 1387SOL    HW215816   8.233   0.329   3.261
 1388SOL     OW15817   8.462   1.761   1.669
 1388SOL    HW115818   8.452   1.820   1.589
 1388SOL    HW215819   8.376   1.714   1.687
 1389SOL     OW15820   2.890   8.732   7.939
 1389SOL    HW115821   2.974   8.785   7.954
 1389SOL    HW215822   2.834   8.777   7.870
 1390SOL     OW15823   7.966   1.641   0.505
 1390SOL    HW115824   7.896   1.598   0.562
 1390SOL    HW215825   7.939   1.636   0.409
 1391SOL     OW15826   8.796   1.647   1.170
 1391SOL    HW115827   8.861   1.699   1.115
 1391SOL    HW215828   8.835   1.557   1.191
 1392SOL     OW15829   1.321   0.588   0.390
 1392SOL    HW115830   1.358   0.653   0.458
 1392SOL    HW215831   1.374   0.503   0.394
 1393SOL     OW15832   3.111   2.632   1.378
 1393SOL    HW115833   3.133   2.537   1.400
 1393SOL    HW215834   3.139   2.691   1.454
 1394SOL     OW15835   3.083   5.932   6.031
 1394SOL    HW115836   3.104   6.027   6.010
 1394SOL    HW215837   3.032   5.891   5.956
 1395SOL     OW15838   4.624   9.665   6.882
 1395SOL    HW115839   4.704   9.672   6.821
 1395SOL    HW215840   4.653   9.628   6.970
 1396SOL     OW15841   0.986   8.026   3.752
 1396SOL    HW115842   1.045   7.979   3.687
 1396SOL    HW215843   0.981   7.973   3.837
 1397SOL     OW15844   9.147   1.072   0.243
 1397SOL    HW115845   9.079   1.042   0.310
 1397SOL    HW215846   9.237   1.074   0.287
 1398SOL     OW15847   2.058   0.997   5.762
 1398SOL    HW115848   2.129   0.937   5.726
 1398SOL    HW215849   1.976   0.989   5.706
 1399SOL     OW15850   5.469   8.727   4.399
 1399SOL    HW115851   5.507   8.662   4.465
 1399SOL    HW215852   5.474   8.820   4.437
 1400SOL     OW15853   5.577   4.269   1.465
 1400SOL    HW115854   5.481   4.262   1.438
 1400SOL    HW215855   5.612   4.360   1.442
 1401SOL     OW15856   9.812   2.233   6.110
 1401SOL    HW115857   9.857   2.320   6.090
 1401SOL    HW215858   9.880   2.160   6.109
 1402SOL     OW15859   3.353   1.744   5.734
 1402SOL    HW115860   3.287   1.758   5.808
 1402SOL    HW215861   3.395   1.831   5.710
 1403SOL     OW15862   5.953   0.815   4.990
 1403SOL    HW115863   5.860   0.834   5.022
 1403SOL    HW215864   5.964   0.851   4.897
 1404SOL     OW15865   6.762   4.272   1.299
 1404SOL    HW115866   6.861   4.263   1.297
 1404SOL    HW215867   6.720   4.187   1.269
 1405SOL     OW15868   4.480   6.837   2.783
 1405SOL    HW115869   4.532   6.841   2.698
 1405SOL    HW215870   4.541   6.858   2.860
 1406SOL     OW15871   3.931   1.156   0.161
 1406SOL    HW115872   3.964   1.140   0.068
 1406SOL    HW215873   3.831   1.161   0.160
 1407SOL     OW15874   8.671   7.802   6.936
 1407SOL    HW115875   8.752   7.856   6.914
 1407SOL    HW215876   8.673   7.716   6.884
 1408SOL     OW15877   8.648   4.965   6.177
 1408SOL    HW115878   8.616   4.870   6.172
 1408SOL    HW215879   8.732   4.975   6.124
 1409SOL     OW15880   1.060   8.212   4.772
 1409SOL    HW115881   0.987   8.274   4.742
 1409SOL    HW215882   1.114   8.256   4.844
 1410SOL     OW15883   6.871   7.793   6.838
 1410SOL    HW115884   6.857   7.724   6.909
 1410SOL    HW215885   6.923   7.754   6.763
 1411SOL     OW15886   3.379   9.396   5.464
 1411SOL    HW115887   3.382   9.496   5.473
 1411SOL    HW215888   3.458   9.356   5.510
 1412SOL     OW15889   6.153   1.101   2.948
 1412SOL    HW115890   6.092   1.044   3.003
 1412SOL    HW215891   6.140   1.080   2.851
 1413SOL     OW15892   8.708   2.780   3.272
 1413SOL    HW115893   8.737   2.707   3.210
 1413SOL    HW215894   8.613   2.805   3.252
 1414SOL     OW15895   3.610   5.558   7.057
 1414SOL    HW115896   3.588   5.504   7.138
 1414SOL    HW215897   3.705   5.541   7.030
 1415SOL     OW15898   0.242   0.957   5.934
 1415SOL    HW115899   0.222   1.003   5.847
 1415SOL    HW215900   0.262   0.861   5.917
 1416SOL     OW15901   4.229   1.994   7.052
 1416SOL    HW115902   4.160   2.066   7.036
 1416SOL    HW215903   4.305   2.006   6.988
 1417SOL     OW15904   7.642   8.061   4.626
 1417SOL    HW115905   7.612   7.972   4.592
 1417SOL    HW215906   7.712   8.098   4.565
 1418SOL     OW15907   9.634   7.380   6.990
 1418SOL    HW115908   9.635   7.353   6.894
 1418SOL    HW215909   9.669   7.305   7.046
 1419SOL     OW15910   7.010   8.614   7.757
 1419SOL    HW115911   6.985   8.633   7.662
 1419SOL    HW215912   7.097   8.658   7.778
 1420SOL     OW15913   2.371   9.506   3.728
 1420SOL    HW115914   2.462   9.525   3.766
 1420SOL    HW215915   2.344   9.581   3.668
 1421SOL     OW15916   0.925   4.941   6.628
 1421SOL    HW115917   0.978   4.929   6.544
 1421SOL    HW215918   0.971   4.893   6.703
 1422SOL     OW15919   9.888   8.859   4.050
 1422SOL    HW115920   9.815   8.926   4.044
 1422SOL    HW215921   9.875   8.789   3.980
 1423SOL     OW15922   4.868   1.647   7.307
 1423SOL    HW115923   4.894   1.595   7.226
 1423SOL    HW215924   4.804   1.593   7.362
 1424SOL     OW15925   8.734   8.568   5.343
 1424SOL    HW115926   8.692   8.538   5.258
 1424SOL    HW215927   8.787   8.493   5.383
 1425SOL     OW15928   1.299   1.729   3.692
 1425SOL    HW115929   1.397   1.725   3.676
 1425SOL    HW215930   1.263   1.637   3.706
 1426SOL     OW15931   0.772   5.736   6.517
 1426SOL    HW115932   0.750   5.679   6.438
 1426SOL    HW215933   0.697   5.731   6.584
 1427SOL     OW15934   2.047   3.221   0.521
 1427SOL    HW115935   2.092   3.144   0.477
 1427SOL    HW215936   2.115   3.274   0.572
 1428SOL     OW15937   2.291   3.531   5.174
 1428SOL    HW115938   2.362   3.602   5.172
 1428SOL    HW215939   2.321   3.453   5.118
 1429SOL     OW15940   9.080   1.925   3.700
 1429SOL    HW115941   9.059   1.829   3.687
 1429SOL    HW215942   9.007   1.969   3.752
 1430SOL     OW15943   4.001   1.311   1.390
 1430SOL    HW115944   3.927   1.310   1.458
 1430SOL    HW215945   4.040   1.219   1.383
 1431SOL     OW15946   8.215   8.504   6.390
 1431SOL    HW115947   8.190   8.593   6.352
 1431SOL    HW215948   8.227   8.438   6.316
 1432SOL     OW15949   3.283   4.015   1.224
 1432SOL    HW115950   3.312   4.062   1.141
 1432SOL    HW215951   3.183   4.019   1.231
 1433SOL     OW15952   7.470   7.402   5.440
 1433SOL    HW115953   7.378   7.410   5.404
 1433SOL    HW215954   7.470   7.337   5.517
 1434SOL     OW15955   1.372   4.978   2.869
 1434SOL    HW115956   1.374   4.926   2.783
 1434SOL    HW215957   1.339   5.071   2.851
 1435SOL     OW15958   1.606   2.170   4.914
 1435SOL    HW115959   1.671   2.233   4.957
 1435SOL    HW215960   1.563   2.113   4.984
 1436SOL     OW15961   2.895   7.269   6.240
 1436SOL    HW115962   2.894   7.278   6.340
 1436SOL    HW215963   2.802   7.261   6.206
 1437SOL     OW15964   2.580   7.522   2.434
 1437SOL    HW115965   2.482   7.510   2.452
 1437SOL    HW215966   2.630   7.515   2.520
 1438SOL     OW15967   4.633   6.295   3.308
 1438SOL    HW115968   4.658   6.391   3.315
 1438SOL    HW215969   4.645   6.250   3.397
 1439SOL     OW15970   1.382   7.969   4.260
 1439SOL    HW115971   1.313   7.921   4.206
 1439SOL    HW215972   1.422   7.905   4.327
 1440SOL     OW15973   7.239   4.242   7.784
 1440SOL    HW115974   7.316   4.248   7.720
 1440SOL    HW215975   7.210   4.335   7.810
 1441SOL     OW15976   4.997   6.646   0.146
 1441SOL    HW115977   5.083   6.598   0.129
 1441SOL    HW215978   4.988   6.665   0.243
 1442SOL     OW15979   4.267   9.852   1.565
 1442SOL    HW115980   4.216   9.883   1.485
 1442SOL    HW215981   4.256   9.919   1.639
 1443SOL     OW15982   4.823   8.072   1.804
 1443SOL    HW115983   4.763   8.132   1.751
 1443SOL    HW215984   4.853   7.995   1.747
 1444SOL     OW15985   0.261   6.338   7.529
 1444SOL    HW115986   0.207   6.298   7.455
 1444SOL    HW215987   0.308   6.420   7.495
 1445SOL     OW15988   2.181   0.342   6.269
 1445SOL    HW115989   2.236   0.417   6.232
 1445SOL    HW215990   2.122   0.376   6.342
 1446SOL     OW15991   4.525   5.518   0.279
 1446SOL    HW115992   4.471   5.593   0.318
 1446SOL    HW215993   4.558   5.459   0.353
 1447SOL     OW15994   2.815   6.684   2.430
 1447SOL    HW115995   2.811   6.666   2.332
 1447SOL    HW215996   2.874   6.763   2.447
 1448SOL     OW15997   7.526   5.511   2.972
 1448SOL    HW115998   7.535   5.484   3.067
 1448SOL    HW215999   7.604   5.478   2.920
 1449SOL     OW16000   8.348   3.117   0.955
 1449SOL    HW116001   8.395   3.187   0.901
 1449SOL    HW216002   8.284   3.067   0.896
 1450SOL     OW16003   2.530   5.393   4.835
 1450SOL    HW116004   2.458   5.363   4.898
 1450SOL    HW216005   2.605   5.433   4.887
 1451SOL     OW16006   2.409   8.554   7.057
 1451SOL    HW116007   2.394   8.474   6.999
 1451SOL    HW216008   2.321   8.598   7.075
 1452SOL     OW16009   4.629   4.212   1.563
 1452SOL    HW116010   4.531   4.199   1.551
 1452SOL    HW216011   4.675   4.123   1.559
 1453SOL     OW16012   2.978   6.433   0.564
 1453SOL    HW116013   2.964   6.517   0.512
 1453SOL    HW216014   2.987   6.455   0.661
 1454SOL     OW16015   0.572   4.566   3.201
 1454SOL    HW116016   0.587   4.479   3.154
 1454SOL    HW216017   0.536   4.633   3.136
 1455SOL     OW16018   6.990   2.483   1.471
 1455SOL    HW116019   6.981   2.409   1.404
 1455SOL    HW216020   7.060   2.458   1.539
 1456SOL     OW16021   2.514   0.764   7.233
 1456SOL    HW116022   2.533   0.667   7.220
 1456SOL    HW216023   2.600   0.816   7.233
 1457SOL     OW16024   7.731   7.832   0.916
 1457SOL    HW116025   7.675   7.914   0.927
 1457SOL    HW216026   7.787   7.818   0.998
 1458SOL     OW16027   7.286   1.116   7.493
 1458SOL    HW116028   7.203   1.061   7.505
 1458SOL    HW216029   7.365   1.064   7.526
 1459SOL     OW16030   3.123   5.071   0.958
 1459SOL    HW116031   3.158   4.978   0.968
 1459SOL    HW216032   3.038   5.081   1.010
 1460SOL     OW16033   9.688   8.352   3.205
 1460SOL    HW116034   9.724   8.273   3.156
 1460SOL    HW216035   9.609   8.389   3.156
 1461SOL     OW16036   5.415   9.234   3.493
 1461SOL    HW116037   5.369   9.171   3.430
 1461SOL    HW216038   5.486   9.285   3.445
 1462SOL     OW16039   7.044   0.629   7.305
 1462SOL    HW116040   7.095   0.712   7.282
 1462SOL    HW216041   7.079   0.590   7.390
 1463SOL     OW16042   6.116   7.965   5.283
 1463SOL    HW116043   6.021   7.994   5.266
 1463SOL    HW216044   6.152   8.015   5.361
 1464SOL     OW16045   9.982   6.903   7.711
 1464SOL    HW116046   0.023   6.990   7.738
 1464SOL    HW216047   9.940   6.860   7.791
 1465SOL     OW16048   9.078   9.134   2.187
 1465SOL    HW116049   9.069   9.076   2.269
 1465SOL    HW216050   9.053   9.228   2.210
 1466SOL     OW16051   0.379   9.549   7.569
 1466SOL    HW116052   0.333   9.610   7.504
 1466SOL    HW216053   0.476   9.573   7.574
 1467SOL     OW16054   9.398   4.633   6.404
 1467SOL    HW116055   9.305   4.656   6.373
 1467SOL    HW216056   9.461   4.639   6.327
 1468SOL     OW16057   9.097   8.481   1.649
 1468SOL    HW116058   9.180   8.465   1.703
 1468SOL    HW216059   9.052   8.394   1.629
 1469SOL     OW16060   4.626   5.260   4.180
 1469SOL    HW116061   4.572   5.273   4.097
 1469SOL    HW216062   4.631   5.162   4.202
 1470SOL     OW16063   9.535   5.303   6.836
 1470SOL    HW116064   9.563   5.296   6.932
 1470SOL    HW216065   9.520   5.211   6.799
 1471SOL     OW16066   7.898   0.129   3.269
 1471SOL    HW116067   7.806   0.159   3.295
 1471SOL    HW216068   7.922   0.169   3.180
 1472SOL     OW16069   1.960   5.187   7.867
 1472SOL    HW116070   2.000   5.278   7.876
 1472SOL    HW216071   1.860   5.193   7.871
 1473SOL     OW16072   3.100   2.956   2.376
 1473SOL    HW116073   3.157   2.886   2.332
 1473SOL    HW216074   3.125   3.046   2.341
 1474SOL     OW16075   2.812   6.775   7.818
 1474SOL    HW116076   2.831   6.726   7.903
 1474SOL    HW216077   2.869   6.738   7.745
 1475SOL     OW16078   1.968   1.164   0.499
 1475SOL    HW116079   1.940   1.107   0.577
 1475SOL    HW216080   1.954   1.260   0.522
 1476SOL     OW16081   0.220   2.775   4.790
 1476SOL    HW116082   0.211   2.872   4.811
 1476SOL    HW216083   0.130   2.738   4.763
 1477SOL     OW16084   2.506   5.177   3.721
 1477SOL    HW116085   2.428   5.116   3.712
 1477SOL    HW216086   2.556   5.180   3.634
 1478SOL     OW16087   7.208   5.825   3.969
 1478SOL    HW116088   7.301   5.841   3.936
 1478SOL    HW216089   7.144   5.881   3.916
 1479SOL     OW16090   4.908   9.481   5.146
 1479SOL    HW116091   4.868   9.572   5.140
 1479SOL    HW216092   4.857   9.426   5.213
 1480SOL     OW16093   8.405   9.201   3.719
 1480SOL    HW116094   8.317   9.215   3.673
 1480SOL    HW216095   8.456   9.287   3.720
 1481SOL     OW16096   2.422   9.921   6.312
 1481SOL    HW116097   2.409   9.826   6.341
 1481SOL    HW216098   2.461   9.923   6.220
 1482SOL     OW16099   1.015   8.761   3.588
 1482SOL    HW116100   1.097   8.722   3.546
 1482SOL    HW216101   0.983   8.701   3.661
 1483SOL     OW16102   9.968   3.539   4.709
 1483SOL    HW116103   9.989   3.469   4.640
 1483SOL    HW216104   9.872   3.564   4.703
 1484SOL     OW16105   1.628   2.951   7.821
 1484SOL    HW116106   1.630   2.960   7.920
 1484SOL    HW216107   1.545   2.995   7.785
 1485SOL     OW16108   4.392   7.297   1.283
 1485SOL    HW116109   4.457   7.285   1.358
 1485SOL    HW216110   4.395   7.216   1.224
 1486SOL     OW16111   8.089   0.367   5.854
 1486SOL    HW116112   8.157   0.364   5.780
 1486SOL    HW216113   8.088   0.279   5.902
 1487SOL     OW16114   8.114   1.870   2.769
 1487SOL    HW116115   8.166   1.945   2.728
 1487SOL    HW216116   8.031   1.906   2.812
 1488SOL     OW16117   3.463   2.894   3.856
 1488SOL    HW116118   3.389   2.841   3.816
 1488SOL    HW216119   3.521   2.834   3.912
 1489SOL     OW16120   9.405   9.801   5.347
 1489SOL    HW116121   9.470   9.737   5.304
 1489SOL    HW216122   9.312   9.767   5.335
 1490SOL     OW16123   3.605   2.094   0.512
 1490SOL    HW116124   3.629   2.060   0.421
 1490SOL    HW216125   3.672   2.061   0.578
 1491SOL     OW16126   1.370   1.787   2.947
 1491SOL    HW116127   1.469   1.801   2.944
 1491SOL    HW216128   1.344   1.719   2.879
 1492SOL     OW16129   1.210   8.896   3.817
 1492SOL    HW116130   1.231   8.816   3.761
 1492SOL    HW216131   1.251   8.885   3.908
 1493SOL     OW16132   2.075   1.403   0.266
 1493SOL    HW116133   2.169   1.368   0.268
 1493SOL    HW216134   2.019   1.345   0.207
 1494SOL     OW16135   0.203   3.043   4.842
 1494SOL    HW116136   0.279   3.102   4.816
 1494SOL    HW216137   0.117   3.094   4.836
 1495SOL     OW16138   4.592   1.652   4.073
 1495SOL    HW116139   4.597   1.552   4.084
 1495SOL    HW216140   4.612   1.676   3.978
 1496SOL     OW16141   3.458   3.135   7.468
 1496SOL    HW116142   3.527   3.110   7.536
 1496SOL    HW216143   3.442   3.057   7.407
 1497SOL     OW16144   2.676   7.646   4.735
 1497SOL    HW116145   2.697   7.740   4.706
 1497SOL    HW216146   2.605   7.608   4.676
 1498SOL     OW16147   7.128   5.152   1.511
 1498SOL    HW116148   7.031   5.167   1.490
 1498SOL    HW216149   7.159   5.068   1.466
 1499SOL     OW16150   9.224   5.428   7.060
 1499SOL    HW116151   9.127   5.451   7.054
 1499SOL    HW216152   9.255   5.388   6.974
 1500SOL     OW16153   5.465   0.072   5.727
 1500SOL    HW116154   5.537   0.064   5.795
 1500SOL    HW216155   5.448   0.168   5.706
 1501SOL     OW16156   5.168   6.102   2.235
 1501SOL    HW116157   5.164   6.198   2.263
 1501SOL    HW216158   5.095   6.051   2.280
 1502SOL     OW16159   2.619   1.930   5.670
 1502SOL    HW116160   2.676   1.903   5.592
 1502SOL    HW216161   2.542   1.867   5.677
 1503SOL     OW16162   1.708   8.544   5.580
 1503SOL    HW116163   1.706   8.479   5.656
 1503SOL    HW216164   1.803   8.556   5.550
 1504SOL     OW16165   3.242   5.318   4.972
 1504SOL    HW116166   3.280   5.410   4.975
 1504SOL    HW216167   3.281   5.268   4.895
 1505SOL     OW16168   6.752   8.911   2.176
 1505SOL    HW116169   6.661   8.939   2.146
 1505SOL    HW216170   6.817   8.922   2.101
 1506SOL     OW16171   4.180   2.239   0.208
 1506SOL    HW116172   4.148   2.328   0.240
 1506SOL    HW216173   4.262   2.250   0.153
 1507SOL     OW16174   9.169   2.028   6.793
 1507SOL    HW116175   9.134   1.956   6.732
 1507SOL    HW216176   9.092   2.074   6.838
 1508SOL     OW16177   4.871   4.727   1.566
 1508SOL    HW116178   4.947   4.784   1.534
 1508SOL    HW216179   4.789   4.748   1.514
 1509SOL     OW16180   2.592   8.844   0.979
 1509SOL    HW116181   2.618   8.764   0.924
 1509SOL    HW216182   2.632   8.926   0.937
 1510SOL     OW16183   6.646   0.096   5.658
 1510SOL    HW116184   6.713   0.131   5.723
 1510SOL    HW216185   6.603   0.014   5.696
 1511SOL     OW16186   3.415   2.888   6.930
 1511SOL    HW116187   3.490   2.923   6.875
 1511SOL    HW216188   3.451   2.834   7.006
 1512SOL     OW16189   5.818   8.249   5.640
 1512SOL    HW116190   5.727   8.243   5.682
 1512SOL    HW216191   5.864   8.160   5.647
 1513SOL     OW16192   9.502   6.776   3.312
 1513SOL    HW116193   9.467   6.832   3.387
 1513SOL    HW216194   9.436   6.776   3.237
 1514SOL     OW16195   8.735   5.796   7.454
 1514SOL    HW116196   8.669   5.735   7.411
 1514SOL    HW216197   8.828   5.770   7.427
 1515SOL     OW16198   4.657   0.071   6.080
 1515SOL    HW116199   4.623   0.129   6.005
 1515SOL    HW216200   4.756   0.064   6.074
 1516SOL     OW16201   1.033   1.094   1.583
 1516SOL    HW116202   1.046   1.191   1.602
 1516SOL    HW216203   1.108   1.060   1.527
 1517SOL     OW16204   1.196   2.202   0.191
 1517SOL    HW116205   1.285   2.178   0.230
 1517SOL    HW216206   1.204   2.212   0.092
 1518SOL     OW16207   4.853   4.802   0.777
 1518SOL    HW116208   4.868   4.765   0.869
 1518SOL    HW216209   4.912   4.881   0.763
 1519SOL     OW16210   0.873   1.404   6.739
 1519SOL    HW116211   0.795   1.366   6.688
 1519SOL    HW216212   0.842   1.439   6.827
 1520SOL     OW16213   3.212   8.102   5.715
 1520SOL    HW116214   3.165   8.180   5.672
 1520SOL    HW216215   3.150   8.058   5.780
 1521SOL     OW16216   3.256   7.657   5.912
 1521SOL    HW116217   3.167   7.617   5.887
 1521SOL    HW216218   3.314   7.662   5.830
 1522SOL     OW16219   8.493   6.194   4.066
 1522SOL    HW116220   8.564   6.205   4.135
 1522SOL    HW216221   8.403   6.187   4.110
 1523SOL     OW16222   7.460   1.319   7.865
 1523SOL    HW116223   7.423   1.404   7.903
 1523SOL    HW216224   7.540   1.339   7.809
 1524SOL     OW16225   3.664   2.458   2.900
 1524SOL    HW116226   3.662   2.378   2.840
 1524SOL    HW216227   3.575   2.502   2.901
 1525SOL     OW16228   2.531   0.672   2.433
 1525SOL    HW116229   2.464   0.637   2.499
 1525SOL    HW216230   2.489   0.742   2.376
 1526SOL     OW16231   3.467   9.175   3.180
 1526SOL    HW116232   3.548   9.216   3.137
 1526SOL    HW216233   3.496   9.123   3.261
 1527SOL     OW16234   1.870   1.115   7.061
 1527SOL    HW116235   1.923   1.138   7.142
 1527SOL    HW216236   1.794   1.056   7.087
 1528SOL     OW16237   9.392   5.339   0.248
 1528SOL    HW116238   9.459   5.341   0.174
 1528SOL    HW216239   9.367   5.245   0.269
 1529SOL     OW16240   5.792   8.460   6.093
 1529SOL    HW116241   5.832   8.549   6.071
 1529SOL    HW216242   5.756   8.461   6.186
 1530SOL     OW16243   2.153   6.699   0.366
 1530SOL    HW116244   2.158   6.666   0.271
 1530SOL    HW216245   2.192   6.631   0.427
 1531SOL     OW16246   2.614   9.337   1.937
 1531SOL    HW116247   2.634   9.399   2.013
 1531SOL    HW216248   2.525   9.294   1.952
 1532SOL     OW16249   0.009   5.122   2.101
 1532SOL    HW116250   0.021   5.182   2.023
 1532SOL    HW216251   9.929   5.151   2.153
 1533SOL     OW16252   0.318   5.865   4.957
 1533SOL    HW116253   0.391   5.806   4.922
 1533SOL    HW216254   0.240   5.861   4.895
 1534SOL     OW16255   8.125   5.904   3.308
 1534SOL    HW116256   8.028   5.901   3.333
 1534SOL    HW216257   8.165   5.813   3.318
 1535SOL     OW16258   8.967   1.710   3.064
 1535SOL    HW116259   9.007   1.784   3.119
 1535SOL    HW216260   9.041   1.655   3.025
 1536SOL     OW16261   3.049   3.767   5.424
 1536SOL    HW116262   3.144   3.792   5.405
 1536SOL    HW216263   3.040   3.747   5.522
 1537SOL     OW16264   3.645   7.645   0.646
 1537SOL    HW116265   3.698   7.729   0.634
 1537SOL    HW216266   3.617   7.637   0.741
 1538SOL     OW16267   6.884   8.970   1.923
 1538SOL    HW116268   6.816   9.043   1.932
 1538SOL    HW216269   6.851   8.903   1.856
 1539SOL     OW16270   8.038   0.251   7.809
 1539SOL    HW116271   8.135   0.233   7.826
 1539SOL    HW216272   7.987   0.165   7.812
 1540SOL     OW16273   3.563   9.962   2.965
 1540SOL    HW116274   3.598   0.013   3.044
 1540SOL    HW216275   3.627   9.888   2.942
 1541SOL     OW16276   6.711   0.955   5.921
 1541SOL    HW116277   6.676   0.945   6.014
 1541SOL    HW216278   6.636   0.952   5.856
 1542SOL     OW16279   3.302   5.770   2.821
 1542SOL    HW116280   3.382   5.804   2.871
 1542SOL    HW216281   3.331   5.708   2.749
 1543SOL     OW16282   3.236   9.313   3.444
 1543SOL    HW116283   3.174   9.387   3.467
 1543SOL    HW216284   3.200   9.262   3.366
 1544SOL     OW16285   5.964   4.787   1.161
 1544SOL    HW116286   5.971   4.737   1.247
 1544SOL    HW216287   6.014   4.873   1.168
 1545SOL     OW16288   9.853   9.963   1.997
 1545SOL    HW116289   9.845   9.872   1.957
 1545SOL    HW216290   9.948   9.981   2.022
 1546SOL     OW16291   4.778   0.621   1.933
 1546SOL    HW116292   4.802   0.693   1.997
 1546SOL    HW216293   4.720   0.658   1.860
 1547SOL     OW16294   3.559   6.059   3.161
 1547SOL    HW116295   3.548   6.115   3.243
 1547SOL    HW216296   3.594   5.969   3.186
 1548SOL     OW16297   3.407   5.843   4.955
 1548SOL    HW116298   3.331   5.869   4.896
 1548SOL    HW216299   3.422   5.914   5.023
 1549SOL     OW16300   0.034   1.480   0.508
 1549SOL    HW116301   0.132   1.471   0.523
 1549SOL    HW216302   0.012   1.458   0.413
 1550SOL     OW16303   3.650   2.026   3.405
 1550SOL    HW116304   3.650   1.986   3.497
 1550SOL    HW216305   3.691   2.117   3.408
 1551SOL     OW16306   0.577   8.041   1.141
 1551SOL    HW116307   0.531   7.977   1.202
 1551SOL    HW216308   0.530   8.045   1.053
 1552SOL     OW16309   2.227   1.225   5.761
 1552SOL    HW116310   2.154   1.160   5.740
 1552SOL    HW216311   2.239   1.287   5.683
 1553SOL     OW16312   9.498   8.379   5.445
 1553SOL    HW116313   9.489   8.282   5.425
 1553SOL    HW216314   9.591   8.409   5.427
 1554SOL     OW16315   9.719   1.636   5.812
 1554SOL    HW116316   9.628   1.595   5.807
 1554SOL    HW216317   9.732   1.678   5.902
 1555SOL     OW16318   7.880   3.386   2.660
 1555SOL    HW116319   7.967   3.350   2.624
 1555SOL    HW216320   7.805   3.357   2.601
 1556SOL     OW16321   8.678   0.321   4.604
 1556SOL    HW116322   8.720   0.405   4.639
 1556SOL    HW216323   8.730   0.242   4.635
 1557SOL     OW16324   4.272   0.728   6.455
 1557SOL    HW116325   4.358   0.774   6.432
 1557SOL    HW216326   4.200   0.796   6.467
 1558SOL     OW16327   2.438   3.894   5.379
 1558SOL    HW116328   2.421   3.859   5.471
 1558SOL    HW216329   2.379   3.973   5.362
 1559SOL     OW16330   8.327   8.036   6.266
 1559SOL    HW116331   8.327   8.006   6.170
 1559SOL    HW216332   8.411   8.005   6.311
 1560SOL     OW16333   6.823   0.709   7.560
 1560SOL    HW116334   6.855   0.780   7.498
 1560SOL    HW216335   6.743   0.743   7.610
 1561SOL     OW16336   1.248   5.166   1.780
 1561SOL    HW116337   1.156   5.198   1.758
 1561SOL    HW216338   1.264   5.177   1.879
 1562SOL     OW16339   4.367   3.408   2.272
 1562SOL    HW116340   4.387   3.369   2.182
 1562SOL    HW216341   4.421   3.491   2.285
 1563SOL     OW16342   6.214   1.796   0.433
 1563SOL    HW116343   6.215   1.697   0.418
 1563SOL    HW216344   6.268   1.841   0.361
 1564SOL     OW16345   7.388   5.072   1.799
 1564SOL    HW116346   7.428   4.982   1.816
 1564SOL    HW216347   7.291   5.062   1.778
 1565SOL     OW16348   7.058   6.623   2.773
 1565SOL    HW116349   7.014   6.578   2.851
 1565SOL    HW216350   7.157   6.622   2.786
 1566SOL     OW16351   5.685   0.369   7.274
 1566SOL    HW116352   5.598   0.384   7.321
 1566SOL    HW216353   5.677   0.292   7.211
 1567SOL     OW16354   8.736   8.444   7.352
 1567SOL    HW116355   8.760   8.361   7.402
 1567SOL    HW216356   8.783   8.522   7.394
 1568SOL     OW16357   8.187   3.361   4.078
 1568SOL    HW116358   8.187   3.277   4.025
 1568SOL    HW216359   8.264   3.360   4.142
 1569SOL     OW16360   6.440   9.604   7.407
 1569SOL    HW116361   6.453   9.506   7.395
 1569SOL    HW216362   6.411   9.623   7.501
 1570SOL     OW16363   0.364   3.364   1.549
 1570SOL    HW116364   0.296   3.290   1.547
 1570SOL    HW216365   0.452   3.329   1.519
 1571SOL     OW16366   7.484   0.879   6.829
 1571SOL    HW116367   7.543   0.898   6.751
 1571SOL    HW216368   7.402   0.831   6.798
 1572SOL     OW16369   1.926   0.150   1.010
 1572SOL    HW116370   1.917   0.060   1.054
 1572SOL    HW216371   2.014   0.154   0.963
 1573SOL     OW16372   9.131   2.655   6.201
 1573SOL    HW116373   9.151   2.558   6.212
 1573SOL    HW216374   9.032   2.670   6.206
 1574SOL     OW16375   3.036   7.786   1.598
 1574SOL    HW116376   2.949   7.833   1.584
 1574SOL    HW216377   3.043   7.708   1.536
 1575SOL     OW16378   7.214   2.794   0.554
 1575SOL    HW116379   7.222   2.703   0.593
 1575SOL    HW216380   7.134   2.797   0.493
 1576SOL     OW16381   0.546   2.578   5.026
 1576SOL    HW116382   0.580   2.524   5.103
 1576SOL    HW216383   0.613   2.649   5.004
 1577SOL     OW16384   0.277   3.104   1.788
 1577SOL    HW116385   0.236   3.122   1.699
 1577SOL    HW216386   0.211   3.127   1.860
 1578SOL     OW16387   5.594   9.979   6.434
 1578SOL    HW116388   5.637   0.024   6.512
 1578SOL    HW216389   5.625   9.883   6.430
 1579SOL     OW16390   3.361   9.597   4.816
 1579SOL    HW116391   3.298   9.667   4.850
 1579SOL    HW216392   3.343   9.510   4.863
 1580SOL     OW16393   8.843   9.921   4.375
 1580SOL    HW116394   8.780   9.904   4.451
 1580SOL    HW216395   8.937   9.905   4.405
 1581SOL     OW16396   1.364   6.571   6.519
 1581SOL    HW116397   1.366   6.562   6.419
 1581SOL    HW216398   1.330   6.662   6.543
 1582SOL     OW16399   4.076   3.443   3.230
 1582SOL    HW116400   4.050   3.350   3.254
 1582SOL    HW216401   4.032   3.507   3.293
 1583SOL     OW16402   7.394   4.923   3.109
 1583SOL    HW116403   7.481   4.960   3.078
 1583SOL    HW216404   7.325   4.995   3.109
 1584SOL     OW16405   0.855   6.546   4.363
 1584SOL    HW116406   0.838   6.449   4.347
 1584SOL    HW216407   0.932   6.557   4.426
 1585SOL     OW16408   1.011   7.515   0.620
 1585SOL    HW116409   1.081   7.466   0.567
 1585SOL    HW216410   1.045   7.606   0.644
 1586SOL     OW16411   9.449   5.969   3.533
 1586SOL    HW116412   9.492   6.043   3.482
 1586SOL    HW216413   9.410   5.902   3.468
 1587SOL     OW16414   2.910   2.904   7.423
 1587SOL    HW116415   2.890   2.825   7.365
 1587SOL    HW216416   3.003   2.898   7.458
 1588SOL     OW16417   4.606   0.468   0.737
 1588SOL    HW116418   4.641   0.483   0.829
 1588SOL    HW216419   4.681   0.470   0.671
 1589SOL     OW16420   2.865   5.690   3.944
 1589SOL    HW116421   2.770   5.721   3.937
 1589SOL    HW216422   2.890   5.640   3.861
 1590SOL     OW16423   8.174   2.723   2.824
 1590SOL    HW116424   8.165   2.783   2.744
 1590SOL    HW216425   8.122   2.639   2.808
 1591SOL     OW16426   9.165   6.507   1.724
 1591SOL    HW116427   9.199   6.461   1.641
 1591SOL    HW216428   9.097   6.449   1.769
 1592SOL     OW16429   7.158   4.495   7.539
 1592SOL    HW116430   7.080   4.458   7.589
 1592SOL    HW216431   7.229   4.524   7.603
 1593SOL     OW16432   4.625   3.266   0.267
 1593SOL    HW116433   4.540   3.243   0.221
 1593SOL    HW216434   4.609   3.344   0.328
 1594SOL     OW16435   0.150   8.063   6.818
 1594SOL    HW116436   0.075   8.057   6.884
 1594SOL    HW216437   0.116   8.040   6.727
 1595SOL     OW16438   1.767   9.668   2.204
 1595SOL    HW116439   1.852   9.688   2.253
 1595SOL    HW216440   1.761   9.570   2.187
 1596SOL     OW16441   0.284   9.976   6.197
 1596SOL    HW116442   0.190   0.002   6.175
 1596SOL    HW216443   0.345   0.053   6.177
 1597SOL     OW16444   3.925   6.639   6.934
 1597SOL    HW116445   3.934   6.608   7.029
 1597SOL    HW216446   3.865   6.719   6.932
 1598SOL     OW16447   9.772   9.581   5.083
 1598SOL    HW116448   9.706   9.589   5.158
 1598SOL    HW216449   9.860   9.550   5.120
 1599SOL     OW16450   4.550   8.361   7.451
 1599SOL    HW116451   4.457   8.395   7.447
 1599SOL    HW216452   4.574   8.320   7.363
 1600SOL     OW16453   7.625   5.869   0.190
 1600SOL    HW116454   7.666   5.957   0.166
 1600SOL    HW216455   7.593   5.872   0.285
 1601SOL     OW16456   2.354   4.172   3.139
 1601SOL    HW116457   2.357   4.159   3.238
 1601SOL    HW216458   2.395   4.093   3.094
 1602SOL     OW16459   6.369   4.778   1.250
 1602SOL    HW116460   6.422   4.848   1.201
 1602SOL    HW216461   6.308   4.823   1.315
 1603SOL     OW16462   6.970   5.555   0.200
 1603SOL    HW116463   6.920   5.485   0.149
 1603SOL    HW216464   6.926   5.644   0.185
 1604SOL     OW16465   1.732   7.715   0.714
 1604SOL    HW116466   1.733   7.811   0.683
 1604SOL    HW216467   1.823   7.690   0.746
 1605SOL     OW16468   1.409   4.544   3.317
 1605SOL    HW116469   1.428   4.584   3.406
 1605SOL    HW216470   1.327   4.486   3.324
 1606SOL     OW16471   3.350   3.160   0.917
 1606SOL    HW116472   3.353   3.234   0.985
 1606SOL    HW216473   3.355   3.198   0.825
 1607SOL     OW16474   0.213   4.620   2.238
 1607SOL    HW116475   0.210   4.521   2.252
 1607SOL    HW216476   0.308   4.649   2.226
 1608SOL     OW16477   6.195   2.662   2.568
 1608SOL    HW116478   6.100   2.661   2.538
 1608SOL    HW216479   6.211   2.586   2.631
 1609SOL     OW16480   2.748   1.615   4.241
 1609SOL    HW116481   2.708   1.684   4.180
 1609SOL    HW216482   2.840   1.643   4.267
 1610SOL     OW16483   2.527   3.585   6.405
 1610SOL    HW116484   2.448   3.524   6.406
 1610SOL    HW216485   2.505   3.668   6.353
 1611SOL     OW16486   6.444   1.627   0.638
 1611SOL    HW116487   6.347   1.642   0.655
 1611SOL    HW216488   6.455   1.574   0.554
 1612SOL     OW16489   3.153   4.028   4.641
 1612SOL    HW116490   3.074   4.016   4.701
 1612SOL    HW216491   3.138   4.107   4.582
 1613SOL     OW16492   3.654   5.706   2.644
 1613SOL    HW116493   3.557   5.683   2.657
 1613SOL    HW216494   3.691   5.738   2.731
 1614SOL     OW16495   5.474   8.044   3.298
 1614SOL    HW116496   5.472   8.141   3.273
 1614SOL    HW216497   5.569   8.013   3.301
 1615SOL     OW16498   1.022   5.960   4.205
 1615SOL    HW116499   1.116   5.926   4.200
 1615SOL    HW216500   0.979   5.926   4.289
 1616SOL     OW16501   1.097   1.331   7.277
 1616SOL    HW116502   1.163   1.361   7.208
 1616SOL    HW216503   1.029   1.271   7.235
 1617SOL     OW16504   2.214   8.505   5.907
 1617SOL    HW116505   2.252   8.561   5.834
 1617SOL    HW216506   2.114   8.504   5.900
 1618SOL     OW16507   0.337   1.709   0.679
 1618SOL    HW116508   0.291   1.776   0.621
 1618SOL    HW216509   0.397   1.756   0.743
 1619SOL     OW16510   4.147   2.565   0.963
 1619SOL    HW116511   4.153   2.661   0.987
 1619SOL    HW216512   4.168   2.554   0.865
 1620SOL     OW16513   7.625   4.959   4.084
 1620SOL    HW116514   7.641   4.985   4.179
 1620SOL    HW216515   7.655   5.033   4.023
 1621SOL     OW16516   1.153   0.208   3.811
 1621SOL    HW116517   1.157   0.117   3.768
 1621SOL    HW216518   1.189   0.203   3.903
 1622SOL     OW16519   0.689   9.352   0.576
 1622SOL    HW116520   0.756   9.413   0.534
 1622SOL    HW216521   0.654   9.288   0.507
 1623SOL     OW16522   9.827   0.893   2.587
 1623SOL    HW116523   9.845   0.804   2.545
 1623SOL    HW216524   9.759   0.941   2.533
 1624SOL     OW16525   0.361   6.454   4.250
 1624SOL    HW116526   0.296   6.528   4.233
 1624SOL    HW216527   0.343   6.414   4.340
 1625SOL     OW16528   4.473   2.746   0.059
 1625SOL    HW116529   4.413   2.699  10.076
 1625SOL    HW216530   4.417   2.792   0.128
 1626SOL     OW16531   6.969   9.460   3.924
 1626SOL    HW116532   6.924   9.383   3.878
 1626SOL    HW216533   6.999   9.432   4.015
 1627SOL     OW16534   1.165   0.749   7.818
 1627SOL    HW116535   1.258   0.770   7.849
 1627SOL    HW216536   1.126   0.678   7.877
 1628SOL     OW16537   8.793   2.031   5.751
 1628SOL    HW116538   8.751   2.121   5.734
 1628SOL    HW216539   8.800   2.015   5.849
 1629SOL     OW16540   5.446   9.794   2.028
 1629SOL    HW116541   5.510   9.841   2.089
 1629SOL    HW216542   5.496   9.751   1.953
 1630SOL     OW16543   2.943   6.664   0.423
 1630SOL    HW116544   2.914   6.629   0.334
 1630SOL    HW216545   2.892   6.748   0.444
 1631SOL     OW16546   4.095   1.897   5.961
 1631SOL    HW116547   4.088   1.886   5.862
 1631SOL    HW216548   4.054   1.818   6.006
 1632SOL     OW16549   0.389   7.942   1.578
 1632SOL    HW116550   0.344   8.029   1.561
 1632SOL    HW216551   0.432   7.944   1.669
 1633SOL     OW16552   2.924   1.445   4.679
 1633SOL    HW116553   2.928   1.539   4.646
 1633SOL    HW216554   3.016   1.406   4.678
 1634SOL     OW16555   4.700   9.834   3.447
 1634SOL    HW116556   4.737   9.810   3.358
 1634SOL    HW216557   4.766   9.810   3.518
 1635SOL     OW16558   6.543   9.637   5.067
 1635SOL    HW116559   6.574   9.625   4.973
 1635SOL    HW216560   6.612   9.688   5.119
 1636SOL     OW16561   8.440   8.152   0.659
 1636SOL    HW116562   8.463   8.179   0.566
 1636SOL    HW216563   8.452   8.229   0.721
 1637SOL     OW16564   2.139   7.606   7.808
 1637SOL    HW116565   2.077   7.579   7.882
 1637SOL    HW216566   2.224   7.640   7.846
 1638SOL     OW16567   3.398   2.866   3.124
 1638SOL    HW116568   3.426   2.840   3.031
 1638SOL    HW216569   3.309   2.825   3.144
 1639SOL     OW16570   0.190   7.966   0.868
 1639SOL    HW116571   0.183   7.950   0.769
 1639SOL    HW216572   0.108   7.931   0.913
 1640SOL     OW16573   7.968   3.497   7.697
 1640SOL    HW116574   7.918   3.583   7.687
 1640SOL    HW216575   8.065   3.513   7.681
 1641SOL     OW16576   2.971   2.821   0.309
 1641SOL    HW116577   3.065   2.787   0.309
 1641SOL    HW216578   2.909   2.747   0.282
 1642SOL     OW16579   8.933   0.448   6.539
 1642SOL    HW116580   8.983   0.367   6.568
 1642SOL    HW216581   8.904   0.437   6.444
 1643SOL     OW16582   2.152   0.650   1.453
 1643SOL    HW116583   2.203   0.594   1.518
 1643SOL    HW216584   2.204   0.732   1.432
 1644SOL     OW16585   8.139   6.003   7.702
 1644SOL    HW116586   8.056   6.055   7.721
 1644SOL    HW216587   8.218   6.063   7.709
 1645SOL     OW16588   6.499   2.170   5.700
 1645SOL    HW116589   6.543   2.259   5.713
 1645SOL    HW216590   6.465   2.164   5.606
 1646SOL     OW16591   9.257   6.874   1.893
 1646SOL    HW116592   9.238   6.916   1.982
 1646SOL    HW216593   9.246   6.943   1.822
 1647SOL     OW16594   5.187   5.118   7.777
 1647SOL    HW116595   5.183   5.018   7.781
 1647SOL    HW216596   5.125   5.156   7.846
 1648SOL     OW16597   8.512   0.720   0.979
 1648SOL    HW116598   8.467   0.792   0.925
 1648SOL    HW216599   8.472   0.717   1.071
 1649SOL     OW16600   0.409   5.099   5.615
 1649SOL    HW116601   0.384   5.002   5.608
 1649SOL    HW216602   0.443   5.131   5.526
 1650SOL     OW16603   5.978   8.802   5.219
 1650SOL    HW116604   5.953   8.735   5.149
 1650SOL    HW216605   6.069   8.781   5.254
 1651SOL     OW16606   2.274   9.469   1.822
 1651SOL    HW116607   2.288   9.550   1.880
 1651SOL    HW216608   2.320   9.483   1.734
 1652SOL     OW16609   2.041   9.890   1.747
 1652SOL    HW116610   2.012   9.794   1.749
 1652SOL    HW216611   1.980   9.942   1.688
 1653SOL     OW16612   4.054   9.540   4.588
 1653SOL    HW116613   3.998   9.607   4.540
 1653SOL    HW216614   4.116   9.587   4.651
 1654SOL     OW16615   8.149   7.908   4.459
 1654SOL    HW116616   8.119   7.850   4.383
 1654SOL    HW216617   8.231   7.868   4.501
 1655SOL     OW16618   8.672   6.191   4.274
 1655SOL    HW116619   8.629   6.230   4.356
 1655SOL    HW216620   8.763   6.158   4.297
 1656SOL     OW16621   9.066   2.218   7.170
 1656SOL    HW116622   9.034   2.157   7.243
 1656SOL    HW216623   9.166   2.213   7.163
 1657SOL     OW16624   1.185   6.323   5.668
 1657SOL    HW116625   1.266   6.342   5.723
 1657SOL    HW216626   1.212   6.310   5.572
 1658SOL     OW16627   0.519   5.422   5.918
 1658SOL    HW116628   0.556   5.338   5.879
 1658SOL    HW216629   0.426   5.405   5.952
 1659SOL     OW16630   1.028   1.417   5.036
 1659SOL    HW116631   0.943   1.376   5.002
 1659SOL    HW216632   1.100   1.404   4.968
 1660SOL     OW16633   9.746   9.976   3.124
 1660SOL    HW116634   9.757   9.881   3.095
 1660SOL    HW216635   9.827   0.005   3.175
 1661SOL     OW16636   9.687   6.572   3.281
 1661SOL    HW116637   9.739   6.587   3.365
 1661SOL    HW216638   9.621   6.646   3.269
 1662SOL     OW16639   8.805   2.451   4.711
 1662SOL    HW116640   8.815   2.354   4.693
 1662SOL    HW216641   8.735   2.465   4.782
 1663SOL     OW16642   1.360   1.719   0.844
 1663SOL    HW116643   1.336   1.779   0.767
 1663SOL    HW216644   1.425   1.650   0.813
 1664SOL     OW16645   4.445   7.902   6.244
 1664SOL    HW116646   4.365   7.930   6.190
 1664SOL    HW216647   4.519   7.876   6.182
 1665SOL     OW16648   3.989   9.833   7.756
 1665SOL    HW116649   3.921   9.780   7.806
 1665SOL    HW216650   3.954   9.926   7.741
 1666SOL     OW16651   2.888   7.326   3.067
 1666SOL    HW116652   2.895   7.299   2.970
 1666SOL    HW216653   2.961   7.283   3.119
 1667SOL     OW16654   3.213   7.778   2.063
 1667SOL    HW116655   3.223   7.794   2.161
 1667SOL    HW216656   3.304   7.771   2.021
 1668SOL     OW16657   6.679   0.616   7.339
 1668SOL    HW116658   6.708   0.642   7.246
 1668SOL    HW216659   6.753   0.637   7.403
 1669SOL     OW16660   1.140   4.863   5.390
 1669SOL    HW116661   1.191   4.782   5.419
 1669SOL    HW216662   1.055   4.868   5.442
 1670SOL     OW16663   9.171   8.201   6.219
 1670SOL    HW116664   9.213   8.234   6.135
 1670SOL    HW216665   9.148   8.279   6.278
 1671SOL     OW16666   4.068   3.823   2.461
 1671SOL    HW116667   3.990   3.772   2.498
 1671SOL    HW216668   4.139   3.831   2.531
 1672SOL     OW16669   1.369   0.840   4.241
 1672SOL    HW116670   1.403   0.886   4.324
 1672SOL    HW216671   1.285   0.790   4.263
 1673SOL     OW16672   2.560   8.575   4.645
 1673SOL    HW116673   2.526   8.500   4.588
 1673SOL    HW216674   2.551   8.550   4.742
 1674SOL     OW16675   1.015   1.105   2.212
 1674SOL    HW116676   1.089   1.098   2.145
 1674SOL    HW216677   1.054   1.118   2.303
 1675SOL     OW16678   2.090   8.453   1.165
 1675SOL    HW116679   2.067   8.382   1.099
 1675SOL    HW216680   2.188   8.471   1.162
 1676SOL     OW16681   0.532   9.024   3.481
 1676SOL    HW116682   0.495   9.102   3.432
 1676SOL    HW216683   0.468   8.947   3.476
 1677SOL     OW16684   9.731   9.454   0.846
 1677SOL    HW116685   9.735   9.545   0.887
 1677SOL    HW216686   9.702   9.388   0.915
 1678SOL     OW16687   5.248   9.678   3.831
 1678SOL    HW116688   5.337   9.700   3.791
 1678SOL    HW216689   5.206   9.603   3.780
 1679SOL     OW16690   8.034   5.796   1.683
 1679SOL    HW116691   8.103   5.746   1.631
 1679SOL    HW216692   7.970   5.732   1.724
 1680SOL     OW16693   3.595   4.090   7.059
 1680SOL    HW116694   3.603   4.007   7.114
 1680SOL    HW216695   3.591   4.066   6.963
 1681SOL     OW16696   9.312   8.185   7.071
 1681SOL    HW116697   9.388   8.246   7.094
 1681SOL    HW216698   9.340   8.090   7.085
 1682SOL     OW16699   8.225   0.057   1.551
 1682SOL    HW116700   8.200   9.976   1.498
 1682SOL    HW216701   8.248   0.030   1.644
 1683SOL     OW16702   8.139   3.390   0.276
 1683SOL    HW116703   8.141   3.490   0.269
 1683SOL    HW216704   8.155   3.350   0.185
 1684SOL     OW16705   7.287   0.085   4.123
 1684SOL    HW116706   7.346   0.006   4.137
 1684SOL    HW216707   7.226   0.068   4.045
 1685SOL     OW16708   1.130   8.915   6.358
 1685SOL    HW116709   1.163   8.980   6.290
 1685SOL    HW216710   1.135   8.822   6.321
 1686SOL     OW16711   7.794   4.590   7.472
 1686SOL    HW116712   7.805   4.689   7.470
 1686SOL    HW216713   7.697   4.567   7.474
 1687SOL     OW16714   5.001   2.680   6.930
 1687SOL    HW116715   5.062   2.662   6.853
 1687SOL    HW216716   5.029   2.625   7.008
 1688SOL     OW16717   5.721   7.586   3.401
 1688SOL    HW116718   5.805   7.601   3.349
 1688SOL    HW216719   5.644   7.573   3.338
 1689SOL     OW16720   2.466   3.714   1.823
 1689SOL    HW116721   2.434   3.694   1.916
 1689SOL    HW216722   2.431   3.644   1.761
 1690SOL     OW16723   7.609   5.367   0.594
 1690SOL    HW116724   7.594   5.450   0.648
 1690SOL    HW216725   7.557   5.372   0.509
 1691SOL     OW16726   2.392   9.514   7.302
 1691SOL    HW116727   2.320   9.488   7.239
 1691SOL    HW216728   2.460   9.441   7.307
 1692SOL     OW16729   9.508   7.804   3.697
 1692SOL    HW116730   9.476   7.895   3.722
 1692SOL    HW216731   9.559   7.764   3.774
 1693SOL     OW16732   8.279   0.019   1.217
 1693SOL    HW116733   8.244   9.954   1.284
 1693SOL    HW216734   8.208   0.085   1.194
 1694SOL     OW16735   2.847   4.390   6.772
 1694SOL    HW116736   2.818   4.298   6.796
 1694SOL    HW216737   2.877   4.438   6.855
 1695SOL     OW16738   0.049   4.904   5.929
 1695SOL    HW116739   9.965   4.954   5.910
 1695SOL    HW216740   0.038   4.850   6.013
 1696SOL     OW16741   3.285   9.345   4.022
 1696SOL    HW116742   3.255   9.366   3.929
 1696SOL    HW216743   3.260   9.251   4.045
 1697SOL     OW16744   8.100   9.818   6.447
 1697SOL    HW116745   8.055   9.791   6.362
 1697SOL    HW216746   8.082   9.750   6.518
 1698SOL     OW16747   5.945   0.742   6.137
 1698SOL    HW116748   5.994   0.668   6.091
 1698SOL    HW216749   5.954   0.733   6.236
 1699SOL     OW16750   2.784   4.726   5.547
 1699SOL    HW116751   2.721   4.650   5.560
 1699SOL    HW216752   2.734   4.805   5.510
 1700SOL     OW16753   9.609   0.254   2.736
 1700SOL    HW116754   9.580   0.347   2.757
 1700SOL    HW216755   9.657   0.216   2.816
 1701SOL     OW16756   5.381   1.716   0.308
 1701SOL    HW116757   5.285   1.711   0.279
 1701SOL    HW216758   5.401   1.640   0.370
 1702SOL     OW16759   8.320   5.315   1.253
 1702SOL    HW116760   8.261   5.282   1.179
 1702SOL    HW216761   8.263   5.346   1.329
 1703SOL     OW16762   9.924   1.027   7.690
 1703SOL    HW116763   9.865   1.091   7.642
 1703SOL    HW216764   9.897   0.933   7.667
 1704SOL     OW16765   1.384   7.858   3.320
 1704SOL    HW116766   1.377   7.953   3.291
 1704SOL    HW216767   1.464   7.816   3.277
 1705SOL     OW16768   6.934   7.976   5.056
 1705SOL    HW116769   6.836   7.984   5.038
 1705SOL    HW216770   6.978   8.066   5.044
 1706SOL     OW16771   2.457   0.856   1.639
 1706SOL    HW116772   2.480   0.950   1.667
 1706SOL    HW216773   2.394   0.816   1.705
 1707SOL     OW16774   2.441   7.954   3.021
 1707SOL    HW116775   2.510   7.901   2.971
 1707SOL    HW216776   2.352   7.944   2.976
 1708SOL     OW16777   8.626   4.278   1.916
 1708SOL    HW116778   8.530   4.261   1.893
 1708SOL    HW216779   8.632   4.355   1.979
 1709SOL     OW16780   7.991   7.122   5.739
 1709SOL    HW116781   8.088   7.123   5.716
 1709SOL    HW216782   7.937   7.121   5.654
 1710SOL     OW16783   1.969   8.937   5.952
 1710SOL    HW116784   1.982   8.851   6.003
 1710SOL    HW216785   1.906   8.921   5.876
 1711SOL     OW16786   8.813   3.699   7.273
 1711SOL    HW116787   8.857   3.614   7.300
 1711SOL    HW216788   8.872   3.749   7.210
 1712SOL     OW16789   0.786   9.248   7.104
 1712SOL    HW116790   0.872   9.269   7.150
 1712SOL    HW216791   0.715   9.229   7.171
 1713SOL     OW16792   8.216   5.070   6.349
 1713SOL    HW116793   8.229   5.044   6.445
 1713SOL    HW216794   8.172   5.159   6.344
 1714SOL     OW16795   7.408   7.648   7.424
 1714SOL    HW116796   7.406   7.734   7.373
 1714SOL    HW216797   7.352   7.580   7.377
 1715SOL     OW16798   4.415   1.124   0.692
 1715SOL    HW116799   4.482   1.187   0.730
 1715SOL    HW216800   4.372   1.165   0.611
 1716SOL     OW16801   4.785   0.379   7.371
 1716SOL    HW116802   4.872   0.427   7.371
 1716SOL    HW216803   4.797   0.286   7.405
 1717SOL     OW16804   1.555   7.157   2.812
 1717SOL    HW116805   1.602   7.208   2.739
 1717SOL    HW216806   1.486   7.216   2.855
 1718SOL     OW16807   7.924   6.131   7.466
 1718SOL    HW116808   7.838   6.160   7.425
 1718SOL    HW216809   7.991   6.205   7.460
 1719SOL     OW16810   3.255   7.772   0.620
 1719SOL    HW116811   3.287   7.852   0.670
 1719SOL    HW216812   3.325   7.745   0.553
 1720SOL     OW16813   8.141   7.675   3.399
 1720SOL    HW116814   8.214   7.692   3.334
 1720SOL    HW216815   8.106   7.582   3.387
 1721SOL     OW16816   1.122   8.647   4.925
 1721SOL    HW116817   1.173   8.679   5.005
 1721SOL    HW216818   1.103   8.723   4.864
 1722SOL     OW16819   1.608   4.596   1.765
 1722SOL    HW116820   1.509   4.584   1.761
 1722SOL    HW216821   1.629   4.693   1.783
 1723SOL     OW16822   6.878   0.916   3.143
 1723SOL    HW116823   6.829   0.847   3.091
 1723SOL    HW216824   6.961   0.877   3.183
 1724SOL     OW16825   0.645   8.997   0.553
 1724SOL    HW116826   0.572   8.982   0.620
 1724SOL    HW216827   0.617   9.069   0.489
 1725SOL     OW16828   3.198   3.542   7.625
 1725SOL    HW116829   3.148   3.464   7.664
 1725SOL    HW216830   3.145   3.582   7.551
 1726SOL     OW16831   5.187   3.099   0.925
 1726SOL    HW116832   5.118   3.118   0.855
 1726SOL    HW216833   5.143   3.053   1.002
 1727SOL     OW16834   6.983   4.372   2.280
 1727SOL    HW116835   6.966   4.335   2.189
 1727SOL    HW216836   6.987   4.472   2.276
 1728SOL     OW16837   5.579   5.239   1.050
 1728SOL    HW116838   5.552   5.143   1.039
 1728SOL    HW216839   5.587   5.260   1.147
 1729SOL     OW16840   2.121   4.300   3.060
 1729SOL    HW116841   2.212   4.263   3.077
 1729SOL    HW216842   2.052   4.233   3.087
 1730SOL     OW16843   8.668   2.817   4.575
 1730SOL    HW116844   8.610   2.852   4.501
 1730SOL    HW216845   8.717   2.736   4.543
 1731SOL     OW16846   1.515   3.537   7.815
 1731SOL    HW116847   1.606   3.568   7.843
 1731SOL    HW216848   1.456   3.617   7.800
 1732SOL     OW16849   0.538   0.374   5.344
 1732SOL    HW116850   0.523   0.470   5.365
 1732SOL    HW216851   0.544   0.362   5.245
 1733SOL     OW16852   1.892   0.427   2.417
 1733SOL    HW116853   1.929   0.508   2.372
 1733SOL    HW216854   1.935   0.416   2.507
 1734SOL     OW16855   0.522   7.776   3.783
 1734SOL    HW116856   0.475   7.863   3.798
 1734SOL    HW216857   0.620   7.791   3.772
 1735SOL     OW16858   3.436   6.063   4.359
 1735SOL    HW116859   3.531   6.073   4.330
 1735SOL    HW216860   3.432   6.012   4.445
 1736SOL     OW16861   2.774   8.528   5.271
 1736SOL    HW116862   2.792   8.504   5.175
 1736SOL    HW216863   2.712   8.606   5.274
 1737SOL     OW16864   7.706   6.349   5.125
 1737SOL    HW116865   7.713   6.447   5.111
 1737SOL    HW216866   7.658   6.308   5.047
 1738SOL     OW16867   8.450   0.690   1.249
 1738SOL    HW116868   8.458   0.758   1.322
 1738SOL    HW216869   8.506   0.611   1.272
 1739SOL     OW16870   9.505   3.928   1.408
 1739SOL    HW116871   9.500   3.984   1.490
 1739SOL    HW216872   9.475   3.835   1.429
 1740SOL     OW16873   5.708   3.991   1.808
 1740SOL    HW116874   5.653   4.050   1.749
 1740SOL    HW216875   5.801   4.027   1.815
 1741SOL     OW16876   4.041   3.146   7.175
 1741SOL    HW116877   3.942   3.143   7.163
 1741SOL    HW216878   4.069   3.081   7.246
 1742SOL     OW16879   3.257   8.610   6.645
 1742SOL    HW116880   3.212   8.521   6.641
 1742SOL    HW216881   3.354   8.600   6.621
 1743SOL     OW16882   4.078   1.617   4.934
 1743SOL    HW116883   4.062   1.697   4.992
 1743SOL    HW216884   4.123   1.546   4.988
 1744SOL     OW16885   6.806   6.950   5.847
 1744SOL    HW116886   6.728   6.930   5.788
 1744SOL    HW216887   6.777   7.010   5.921
 1745SOL     OW16888   2.120   3.540   3.087
 1745SOL    HW116889   2.034   3.489   3.095
 1745SOL    HW216890   2.192   3.477   3.059
 1746SOL     OW16891   8.120   6.168   6.313
 1746SOL    HW116892   8.053   6.200   6.381
 1746SOL    HW216893   8.212   6.186   6.347
 1747SOL     OW16894   3.575   0.963   1.167
 1747SOL    HW116895   3.637   1.022   1.115
 1747SOL    HW216896   3.530   1.016   1.239
 1748SOL     OW16897   2.161   8.836   5.025
 1748SOL    HW116898   2.161   8.804   4.930
 1748SOL    HW216899   2.068   8.852   5.056
 1749SOL     OW16900   7.585   0.156   5.518
 1749SOL    HW116901   7.599   0.255   5.508
 1749SOL    HW216902   7.633   0.108   5.445
 1750SOL     OW16903   7.907   1.377   6.997
 1750SOL    HW116904   7.979   1.344   7.058
 1750SOL    HW216905   7.819   1.339   7.024
 1751SOL     OW16906   4.071   5.797   2.048
 1751SOL    HW116907   4.004   5.747   1.992
 1751SOL    HW216908   4.159   5.748   2.046
 1752SOL     OW16909   3.266   8.475   7.514
 1752SOL    HW116910   3.313   8.387   7.502
 1752SOL    HW216911   3.169   8.458   7.534
 1753SOL     OW16912   1.632   9.732   3.571
 1753SOL    HW116913   1.583   9.792   3.509
 1753SOL    HW216914   1.711   9.692   3.524
 1754SOL     OW16915   5.374   6.133   0.561
 1754SOL    HW116916   5.422   6.198   0.620
 1754SOL    HW216917   5.300   6.179   0.512
 1755SOL     OW16918   9.936   8.690   4.595
 1755SOL    HW116919   0.004   8.720   4.663
 1755SOL    HW216920   9.943   8.747   4.514
 1756SOL     OW16921   1.849   8.764   3.753
 1756SOL    HW116922   1.912   8.761   3.675
 1756SOL    HW216923   1.897   8.736   3.836
 1757SOL     OW16924   3.887   3.818   6.657
 1757SOL    HW116925   3.866   3.913   6.682
 1757SOL    HW216926   3.978   3.814   6.616
 1758SOL     OW16927   4.038   8.803   2.775
 1758SOL    HW116928   4.097   8.760   2.707
 1758SOL    HW216929   4.092   8.865   2.831
 1759SOL     OW16930   1.021   3.664   0.237
 1759SOL    HW116931   0.993   3.715   0.318
 1759SOL    HW216932   1.113   3.693   0.210
 1760SOL     OW16933   4.053   1.303   3.399
 1760SOL    HW116934   4.118   1.371   3.434
 1760SOL    HW216935   4.048   1.227   3.463
 1761SOL     OW16936   2.118   4.555   3.172
 1761SOL    HW116937   2.027   4.592   3.152
 1761SOL    HW216938   2.126   4.464   3.132
 1762SOL     OW16939   2.425   0.691   1.188
 1762SOL    HW116940   2.406   0.594   1.203
 1762SOL    HW216941   2.380   0.745   1.259
 1763SOL     OW16942   1.717   6.178   6.863
 1763SOL    HW116943   1.811   6.174   6.831
 1763SOL    HW216944   1.699   6.100   6.923
 1764SOL     OW16945   3.795   3.280   4.507
 1764SOL    HW116946   3.742   3.205   4.547
 1764SOL    HW216947   3.796   3.358   4.570
 1765SOL     OW16948   0.337   1.798   4.109
 1765SOL    HW116949   0.393   1.810   4.027
 1765SOL    HW216950   0.279   1.717   4.098
 1766SOL     OW16951   6.531   4.406   2.000
 1766SOL    HW116952   6.434   4.396   2.023
 1766SOL    HW216953   6.557   4.502   2.007
 1767SOL     OW16954   7.133   3.468   7.598
 1767SOL    HW116955   7.122   3.445   7.695
 1767SOL    HW216956   7.113   3.566   7.585
 1768SOL     OW16957   7.634   1.925   5.548
 1768SOL    HW116958   7.576   2.005   5.558
 1768SOL    HW216959   7.696   1.919   5.626
 1769SOL     OW16960   9.515   2.315   2.728
 1769SOL    HW116961   9.482   2.325   2.634
 1769SOL    HW216962   9.607   2.278   2.727
 1770SOL     OW16963   0.562   3.734   1.452
 1770SOL    HW116964   0.471   3.774   1.459
 1770SOL    HW216965   0.621   3.795   1.399
 1771SOL     OW16966   2.041   5.691   0.528
 1771SOL    HW116967   2.022   5.645   0.615
 1771SOL    HW216968   2.095   5.630   0.470
 1772SOL     OW16969   0.643   3.408   3.275
 1772SOL    HW116970   0.610   3.328   3.326
 1772SOL    HW216971   0.617   3.492   3.323
 1773SOL     OW16972   8.680   4.930   0.451
 1773SOL    HW116973   8.679   4.841   0.405
 1773SOL    HW216974   8.738   4.994   0.400
 1774SOL     OW16975   2.761   3.230   6.826
 1774SOL    HW116976   2.733   3.218   6.921
 1774SOL    HW216977   2.777   3.328   6.809
 1775SOL     OW16978   3.823   6.942   1.446
 1775SOL    HW116979   3.874   7.027   1.454
 1775SOL    HW216980   3.878   6.874   1.397
 1776SOL     OW16981   9.568   3.218   3.903
 1776SOL    HW116982   9.587   3.120   3.911
 1776SOL    HW216983   9.470   3.232   3.889
 1777SOL     OW16984   5.539   5.999   0.877
 1777SOL    HW116985   5.631   6.002   0.840
 1777SOL    HW216986   5.513   5.904   0.895
 1778SOL     OW16987   7.489   1.805   3.227
 1778SOL    HW116988   7.403   1.847   3.256
 1778SOL    HW216989   7.471   1.739   3.155
 1779SOL     OW16990   5.255   2.945   0.642
 1779SOL    HW116991   5.242   2.858   0.594
 1779SOL    HW216992   5.295   2.928   0.732
 1780SOL     OW16993   6.747   2.801   0.973
 1780SOL    HW116994   6.796   2.880   1.009
 1780SOL    HW216995   6.795   2.717   0.998
 1781SOL     OW16996   0.427   6.244   4.072
 1781SOL    HW116997   0.384   6.310   4.133
 1781SOL    HW216998   0.484   6.181   4.125
 1782SOL     OW16999   4.413   0.439   6.605
 1782SOL    HW117000   4.457   0.528   6.592
 1782SOL    HW217001   4.393   0.398   6.516
 1783SOL     OW17002   6.371   7.854   4.113
 1783SOL    HW117003   6.448   7.913   4.091
 1783SOL    HW217004   6.374   7.830   4.210
 1784SOL     OW17005   6.512   9.990   2.055
 1784SOL    HW117006   6.594   0.031   2.016
 1784SOL    HW217007   6.459   9.946   1.983
 1785SOL     OW17008   7.526   8.067   6.636
 1785SOL    HW117009   7.615   8.044   6.596
 1785SOL    HW217010   7.528   8.161   6.669
 1786SOL     OW17011   3.761   9.773   2.938
 1786SOL    HW117012   3.828   9.828   2.987
 1786SOL    HW217013   3.804   9.731   2.858
 1787SOL     OW17014   8.116   7.465   5.505
 1787SOL    HW117015   8.205   7.425   5.523
 1787SOL    HW217016   8.079   7.427   5.420
 1788SOL     OW17017   3.397   2.525   2.886
 1788SOL    HW117018   3.369   2.477   2.804
 1788SOL    HW217019   3.362   2.478   2.967
 1789SOL     OW17020   8.585   3.058   3.800
 1789SOL    HW117021   8.649   3.086   3.729
 1789SOL    HW217022   8.514   2.999   3.761
 1790SOL     OW17023   7.452   8.309   7.468
 1790SOL    HW117024   7.539   8.357   7.479
 1790SOL    HW217025   7.377   8.375   7.469
 1791SOL     OW17026   2.391   2.606   5.592
 1791SOL    HW117027   2.437   2.689   5.561
 1791SOL    HW217028   2.424   2.581   5.683
 1792SOL     OW17029   7.780   4.187   3.442
 1792SOL    HW117030   7.801   4.132   3.523
 1792SOL    HW217031   7.834   4.271   3.444
 1793SOL     OW17032   3.767   4.613   5.629
 1793SOL    HW117033   3.836   4.685   5.643
 1793SOL    HW217034   3.810   4.524   5.640
 1794SOL     OW17035   7.387   5.704   6.585
 1794SOL    HW117036   7.368   5.797   6.616
 1794SOL    HW217037   7.463   5.705   6.520
 1795SOL     OW17038   0.022   7.785   5.667
 1795SOL    HW117039   0.121   7.784   5.653
 1795SOL    HW217040   9.995   7.706   5.722
 1796SOL     OW17041   1.375   7.811   1.465
 1796SOL    HW117042   1.278   7.790   1.476
 1796SOL    HW217043   1.428   7.727   1.467
 1797SOL     OW17044   0.415   5.918   6.598
 1797SOL    HW117045   0.426   5.941   6.502
 1797SOL    HW217046   0.471   5.839   6.621
 1798SOL     OW17047   8.496   9.693   0.527
 1798SOL    HW117048   8.457   9.674   0.436
 1798SOL    HW217049   8.440   9.650   0.597
 1799SOL     OW17050   2.857   2.700   7.225
 1799SOL    HW117051   2.777   2.687   7.167
 1799SOL    HW217052   2.928   2.748   7.173
 1800SOL     OW17053   3.480   6.862   3.994
 1800SOL    HW117054   3.408   6.797   4.021
 1800SOL    HW217055   3.517   6.835   3.905
 1801SOL     OW17056   3.529   8.608   6.592
 1801SOL    HW117057   3.530   8.607   6.692
 1801SOL    HW217058   3.620   8.632   6.557
 1802SOL     OW17059   1.105   5.613   5.846
 1802SOL    HW117060   1.169   5.685   5.871
 1802SOL    HW217061   1.141   5.561   5.769
 1803SOL     OW17062   8.966   6.939   2.378
 1803SOL    HW117063   8.875   6.929   2.338
 1803SOL    HW217064   8.975   7.030   2.419
 1804SOL     OW17065   3.801   2.100   1.802
 1804SOL    HW117066   3.815   2.192   1.766
 1804SOL    HW217067   3.713   2.095   1.849
 1805SOL     OW17068   2.504   3.426   1.448
 1805SOL    HW117069   2.577   3.480   1.407
 1805SOL    HW217070   2.437   3.402   1.378
 1806SOL     OW17071   0.912   6.974   1.314
 1806SOL    HW117072   0.821   6.958   1.352
 1806SOL    HW217073   0.957   6.886   1.297
 1807SOL     OW17074   8.055   8.357   4.348
 1807SOL    HW117075   7.958   8.371   4.367
 1807SOL    HW217076   8.083   8.415   4.271
 1808SOL     OW17077   3.030   5.061   5.322
 1808SOL    HW117078   3.090   5.136   5.293
 1808SOL    HW217079   2.958   5.097   5.381
 1809SOL     OW17080   0.886   8.708   0.850
 1809SOL    HW117081   0.920   8.635   0.792
 1809SOL    HW217082   0.922   8.796   0.817
 1810SOL     OW17083   3.577   9.856   2.046
 1810SOL    HW117084   3.663   9.904   2.061
 1810SOL    HW217085   3.550   9.808   2.130
 1811SOL     OW17086   2.481   0.658   7.761
 1811SOL    HW117087   2.556   0.722   7.781
 1811SOL    HW217088   2.394   0.706   7.769
 1812SOL     OW17089   8.810   4.194   2.882
 1812SOL    HW117090   8.906   4.223   2.885
 1812SOL    HW217091   8.791   4.134   2.960
 1813SOL     OW17092   9.868   9.456   6.569
 1813SOL    HW117093   9.948   9.462   6.509
 1813SOL    HW217094   9.868   9.367   6.615
 1814SOL     OW17095   9.034   9.894   6.219
 1814SOL    HW117096   8.987   9.981   6.206
 1814SOL    HW217097   9.133   9.908   6.216
 1815SOL     OW17098   0.059   0.450   7.510
 1815SOL    HW117099   0.094   0.426   7.419
 1815SOL    HW217100   0.058   0.368   7.568
 1816SOL     OW17101   2.137   6.237   1.458
 1816SOL    HW117102   2.077   6.279   1.525
 1816SOL    HW217103   2.093   6.239   1.368
 1817SOL     OW17104   8.332   8.201   1.722
 1817SOL    HW117105   8.364   8.112   1.755
 1817SOL    HW217106   8.357   8.214   1.627
 1818SOL     OW17107   1.664   4.182   1.620
 1818SOL    HW117108   1.594   4.169   1.690
 1818SOL    HW217109   1.661   4.277   1.587
 1819SOL     OW17110   9.789   1.539   0.079
 1819SOL    HW117111   9.785   1.635   0.049
 1819SOL    HW217112   9.726   1.525   0.156
 1820SOL     OW17113   1.824   1.262   5.299
 1820SOL    HW117114   1.825   1.243   5.200
 1820SOL    HW217115   1.740   1.225   5.339
 1821SOL     OW17116   4.568   1.787   1.013
 1821SOL    HW117117   4.513   1.870   1.019
 1821SOL    HW217118   4.520   1.712   1.058
 1822SOL     OW17119   6.805   7.306   5.852
 1822SOL    HW117120   6.903   7.286   5.856
 1822SOL    HW217121   6.758   7.256   5.925
 1823SOL     OW17122   0.138   7.023   1.558
 1823SOL    HW117123   0.190   7.047   1.476
 1823SOL    HW217124   0.146   6.925   1.576
 1824SOL     OW17125   0.958   0.874   4.995
 1824SOL    HW117126   1.032   0.807   4.995
 1824SOL    HW217127   0.955   0.920   5.084
 1825SOL     OW17128   9.887   1.613   7.833
 1825SOL    HW117129   9.800   1.576   7.799
 1825SOL    HW217130   9.962   1.554   7.803
 1826SOL     OW17131   8.267   6.346   1.249
 1826SOL    HW117132   8.358   6.374   1.281
 1826SOL    HW217133   8.197   6.401   1.294
 1827SOL     OW17134   7.271   8.983   6.966
 1827SOL    HW117135   7.280   8.892   6.926
 1827SOL    HW217136   7.200   8.981   7.036
 1828SOL     OW17137   5.042   0.708   3.622
 1828SOL    HW117138   5.052   0.627   3.681
 1828SOL    HW217139   5.008   0.785   3.676
 1829SOL     OW17140   7.718   6.995   4.828
 1829SOL    HW117141   7.692   6.899   4.829
 1829SOL    HW217142   7.818   7.003   4.831
 1830SOL     OW17143   6.257   3.305   2.162
 1830SOL    HW117144   6.233   3.305   2.259
 1830SOL    HW217145   6.228   3.219   2.120
 1831SOL     OW17146   5.389   9.566   2.173
 1831SOL    HW117147   5.397   9.649   2.118
 1831SOL    HW217148   5.385   9.590   2.270
 1832SOL     OW17149   3.301   4.400   4.917
 1832SOL    HW117150   3.270   4.394   4.822
 1832SOL    HW217151   3.334   4.310   4.947
 1833SOL     OW17152   0.319   8.202   4.451
 1833SOL    HW117153   0.240   8.141   4.445
 1833SOL    HW217154   0.366   8.205   4.363
 1834SOL     OW17155   8.299   4.586   5.417
 1834SOL    HW117156   8.382   4.531   5.417
 1834SOL    HW217157   8.306   4.659   5.485
 1835SOL     OW17158   2.008   9.365   6.555
 1835SOL    HW117159   1.999   9.299   6.481
 1835SOL    HW217160   2.097   9.356   6.598
 1836SOL     OW17161   1.391   3.303   5.611
 1836SOL    HW117162   1.319   3.310   5.680
 1836SOL    HW217163   1.361   3.348   5.527
 1837SOL     OW17164   9.675   4.118   1.815
 1837SOL    HW117165   9.766   4.078   1.822
 1837SOL    HW217166   9.629   4.113   1.904
 1838SOL     OW17167   2.175   0.801   0.520
 1838SOL    HW117168   2.174   0.883   0.462
 1838SOL    HW217169   2.262   0.796   0.569
 1839SOL     OW17170   3.197   5.138   7.106
 1839SOL    HW117171   3.118   5.078   7.100
 1839SOL    HW217172   3.167   5.230   7.133
 1840SOL     OW17173   7.354   5.205   3.528
 1840SOL    HW117174   7.314   5.269   3.462
 1840SOL    HW217175   7.437   5.245   3.567
 1841SOL     OW17176   9.392   0.766   1.138
 1841SOL    HW117177   9.359   0.680   1.101
 1841SOL    HW217178   9.475   0.795   1.089
 1842SOL     OW17179   4.522   9.731   5.564
 1842SOL    HW117180   4.512   9.812   5.507
 1842SOL    HW217181   4.595   9.673   5.528
 1843SOL     OW17182   5.308   0.448   5.881
 1843SOL    HW117183   5.224   0.464   5.831
 1843SOL    HW217184   5.307   0.501   5.966
 1844SOL     OW17185   0.186   0.498   0.234
 1844SOL    HW117186   0.259   0.431   0.248
 1844SOL    HW217187   0.224   0.590   0.242
 1845SOL     OW17188   7.202   7.867   4.493
 1845SOL    HW117189   7.225   7.792   4.431
 1845SOL    HW217190   7.176   7.948   4.440
 1846SOL     OW17191   4.686   1.053   1.987
 1846SOL    HW117192   4.656   1.042   1.893
 1846SOL    HW217193   4.630   1.121   2.033
 1847SOL     OW17194   5.827   1.068   4.570
 1847SOL    HW117195   5.823   1.159   4.529
 1847SOL    HW217196   5.746   1.015   4.541
 1848SOL     OW17197   2.979   1.661   5.097
 1848SOL    HW117198   2.918   1.595   5.140
 1848SOL    HW217199   2.983   1.744   5.153
 1849SOL     OW17200   8.859   8.149   2.982
 1849SOL    HW117201   8.827   8.232   2.938
 1849SOL    HW217202   8.879   8.079   2.913
 1850SOL     OW17203   9.932   8.208   4.341
 1850SOL    HW117204   9.999   8.137   4.363
 1850SOL    HW217205   9.913   8.262   4.423
 1851SOL     OW17206   5.450   8.136   4.077
 1851SOL    HW117207   5.495   8.147   4.166
 1851SOL    HW217208   5.441   8.225   4.032
 1852SOL     OW17209   9.492   1.061   3.952
 1852SOL    HW117210   9.450   1.003   4.022
 1852SOL    HW217211   9.436   1.143   3.939
 1853SOL     OW17212   9.034   8.603   2.769
 1853SOL    HW117213   9.077   8.682   2.723
 1853SOL    HW217214   9.032   8.525   2.706
 1854SOL     OW17215   7.972   1.783   5.901
 1854SOL    HW117216   7.967   1.691   5.864
 1854SOL    HW217217   7.950   1.782   5.998
 1855SOL     OW17218   0.389   7.271   5.540
 1855SOL    HW117219   0.462   7.258   5.472
 1855SOL    HW217220   0.392   7.195   5.605
 1856SOL     OW17221   3.574   4.021   6.792
 1856SOL    HW117222   3.664   4.029   6.749
 1856SOL    HW217223   3.521   4.105   6.775
 1857SOL     OW17224   4.071   8.307   7.484
 1857SOL    HW117225   3.980   8.300   7.442
 1857SOL    HW217226   4.064   8.291   7.582
 1858SOL     OW17227   1.238   1.820   3.434
 1858SOL    HW117228   1.253   1.780   3.525
 1858SOL    HW217229   1.173   1.896   3.442
 1859SOL     OW17230   9.835   0.081   2.358
 1859SOL    HW117231   9.782   0.154   2.401
 1859SOL    HW217232   9.777   0.031   2.294
 1860SOL     OW17233   1.139   0.666   5.053
 1860SOL    HW117234   1.089   0.643   5.137
 1860SOL    HW217235   1.171   0.581   5.010
 1861SOL     OW17236   3.437   9.426   7.868
 1861SOL    HW117237   3.476   9.516   7.849
 1861SOL    HW217238   3.510   9.357   7.862
 1862SOL     OW17239   3.825   6.716   4.861
 1862SOL    HW117240   3.779   6.694   4.947
 1862SOL    HW217241   3.840   6.633   4.809
 1863SOL     OW17242   4.456   7.395   0.864
 1863SOL    HW117243   4.476   7.420   0.958
 1863SOL    HW217244   4.409   7.471   0.819
 1864SOL     OW17245   7.654   2.367   1.601
 1864SOL    HW117246   7.615   2.339   1.513
 1864SOL    HW217247   7.584   2.414   1.655
 1865SOL     OW17248   7.354   9.992   2.612
 1865SOL    HW117249   7.349   9.914   2.550
 1865SOL    HW217250   7.291   9.977   2.689
 1866SOL     OW17251   2.662   0.501   2.777
 1866SOL    HW117252   2.759   0.483   2.788
 1866SOL    HW217253   2.609   0.430   2.824
 1867SOL     OW17254   4.362   2.277   0.440
 1867SOL    HW117255   4.357   2.279   0.540
 1867SOL    HW217256   4.273   2.253   0.403
 1868SOL     OW17257   3.294   4.615   7.308
 1868SOL    HW117258   3.339   4.526   7.299
 1868SOL    HW217259   3.316   4.654   7.397
 1869SOL     OW17260   6.542   0.771   4.055
 1869SOL    HW117261   6.545   0.871   4.053
 1869SOL    HW217262   6.634   0.735   4.039
 1870SOL     OW17263   1.975   6.078   0.132
 1870SOL    HW117264   2.017   6.097   0.221
 1870SOL    HW217265   2.038   6.023   0.076
 1871SOL     OW17266   6.268   1.808   1.884
 1871SOL    HW117267   6.318   1.750   1.948
 1871SOL    HW217268   6.328   1.881   1.851
 1872SOL     OW17269   7.169   1.875   3.925
 1872SOL    HW117270   7.218   1.912   4.004
 1872SOL    HW217271   7.142   1.949   3.864
 1873SOL     OW17272   9.245   1.942   0.466
 1873SOL    HW117273   9.223   2.034   0.498
 1873SOL    HW217274   9.209   1.929   0.374
 1874SOL     OW17275   2.630   3.354   5.256
 1874SOL    HW117276   2.643   3.432   5.317
 1874SOL    HW217277   2.636   3.385   5.161
 1875SOL     OW17278   8.218   9.817   4.724
 1875SOL    HW117279   8.206   9.773   4.635
 1875SOL    HW217280   8.280   9.762   4.780
 1876SOL     OW17281   0.359   6.776   1.990
 1876SOL    HW117282   0.426   6.839   2.029
 1876SOL    HW217283   0.378   6.764   1.892
 1877SOL     OW17284   4.023   1.570   1.323
 1877SOL    HW117285   3.968   1.579   1.240
 1877SOL    HW217286   4.029   1.474   1.350
 1878SOL     OW17287   2.302   8.457   3.197
 1878SOL    HW117288   2.326   8.362   3.175
 1878SOL    HW217289   2.385   8.514   3.189
 1879SOL     OW17290   8.807   1.755   5.199
 1879SOL    HW117291   8.876   1.794   5.138
 1879SOL    HW217292   8.841   1.669   5.236
 1880SOL     OW17293   8.429   7.727   7.050
 1880SOL    HW117294   8.431   7.627   7.057
 1880SOL    HW217295   8.515   7.759   7.011
 1881SOL     OW17296   2.948   7.701   2.059
 1881SOL    HW117297   2.930   7.607   2.029
 1881SOL    HW217298   3.047   7.716   2.064
 1882SOL     OW17299   5.878   8.191   3.600
 1882SOL    HW117300   5.819   8.112   3.586
 1882SOL    HW217301   5.876   8.217   3.697
 1883SOL     OW17302   1.901   4.789   0.326
 1883SOL    HW117303   1.954   4.724   0.380
 1883SOL    HW217304   1.960   4.831   0.256
 1884SOL     OW17305   6.976   8.942   4.184
 1884SOL    HW117306   6.970   8.876   4.259
 1884SOL    HW217307   6.977   9.035   4.221
 1885SOL     OW17308   7.714   6.921   1.375
 1885SOL    HW117309   7.673   6.987   1.437
 1885SOL    HW217310   7.803   6.892   1.411
 1886SOL     OW17311   4.588   6.029   2.941
 1886SOL    HW117312   4.511   6.016   3.004
 1886SOL    HW217313   4.647   6.102   2.975
 1887SOL     OW17314   8.464   0.635   7.696
 1887SOL    HW117315   8.418   0.619   7.609
 1887SOL    HW217316   8.455   0.731   7.721
 1888SOL     OW17317   1.240   8.934   6.610
 1888SOL    HW117318   1.201   8.916   6.519
 1888SOL    HW217319   1.292   8.854   6.640
 1889SOL     OW17320   9.993   1.444   6.504
 1889SOL    HW117321   9.996   1.346   6.522
 1889SOL    HW217322   9.898   1.473   6.495
 1890SOL     OW17323   2.880   6.266   3.911
 1890SOL    HW117324   2.908   6.274   3.815
 1890SOL    HW217325   2.826   6.183   3.922
 1891SOL     OW17326   0.553   6.575   4.099
 1891SOL    HW117327   0.553   6.530   4.010
 1891SOL    HW217328   0.490   6.528   4.161
 1892SOL     OW17329   8.624   7.176   1.936
 1892SOL    HW117330   8.719   7.190   1.907
 1892SOL    HW217331   8.605   7.231   2.017
 1893SOL     OW17332   0.123   7.495   6.037
 1893SOL    HW117333   0.218   7.492   6.067
 1893SOL    HW217334   0.082   7.404   6.045
 1894SOL     OW17335   9.258   2.495   2.585
 1894SOL    HW117336   9.171   2.472   2.542
 1894SOL    HW217337   9.331   2.441   2.543
 1895SOL     OW17338   5.334   3.920   0.222
 1895SOL    HW117339   5.339   3.892   0.318
 1895SOL    HW217340   5.357   3.843   0.163
 1896SOL     OW17341   8.376   7.717   2.945
 1896SOL    HW117342   8.356   7.726   2.848
 1896SOL    HW217343   8.474   7.701   2.957
 1897SOL     OW17344   2.652   7.276   2.329
 1897SOL    HW117345   2.579   7.213   2.354
 1897SOL    HW217346   2.634   7.366   2.369
 1898SOL     OW17347   5.006   8.765   3.375
 1898SOL    HW117348   4.983   8.856   3.410
 1898SOL    HW217349   5.040   8.709   3.449
 1899SOL     OW17350   3.615   7.035   5.368
 1899SOL    HW117351   3.577   7.095   5.438
 1899SOL    HW217352   3.713   7.053   5.358
 1900SOL     OW17353   1.481   4.313   0.586
 1900SOL    HW117354   1.418   4.323   0.663
 1900SOL    HW217355   1.497   4.216   0.568
 1901SOL     OW17356   9.711   3.409   2.900
 1901SOL    HW117357   9.626   3.370   2.866
 1901SOL    HW217358   9.775   3.335   2.921
 1902SOL     OW17359   3.640   7.321   6.179
 1902SOL    HW117360   3.605   7.293   6.268
 1902SOL    HW217361   3.666   7.241   6.126
 1903SOL     OW17362   6.433   0.915   0.894
 1903SOL    HW117363   6.380   0.832   0.881
 1903SOL    HW217364   6.514   0.895   0.949
 1904SOL     OW17365   0.633   4.032   1.802
 1904SOL    HW117366   0.621   3.945   1.849
 1904SOL    HW217367   0.729   4.058   1.804
 1905SOL     OW17368   7.934   1.980   2.097
 1905SOL    HW117369   7.882   1.951   2.017
 1905SOL    HW217370   7.897   2.067   2.131
 1906SOL     OW17371   3.128   0.937   1.205
 1906SOL    HW117372   3.140   0.991   1.121
 1906SOL    HW217373   3.077   0.991   1.272
 1907SOL     OW17374   9.484   5.806   1.423
 1907SOL    HW117375   9.460   5.731   1.361
 1907SOL    HW217376   9.581   5.798   1.449
 1908SOL     OW17377   9.585   9.585   5.285
 1908SOL    HW117378   9.609   9.601   5.381
 1908SOL    HW217379   9.563   9.489   5.272
 1909SOL     OW17380   2.678   2.531   3.820
 1909SOL    HW117381   2.671   2.549   3.722
 1909SOL    HW217382   2.673   2.617   3.870
 1910SOL     OW17383   0.621   1.484   1.789
 1910SOL    HW117384   0.671   1.399   1.775
 1910SOL    HW217385   0.548   1.492   1.721
 1911SOL     OW17386   8.551   4.368   6.166
 1911SOL    HW117387   8.628   4.410   6.215
 1911SOL    HW217388   8.584   4.289   6.114
 1912SOL     OW17389   7.646   7.631   1.774
 1912SOL    HW117390   7.625   7.534   1.786
 1912SOL    HW217391   7.624   7.680   1.858
 1913SOL     OW17392   8.799   0.093   4.682
 1913SOL    HW117393   8.749   0.015   4.644
 1913SOL    HW217394   8.888   0.062   4.717
 1914SOL     OW17395   7.606   8.208   6.967
 1914SOL    HW117396   7.698   8.244   6.953
 1914SOL    HW217397   7.611   8.113   6.999
 1915SOL     OW17398   5.043   9.563   2.466
 1915SOL    HW117399   4.998   9.593   2.550
 1915SOL    HW217400   5.123   9.506   2.489
 1916SOL     OW17401   3.289   6.432   6.564
 1916SOL    HW117402   3.322   6.514   6.612
 1916SOL    HW217403   3.234   6.459   6.485
 1917SOL     OW17404   0.411   5.238   1.617
 1917SOL    HW117405   0.367   5.214   1.530
 1917SOL    HW217406   0.357   5.200   1.692
 1918SOL     OW17407   8.957   1.046   4.991
 1918SOL    HW117408   9.037   1.036   4.931
 1918SOL    HW217409   8.874   1.030   4.938
 1919SOL     OW17410   5.028   2.190   7.242
 1919SOL    HW117411   5.071   2.101   7.257
 1919SOL    HW217412   5.060   2.254   7.313
 1920SOL     OW17413   8.430   9.911   2.996
 1920SOL    HW117414   8.412   9.873   2.906
 1920SOL    HW217415   8.349   9.959   3.028
 1921SOL     OW17416   2.566   8.489   4.909
 1921SOL    HW117417   2.518   8.522   4.991
 1921SOL    HW217418   2.662   8.473   4.931
 1922SOL     OW17419   2.833   5.021   6.174
 1922SOL    HW117420   2.800   5.112   6.197
 1922SOL    HW217421   2.909   5.028   6.109
 1923SOL     OW17422   6.005   1.875   1.930
 1923SOL    HW117423   5.998   1.934   2.010
 1923SOL    HW217424   6.100   1.848   1.916
 1924SOL     OW17425   8.283   6.614   3.046
 1924SOL    HW117426   8.242   6.701   3.020
 1924SOL    HW217427   8.215   6.558   3.093
 1925SOL     OW17428   3.015   8.051   7.066
 1925SOL    HW117429   3.112   8.024   7.062
 1925SOL    HW217430   2.963   7.980   7.114
 1926SOL     OW17431   3.589   6.515   4.448
 1926SOL    HW117432   3.496   6.480   4.456
 1926SOL    HW217433   3.597   6.569   4.364
 1927SOL     OW17434   0.276   5.837   7.441
 1927SOL    HW117435   0.264   5.897   7.363
 1927SOL    HW217436   0.335   5.760   7.416
 1928SOL     OW17437   7.138   0.287   4.245
 1928SOL    HW117438   7.100   0.253   4.331
 1928SOL    HW217439   7.189   0.214   4.200
 1929SOL     OW17440   3.758   1.380   1.556
 1929SOL    HW117441   3.831   1.446   1.576
 1929SOL    HW217442   3.669   1.422   1.576
 1930SOL     OW17443   7.326   2.831   4.328
 1930SOL    HW117444   7.354   2.739   4.303
 1930SOL    HW217445   7.377   2.898   4.274
 1931SOL     OW17446   1.993   9.820   4.747
 1931SOL    HW117447   1.939   9.737   4.755
 1931SOL    HW217448   2.055   9.828   4.825
 1932SOL     OW17449   3.394   8.625   3.668
 1932SOL    HW117450   3.368   8.532   3.694
 1932SOL    HW217451   3.481   8.622   3.620
 1933SOL     OW17452   7.827   6.716   0.904
 1933SOL    HW117453   7.881   6.638   0.936
 1933SOL    HW217454   7.812   6.780   0.979
 1934SOL     OW17455   1.875   5.654   2.622
 1934SOL    HW117456   1.856   5.704   2.706
 1934SOL    HW217457   1.881   5.717   2.545
 1935SOL     OW17458   0.347   7.093   6.697
 1935SOL    HW117459   0.384   7.186   6.692
 1935SOL    HW217460   0.274   7.089   6.765
 1936SOL     OW17461   1.088   3.769   1.939
 1936SOL    HW117462   1.032   3.742   1.860
 1936SOL    HW217463   1.114   3.865   1.929
 1937SOL     OW17464   1.640   4.599   6.128
 1937SOL    HW117465   1.682   4.655   6.056
 1937SOL    HW217466   1.684   4.619   6.215
 1938SOL     OW17467   0.639   0.472   0.270
 1938SOL    HW117468   0.739   0.468   0.267
 1938SOL    HW217469   0.603   0.479   0.177
 1939SOL     OW17470   3.404   7.208   7.576
 1939SOL    HW117471   3.325   7.166   7.621
 1939SOL    HW217472   3.460   7.255   7.645
 1940SOL     OW17473   0.320   4.620   6.579
 1940SOL    HW117474   0.300   4.613   6.677
 1940SOL    HW217475   0.270   4.697   6.540
 1941SOL     OW17476   1.012   1.836   2.723
 1941SOL    HW117477   0.946   1.882   2.664
 1941SOL    HW217478   0.990   1.855   2.818
 1942SOL     OW17479   1.261   4.659   7.592
 1942SOL    HW117480   1.239   4.735   7.653
 1942SOL    HW217481   1.266   4.574   7.646
 1943SOL     OW17482   9.520   6.013   4.482
 1943SOL    HW117483   9.595   6.021   4.547
 1943SOL    HW217484   9.440   6.063   4.517
 1944SOL     OW17485   2.542   3.910   0.803
 1944SOL    HW117486   2.507   3.883   0.893
 1944SOL    HW217487   2.482   3.872   0.732
 1945SOL     OW17488   0.609   5.100   7.057
 1945SOL    HW117489   0.518   5.115   7.096
 1945SOL    HW217490   0.673   5.075   7.131
 1946SOL     OW17491   1.042   5.755   0.427
 1946SOL    HW117492   1.093   5.812   0.492
 1946SOL    HW217493   1.006   5.813   0.354
 1947SOL     OW17494   4.574   7.591   1.808
 1947SOL    HW117495   4.647   7.655   1.832
 1947SOL    HW217496   4.566   7.522   1.880
 1948SOL     OW17497   1.893   7.453   4.167
 1948SOL    HW117498   1.846   7.413   4.246
 1948SOL    HW217499   1.905   7.551   4.180
 1949SOL     OW17500   2.951   1.009   7.710
 1949SOL    HW117501   3.039   0.978   7.745
 1949SOL    HW217502   2.947   0.995   7.611
 1950SOL     OW17503   4.338   2.381   5.827
 1950SOL    HW117504   4.425   2.350   5.866
 1950SOL    HW217505   4.291   2.303   5.785
 1951SOL     OW17506   5.866   1.553   3.817
 1951SOL    HW117507   5.929   1.576   3.743
 1951SOL    HW217508   5.780   1.521   3.778
 1952SOL     OW17509   2.556   1.563   6.383
 1952SOL    HW117510   2.618   1.532   6.311
 1952SOL    HW217511   2.498   1.487   6.413
 1953SOL     OW17512   5.446   0.588   5.387
 1953SOL    HW117513   5.490   0.640   5.460
 1953SOL    HW217514   5.361   0.548   5.422
 1954SOL     OW17515   0.669   8.184   1.896
 1954SOL    HW117516   0.599   8.116   1.874
 1954SOL    HW217517   0.751   8.166   1.841
 1955SOL     OW17518   1.037   6.653   0.281
 1955SOL    HW117519   1.076   6.679   0.369
 1955SOL    HW217520   0.943   6.622   0.293
 1956SOL     OW17521   6.185   5.202   1.001
 1956SOL    HW117522   6.252   5.234   1.068
 1956SOL    HW217523   6.151   5.280   0.948
 1957SOL     OW17524   4.671   0.419   6.297
 1957SOL    HW117525   4.722   0.469   6.367
 1957SOL    HW217526   4.655   0.325   6.329
 1958SOL     OW17527   0.555   3.899   7.729
 1958SOL    HW117528   0.524   3.815   7.775
 1958SOL    HW217529   0.609   3.954   7.792
 1959SOL     OW17530   8.536   1.966   7.857
 1959SOL    HW117531   8.602   1.940   7.786
 1959SOL    HW217532   8.470   1.892   7.869
 1960SOL     OW17533   1.464   5.356   3.850
 1960SOL    HW117534   1.550   5.407   3.847
 1960SOL    HW217535   1.474   5.277   3.910
 1961SOL     OW17536   0.897   7.296   4.686
 1961SOL    HW117537   0.978   7.306   4.628
 1961SOL    HW217538   0.902   7.210   4.737
 1962SOL     OW17539   1.761   6.993   4.105
 1962SOL    HW117540   1.850   6.955   4.081
 1962SOL    HW217541   1.735   7.062   4.037
 1963SOL     OW17542   7.844   3.627   0.947
 1963SOL    HW117543   7.759   3.655   0.902
 1963SOL    HW217544   7.860   3.686   1.026
 1964SOL     OW17545   2.593   6.266   6.803
 1964SOL    HW117546   2.562   6.290   6.895
 1964SOL    HW217547   2.528   6.302   6.736
 1965SOL     OW17548   2.673   5.965   4.503
 1965SOL    HW117549   2.624   6.023   4.439
 1965SOL    HW217550   2.770   5.960   4.476
 1966SOL     OW17551   3.486   8.121   6.860
 1966SOL    HW117552   3.509   8.113   6.957
 1966SOL    HW217553   3.527   8.204   6.823
 1967SOL     OW17554   3.576   3.154   6.275
 1967SOL    HW117555   3.539   3.200   6.195
 1967SOL    HW217556   3.651   3.093   6.248
 1968SOL     OW17557   4.175   3.174   6.695
 1968SOL    HW117558   4.158   3.081   6.665
 1968SOL    HW217559   4.269   3.200   6.672
 1969SOL     OW17560   1.632   8.430   5.201
 1969SOL    HW117561   1.725   8.419   5.235
 1969SOL    HW217562   1.623   8.385   5.112
 1970SOL     OW17563   6.211   0.242   2.942
 1970SOL    HW117564   6.112   0.233   2.948
 1970SOL    HW217565   6.249   0.160   2.899
 1971SOL     OW17566   3.652   8.682   1.097
 1971SOL    HW117567   3.698   8.710   1.013
 1971SOL    HW217568   3.606   8.594   1.082
 1972SOL     OW17569   4.425   3.463   5.762
 1972SOL    HW117570   4.366   3.443   5.684
 1972SOL    HW217571   4.520   3.470   5.731
 1973SOL     OW17572   2.382   9.151   4.879
 1973SOL    HW117573   2.292   9.193   4.864
 1973SOL    HW217574   2.451   9.223   4.888
 1974SOL     OW17575   6.946   5.124   0.178
 1974SOL    HW117576   6.927   5.130   0.276
 1974SOL    HW217577   6.916   5.035   0.143
 1975SOL     OW17578   2.305   3.035   3.542
 1975SOL    HW117579   2.265   3.126   3.550
 1975SOL    HW217580   2.405   3.042   3.546
 1976SOL     OW17581   3.643   1.442   3.129
 1976SOL    HW117582   3.679   1.395   3.049
 1976SOL    HW217583   3.559   1.398   3.160
 1977SOL     OW17584   0.791   5.469   7.103
 1977SOL    HW117585   0.837   5.385   7.130
 1977SOL    HW217586   0.804   5.539   7.173
 1978SOL     OW17587   9.219   1.558   4.382
 1978SOL    HW117588   9.145   1.492   4.394
 1978SOL    HW217589   9.246   1.561   4.285
 1979SOL     OW17590   7.703   2.282   3.070
 1979SOL    HW117591   7.648   2.322   2.997
 1979SOL    HW217592   7.675   2.187   3.085
 1980SOL     OW17593   0.184   6.664   4.205
 1980SOL    HW117594   0.172   6.763   4.194
 1980SOL    HW217595   0.121   6.631   4.275
 1981SOL     OW17596   2.306   7.724   2.635
 1981SOL    HW117597   2.331   7.821   2.630
 1981SOL    HW217598   2.311   7.685   2.543
 1982SOL     OW17599   9.817   2.873   7.786
 1982SOL    HW117600   9.878   2.810   7.834
 1982SOL    HW217601   9.839   2.967   7.813
 1983SOL     OW17602   0.332   0.941   4.345
 1983SOL    HW117603   0.382   1.004   4.286
 1983SOL    HW217604   0.290   0.992   4.420
 1984SOL     OW17605   1.932   1.283   7.540
 1984SOL    HW117606   1.993   1.253   7.614
 1984SOL    HW217607   1.972   1.258   7.452
 1985SOL     OW17608   7.143   0.083   5.550
 1985SOL    HW117609   7.155   0.177   5.582
 1985SOL    HW217610   7.113   0.025   5.626
 1986SOL     OW17611   0.736   0.259   3.170
 1986SOL    HW117612   0.727   0.192   3.096
 1986SOL    HW217613   0.645   0.276   3.209
 1987SOL     OW17614   7.961   5.178   7.243
 1987SOL    HW117615   7.924   5.179   7.150
 1987SOL    HW217616   8.049   5.130   7.244
 1988SOL     OW17617   2.587   0.198   1.491
 1988SOL    HW117618   2.619   0.205   1.585
 1988SOL    HW217619   2.493   0.231   1.484
 1989SOL     OW17620   0.351   6.147   4.937
 1989SOL    HW117621   0.346   6.047   4.947
 1989SOL    HW217622   0.373   6.170   4.842
 1990SOL     OW17623   2.597   0.214   2.605
 1990SOL    HW117624   2.674   0.212   2.670
 1990SOL    HW217625   2.620   0.274   2.529
 1991SOL     OW17626   6.930   9.026   6.735
 1991SOL    HW117627   6.998   8.966   6.693
 1991SOL    HW217628   6.964   9.120   6.735
 1992SOL     OW17629   4.430   8.274   3.279
 1992SOL    HW117630   4.439   8.288   3.378
 1992SOL    HW217631   4.502   8.325   3.232
 1993SOL     OW17632   8.568   1.784   0.262
 1993SOL    HW117633   8.535   1.874   0.233
 1993SOL    HW217634   8.491   1.721   0.270
 1994SOL     OW17635   9.377   1.224   1.515
 1994SOL    HW117636   9.288   1.180   1.504
 1994SOL    HW217637   9.438   1.163   1.565
 1995SOL     OW17638   5.335   6.971   2.702
 1995SOL    HW117639   5.254   6.981   2.644
 1995SOL    HW217640   5.308   6.940   2.793
 1996SOL     OW17641   4.496   5.962   7.244
 1996SOL    HW117642   4.449   5.889   7.294
 1996SOL    HW217643   4.578   5.989   7.295
 1997SOL     OW17644   1.464   1.150   0.077
 1997SOL    HW117645   1.483   1.102  10.073
 1997SOL    HW217646   1.368   1.178   0.079
 1998SOL     OW17647   1.262   3.963   0.787
 1998SOL    HW117648   1.349   3.919   0.766
 1998SOL    HW217649   1.187   3.904   0.759
 1999SOL     OW17650   1.994   2.702   2.423
 1999SOL    HW117651   1.965   2.784   2.472
 1999SOL    HW217652   1.981   2.622   2.481
 2000SOL     OW17653   8.412   2.641   7.736
 2000SOL    HW117654   8.424   2.734   7.771
 2000SOL    HW217655   8.318   2.610   7.755
 2001SOL     OW17656   0.397   1.627   6.263
 2001SOL    HW117657   0.346   1.566   6.322
 2001SOL    HW217658   0.481   1.656   6.309
 2002SOL     OW17659   1.004   2.297   4.375
 2002SOL    HW117660   1.026   2.391   4.346
 2002SOL    HW217661   0.905   2.287   4.385
 2003SOL     OW17662   7.763   4.248   0.178
 2003SOL    HW117663   7.668   4.220   0.194
 2003SOL    HW217664   7.764   4.341   0.141
 2004SOL     OW17665   5.440   8.027   4.547
 2004SOL    HW117666   5.461   7.937   4.585
 2004SOL    HW217667   5.353   8.024   4.498
 2005SOL     OW17668   1.501   6.935   0.254
 2005SOL    HW117669   1.477   6.984   0.171
 2005SOL    HW217670   1.493   6.837   0.239
 2006SOL     OW17671   0.488   1.842   5.197
 2006SOL    HW117672   0.481   1.941   5.211
 2006SOL    HW217673   0.541   1.802   5.272
 2007SOL     OW17674   1.730   8.073   6.176
 2007SOL    HW117675   1.757   7.978   6.162
 2007SOL    HW217676   1.804   8.122   6.222
 2008SOL     OW17677   9.870   1.855   6.504
 2008SOL    HW117678   9.809   1.811   6.439
 2008SOL    HW217679   9.817   1.900   6.575
 2009SOL     OW17680   4.228   4.878   5.863
 2009SOL    HW117681   4.150   4.933   5.892
 2009SOL    HW217682   4.302   4.889   5.929
 2010SOL     OW17683   1.279   5.046   6.997
 2010SOL    HW117684   1.300   4.950   6.977
 2010SOL    HW217685   1.343   5.104   6.946
 2011SOL     OW17686   7.204   6.418   5.331
 2011SOL    HW117687   7.251   6.338   5.369
 2011SOL    HW217688   7.185   6.402   5.234
 2012SOL     OW17689   6.651   5.446   2.271
 2012SOL    HW117690   6.627   5.541   2.253
 2012SOL    HW217691   6.734   5.422   2.220
 2013SOL     OW17692   6.499   0.977   3.298
 2013SOL    HW117693   6.579   1.028   3.267
 2013SOL    HW217694   6.518   0.934   3.386
 2014SOL     OW17695   8.615   4.495   2.080
 2014SOL    HW117696   8.592   4.582   2.035
 2014SOL    HW217697   8.644   4.513   2.174
 2015SOL     OW17698   6.094   0.729   1.280
 2015SOL    HW117699   5.996   0.711   1.271
 2015SOL    HW217700   6.114   0.824   1.256
 2016SOL     OW17701   4.177   8.983   1.700
 2016SOL    HW117702   4.099   8.993   1.638
 2016SOL    HW217703   4.175   9.057   1.767
 2017SOL     OW17704   3.740   0.131   5.768
 2017SOL    HW117705   3.832   0.142   5.730
 2017SOL    HW217706   3.673   0.175   5.708
 2018SOL     OW17707   2.049   4.687   4.673
 2018SOL    HW117708   1.980   4.644   4.614
 2018SOL    HW217709   2.031   4.785   4.680
 2019SOL     OW17710   6.276   4.636   0.718
 2019SOL    HW117711   6.298   4.694   0.639
 2019SOL    HW217712   6.222   4.689   0.783
 2020SOL     OW17713   0.944   7.504   4.375
 2020SOL    HW117714   0.931   7.511   4.276
 2020SOL    HW217715   0.860   7.472   4.418
 2021SOL     OW17716   1.043   5.956   2.515
 2021SOL    HW117717   1.094   5.969   2.600
 2021SOL    HW217718   0.971   5.888   2.529
 2022SOL     OW17719   6.843   6.611   4.926
 2022SOL    HW117720   6.830   6.554   5.007
 2022SOL    HW217721   6.854   6.707   4.954
 2023SOL     OW17722   8.761   5.540   2.488
 2023SOL    HW117723   8.808   5.508   2.406
 2023SOL    HW217724   8.765   5.469   2.558
 2024SOL     OW17725   2.609   3.940   3.668
 2024SOL    HW117726   2.535   3.897   3.719
 2024SOL    HW217727   2.572   3.981   3.584
 2025SOL     OW17728   2.378   5.676   6.054
 2025SOL    HW117729   2.362   5.582   6.024
 2025SOL    HW217730   2.322   5.738   5.999
 2026SOL     OW17731   0.804   2.185   6.636
 2026SOL    HW117732   0.867   2.196   6.713
 2026SOL    HW217733   0.742   2.109   6.654
 2027SOL     OW17734   0.531   5.044   3.315
 2027SOL    HW117735   0.608   4.987   3.340
 2027SOL    HW217736   0.445   4.997   3.336
 2028SOL     OW17737   2.243   2.975   5.609
 2028SOL    HW117738   2.184   3.048   5.642
 2028SOL    HW217739   2.336   2.990   5.643
 2029SOL     OW17740   5.563   9.484   6.533
 2029SOL    HW117741   5.612   9.410   6.487
 2029SOL    HW217742   5.555   9.463   6.630
 2030SOL     OW17743   6.409   9.243   4.929
 2030SOL    HW117744   6.502   9.265   4.958
 2030SOL    HW217745   6.395   9.276   4.836
 2031SOL     OW17746   2.709   8.411   6.540
 2031SOL    HW117747   2.623   8.364   6.520
 2031SOL    HW217748   2.711   8.498   6.491
 2032SOL     OW17749   8.892   5.691   6.530
 2032SOL    HW117750   8.836   5.726   6.455
 2032SOL    HW217751   8.989   5.700   6.507
 2033SOL     OW17752   9.044   8.085   5.727
 2033SOL    HW117753   9.012   7.990   5.719
 2033SOL    HW217754   8.985   8.134   5.792
 2034SOL     OW17755   2.329   2.789   4.133
 2034SOL    HW117756   2.327   2.690   4.118
 2034SOL    HW217757   2.381   2.832   4.059
 2035SOL     OW17758   9.986   1.936   2.276
 2035SOL    HW117759   0.019   1.903   2.365
 2035SOL    HW217760   9.906   1.994   2.290
 2036SOL     OW17761   5.349   8.819   5.367
 2036SOL    HW117762   5.255   8.814   5.401
 2036SOL    HW217763   5.395   8.898   5.407
 2037SOL     OW17764   6.515   3.539   1.465
 2037SOL    HW117765   6.512   3.544   1.565
 2037SOL    HW217766   6.610   3.527   1.436
 2038SOL     OW17767   4.028   1.378   6.616
 2038SOL    HW117768   4.091   1.446   6.580
 2038SOL    HW217769   3.975   1.417   6.691
 2039SOL     OW17770   4.526   8.721   1.373
 2039SOL    HW117771   4.461   8.760   1.437
 2039SOL    HW217772   4.594   8.790   1.349
 2040SOL     OW17773   0.411   7.419   3.148
 2040SOL    HW117774   0.354   7.427   3.229
 2040SOL    HW217775   0.467   7.501   3.138
 2041SOL     OW17776   8.025   3.915   0.167
 2041SOL    HW117777   8.098   3.952   0.110
 2041SOL    HW217778   8.001   3.981   0.238
 2042SOL     OW17779   1.304   3.760   6.601
 2042SOL    HW117780   1.362   3.790   6.525
 2042SOL    HW217781   1.325   3.812   6.683
 2043SOL     OW17782   4.864   5.379   3.842
 2043SOL    HW117783   4.771   5.397   3.809
 2043SOL    HW217784   4.930   5.418   3.777
 2044SOL     OW17785   9.232   2.188   1.487
 2044SOL    HW117786   9.244   2.219   1.393
 2044SOL    HW217787   9.315   2.142   1.518
 2045SOL     OW17788   7.764   0.729   2.567
 2045SOL    HW117789   7.673   0.764   2.544
 2045SOL    HW217790   7.764   0.694   2.660
 2046SOL     OW17791   7.576   7.025   4.372
 2046SOL    HW117792   7.568   7.052   4.468
 2046SOL    HW217793   7.653   6.962   4.361
 2047SOL     OW17794   8.044   6.807   5.440
 2047SOL    HW117795   8.071   6.786   5.534
 2047SOL    HW217796   7.952   6.770   5.422
 2048SOL     OW17797   4.109   7.444   0.636
 2048SOL    HW117798   4.012   7.461   0.619
 2048SOL    HW217799   4.162   7.466   0.554
 2049SOL     OW17800   2.316   4.964   3.280
 2049SOL    HW117801   2.283   5.040   3.336
 2049SOL    HW217802   2.319   4.992   3.184
 2050SOL     OW17803   7.665   1.672   5.836
 2050SOL    HW117804   7.691   1.768   5.825
 2050SOL    HW217805   7.747   1.616   5.846
 2051SOL     OW17806   6.420   0.804   4.308
 2051SOL    HW117807   6.472   0.788   4.224
 2051SOL    HW217808   6.360   0.726   4.326
 2052SOL     OW17809   2.761   3.349   1.770
 2052SOL    HW117810   2.791   3.416   1.703
 2052SOL    HW217811   2.836   3.330   1.834
 2053SOL     OW17812   6.527   3.337   2.215
 2053SOL    HW117813   6.542   3.365   2.310
 2053SOL    HW217814   6.433   3.306   2.203
 2054SOL     OW17815   9.514   3.308   1.000
 2054SOL    HW117816   9.542   3.326   1.095
 2054SOL    HW217817   9.557   3.375   0.939
 2055SOL     OW17818   8.411   2.830   2.930
 2055SOL    HW117819   8.318   2.807   2.900
 2055SOL    HW217820   8.477   2.777   2.876
 2056SOL     OW17821   2.449   7.238   0.585
 2056SOL    HW117822   2.452   7.192   0.674
 2056SOL    HW217823   2.485   7.177   0.514
 2057SOL     OW17824   8.937   7.437   1.807
 2057SOL    HW117825   9.000   7.430   1.729
 2057SOL    HW217826   8.848   7.470   1.775
 2058SOL     OW17827   5.622   4.218   2.132
 2058SOL    HW117828   5.719   4.239   2.143
 2058SOL    HW217829   5.611   4.121   2.112
 2059SOL     OW17830   0.047   2.819   5.089
 2059SOL    HW117831   0.133   2.773   5.068
 2059SOL    HW217832   0.060   2.882   5.166
 2060SOL     OW17833   7.475   1.547   5.695
 2060SOL    HW117834   7.542   1.592   5.755
 2060SOL    HW217835   7.452   1.608   5.620
 2061SOL     OW17836   9.178   1.957   2.169
 2061SOL    HW117837   9.166   2.012   2.086
 2061SOL    HW217838   9.102   1.892   2.178
 2062SOL     OW17839   2.973   8.086   1.407
 2062SOL    HW117840   2.925   8.046   1.484
 2062SOL    HW217841   3.026   8.165   1.437
 2063SOL     OW17842   6.343   3.129   0.320
 2063SOL    HW117843   6.397   3.063   0.374
 2063SOL    HW217844   6.302   3.082   0.242
 2064SOL     OW17845   2.768   2.030   6.252
 2064SOL    HW117846   2.761   2.117   6.203
 2064SOL    HW217847   2.689   1.972   6.228
 2065SOL     OW17848   9.605   3.082   6.931
 2065SOL    HW117849   9.590   3.120   7.022
 2065SOL    HW217850   9.676   3.135   6.884
 2066SOL     OW17851   7.083   5.937   6.555
 2066SOL    HW117852   7.153   5.970   6.492
 2066SOL    HW217853   7.036   6.015   6.596
 2067SOL     OW17854   1.469   1.517   7.869
 2067SOL    HW117855   1.388   1.480   7.914
 2067SOL    HW217856   1.471   1.487   7.774
 2068SOL     OW17857   3.908   9.485   6.435
 2068SOL    HW117858   3.894   9.445   6.526
 2068SOL    HW217859   3.822   9.482   6.384
 2069SOL     OW17860   6.768   3.486   1.368
 2069SOL    HW117861   6.858   3.531   1.374
 2069SOL    HW217862   6.780   3.387   1.371
 2070SOL     OW17863   3.624   8.687   7.428
 2070SOL    HW117864   3.527   8.690   7.402
 2070SOL    HW217865   3.680   8.696   7.346
 2071SOL     OW17866   0.592   1.475   4.198
 2071SOL    HW117867   0.527   1.438   4.132
 2071SOL    HW217868   0.685   1.458   4.167
 2072SOL     OW17869   1.349   6.544   0.636
 2072SOL    HW117870   1.403   6.499   0.565
 2072SOL    HW217871   1.278   6.599   0.594
 2073SOL     OW17872   4.589   3.707   6.262
 2073SOL    HW117873   4.534   3.685   6.342
 2073SOL    HW217874   4.579   3.635   6.193
 2074SOL     OW17875   0.022   3.676   5.826
 2074SOL    HW117876   0.031   3.651   5.730
 2074SOL    HW217877   9.929   3.657   5.858
 2075SOL     OW17878   5.819   7.740   6.346
 2075SOL    HW117879   5.887   7.670   6.365
 2075SOL    HW217880   5.805   7.796   6.428
 2076SOL     OW17881   1.975   8.691   6.073
 2076SOL    HW117882   2.031   8.656   6.147
 2076SOL    HW217883   1.962   8.620   6.004
 2077SOL     OW17884   9.161   4.552   3.212
 2077SOL    HW117885   9.091   4.612   3.172
 2077SOL    HW217886   9.226   4.607   3.264
 2078SOL     OW17887   9.491   0.256   6.770
 2078SOL    HW117888   9.559   0.302   6.827
 2078SOL    HW217889   9.484   0.303   6.682
 2079SOL     OW17890   1.250   6.772   7.721
 2079SOL    HW117891   1.338   6.805   7.689
 2079SOL    HW217892   1.263   6.688   7.773
 2080SOL     OW17893   1.390   5.746   3.104
 2080SOL    HW117894   1.300   5.745   3.062
 2080SOL    HW217895   1.452   5.803   3.048
 2081SOL     OW17896   4.222   8.711   2.587
 2081SOL    HW117897   4.261   8.803   2.585
 2081SOL    HW217898   4.187   8.688   2.496
 2082SOL     OW17899   3.222   0.975   4.974
 2082SOL    HW117900   3.124   0.965   4.956
 2082SOL    HW217901   3.261   0.885   4.994
 2083SOL     OW17902   1.305   1.427   7.096
 2083SOL    HW117903   1.274   1.404   7.004
 2083SOL    HW217904   1.339   1.521   7.096
 2084SOL     OW17905   0.419   1.416   6.648
 2084SOL    HW117906   0.356   1.368   6.709
 2084SOL    HW217907   0.371   1.441   6.563
 2085SOL     OW17908   3.464   9.927   4.561
 2085SOL    HW117909   3.526   9.849   4.554
 2085SOL    HW217910   3.370   9.894   4.572
 2086SOL     OW17911   0.892   9.124   6.870
 2086SOL    HW117912   0.921   9.211   6.830
 2086SOL    HW217913   0.847   9.142   6.958
 2087SOL     OW17914   4.283   8.833   3.413
 2087SOL    HW117915   4.278   8.734   3.430
 2087SOL    HW217916   4.378   8.862   3.409
 2088SOL     OW17917   4.494   0.344   5.515
 2088SOL    HW117918   4.421   0.412   5.512
 2088SOL    HW217919   4.463   0.263   5.564
 2089SOL     OW17920   3.208   6.999   4.218
 2089SOL    HW117921   3.124   7.003   4.272
 2089SOL    HW217922   3.208   7.072   4.150
 2090SOL     OW17923   4.704   6.351   0.213
 2090SOL    HW117924   4.645   6.278   0.250
 2090SOL    HW217925   4.669   6.379   0.124
 2091SOL     OW17926   9.919   4.712   0.819
 2091SOL    HW117927   9.877   4.754   0.900
 2091SOL    HW217928   9.960   4.783   0.761
 2092SOL     OW17929   7.610   9.028   2.627
 2092SOL    HW117930   7.667   9.106   2.602
 2092SOL    HW217931   7.639   8.992   2.716
 2093SOL     OW17932   3.168   0.659   5.919
 2093SOL    HW117933   3.203   0.628   6.008
 2093SOL    HW217934   3.240   0.649   5.851
 2094SOL     OW17935   3.041   5.079   1.627
 2094SOL    HW117936   2.947   5.082   1.595
 2094SOL    HW217937   3.067   4.984   1.645
 2095SOL     OW17938   5.259   2.351   6.638
 2095SOL    HW117939   5.166   2.375   6.607
 2095SOL    HW217940   5.262   2.356   6.738
 2096SOL     OW17941   5.875   2.040   1.755
 2096SOL    HW117942   5.780   2.022   1.777
 2096SOL    HW217943   5.934   1.984   1.813
 2097SOL     OW17944   5.165   2.959   0.242
 2097SOL    HW117945   5.250   2.959   0.189
 2097SOL    HW217946   5.138   2.865   0.262
 2098SOL     OW17947   2.795   9.496   7.214
 2098SOL    HW117948   2.886   9.459   7.192
 2098SOL    HW217949   2.737   9.423   7.249
 2099SOL     OW17950   5.466   7.458   3.752
 2099SOL    HW117951   5.542   7.405   3.788
 2099SOL    HW217952   5.456   7.441   3.654
 2100SOL     OW17953   2.759   9.787   2.469
 2100SOL    HW117954   2.814   9.826   2.542
 2100SOL    HW217955   2.707   9.860   2.424
 2101SOL     OW17956   1.720   5.551   5.324
 2101SOL    HW117957   1.632   5.558   5.370
 2101SOL    HW217958   1.745   5.455   5.313
 2102SOL     OW17959   3.576   0.381   4.257
 2102SOL    HW117960   3.567   0.291   4.298
 2102SOL    HW217961   3.638   0.376   4.178
 2103SOL     OW17962   1.772   5.462   4.450
 2103SOL    HW117963   1.686   5.504   4.477
 2103SOL    HW217964   1.825   5.527   4.395
 2104SOL     OW17965   5.334   9.471   7.908
 2104SOL    HW117966   5.264   9.521   7.858
 2104SOL    HW217967   5.303   9.378   7.926
 2105SOL     OW17968   5.073   8.655   1.080
 2105SOL    HW117969   5.023   8.673   1.165
 2105SOL    HW217970   5.028   8.581   1.031
 2106SOL     OW17971   9.029   6.127   1.347
 2106SOL    HW117972   9.059   6.222   1.359
 2106SOL    HW217973   8.963   6.103   1.419
 2107SOL     OW17974   2.417   6.027   0.721
 2107SOL    HW117975   2.396   6.125   0.712
 2107SOL    HW217976   2.337   5.973   0.693
 2108SOL     OW17977   8.081   6.550   6.024
 2108SOL    HW117978   8.164   6.593   6.059
 2108SOL    HW217979   8.001   6.605   6.051
 2109SOL     OW17980   8.621   5.991   5.681
 2109SOL    HW117981   8.570   6.003   5.766
 2109SOL    HW217982   8.607   5.898   5.646
 2110SOL     OW17983   9.079   3.855   7.590
 2110SOL    HW117984   9.060   3.821   7.682
 2110SOL    HW217985   8.993   3.884   7.547
 2111SOL     OW17986   8.736   6.394   2.210
 2111SOL    HW117987   8.691   6.308   2.185
 2111SOL    HW217988   8.820   6.404   2.156
 2112SOL     OW17989   1.194   0.162   4.555
 2112SOL    HW117990   1.275   0.103   4.550
 2112SOL    HW217991   1.202   0.222   4.634
 2113SOL     OW17992   9.038   6.681   2.480
 2113SOL    HW117993   8.959   6.643   2.528
 2113SOL    HW217994   9.017   6.775   2.451
 2114SOL     OW17995   7.199   8.689   1.563
 2114SOL    HW117996   7.275   8.717   1.505
 2114SOL    HW217997   7.219   8.598   1.602
 2115SOL     OW17998   5.602   8.590   4.591
 2115SOL    HW117999   5.659   8.666   4.623
 2115SOL    HW218000   5.651   8.504   4.604
 2116SOL     OW18001   2.474   3.376   0.134
 2116SOL    HW118002   2.444   3.450   0.194
 2116SOL    HW218003   2.395   3.339   0.085
 2117SOL     OW18004   1.832   9.798   4.238
 2117SOL    HW118005   1.783   9.742   4.171
 2117SOL    HW218006   1.767   9.837   4.303
 2118SOL     OW18007   9.645   8.205   3.914
 2118SOL    HW118008   9.560   8.221   3.964
 2118SOL    HW218009   9.723   8.220   3.974
 2119SOL     OW18010   2.753   7.456   1.136
 2119SOL    HW118011   2.732   7.551   1.159
 2119SOL    HW218012   2.723   7.396   1.210
 2120SOL     OW18013   0.746   5.441   2.563
 2120SOL    HW118014   0.758   5.509   2.635
 2120SOL    HW218015   0.665   5.463   2.509
 2121SOL     OW18016   1.754   6.277   1.451
 2121SOL    HW118017   1.774   6.187   1.412
 2121SOL    HW218018   1.828   6.304   1.512
 2122SOL     OW18019   2.036   0.327   0.679
 2122SOL    HW118020   1.963   0.363   0.737
 2122SOL    HW218021   2.083   0.402   0.634
 2123SOL     OW18022   0.554   6.656   3.356
 2123SOL    HW118023   0.629   6.654   3.290
 2123SOL    HW218024   0.590   6.671   3.448
 2124SOL     OW18025   7.396   5.073   7.309
 2124SOL    HW118026   7.432   5.164   7.331
 2124SOL    HW218027   7.320   5.053   7.370
 2125SOL     OW18028   3.726   0.869   5.353
 2125SOL    HW118029   3.676   0.909   5.430
 2125SOL    HW218030   3.811   0.829   5.385
 2126SOL     OW18031   1.523   6.113   5.386
 2126SOL    HW118032   1.582   6.136   5.464
 2126SOL    HW218033   1.580   6.092   5.306
 2127SOL     OW18034   0.160   4.706   3.372
 2127SOL    HW118035   0.229   4.635   3.359
 2127SOL    HW218036   0.083   4.690   3.310
 2128SOL     OW18037   8.742   8.981   1.461
 2128SOL    HW118038   8.681   8.902   1.451
 2128SOL    HW218039   8.836   8.951   1.445
 2129SOL     OW18040   5.493   0.087   1.774
 2129SOL    HW118041   5.591   0.077   1.787
 2129SOL    HW218042   5.452   0.129   1.855
 2130SOL     OW18043   8.467   0.267   5.136
 2130SOL    HW118044   8.504   0.209   5.064
 2130SOL    HW218045   8.534   0.335   5.163
 2131SOL     OW18046   8.608   2.699   0.304
 2131SOL    HW118047   8.602   2.629   0.375
 2131SOL    HW218048   8.695   2.748   0.312
 2132SOL     OW18049   8.289   1.248   7.338
 2132SOL    HW118050   8.306   1.328   7.282
 2132SOL    HW218051   8.203   1.259   7.388
 2133SOL     OW18052   2.959   9.473   1.448
 2133SOL    HW118053   2.939   9.415   1.370
 2133SOL    HW218054   2.885   9.540   1.459
 2134SOL     OW18055   4.450   4.711   5.056
 2134SOL    HW118056   4.414   4.780   4.992
 2134SOL    HW218057   4.394   4.628   5.050
 2135SOL     OW18058   0.213   0.729   4.193
 2135SOL    HW118059   0.254   0.638   4.192
 2135SOL    HW218060   0.272   0.791   4.246
 2136SOL     OW18061   7.388   0.526   7.348
 2136SOL    HW118062   7.310   0.528   7.411
 2136SOL    HW218063   7.416   0.620   7.328
 2137SOL     OW18064   2.934   6.224   0.820
 2137SOL    HW118065   2.980   6.312   0.826
 2137SOL    HW218066   2.940   6.190   0.726
 2138SOL     OW18067   2.301   2.823   4.545
 2138SOL    HW118068   2.351   2.845   4.461
 2138SOL    HW218069   2.282   2.907   4.596
 2139SOL     OW18070   7.663   5.827   7.082
 2139SOL    HW118071   7.708   5.738   7.093
 2139SOL    HW218072   7.589   5.821   7.016
 2140SOL     OW18073   6.451   4.560   0.354
 2140SOL    HW118074   6.389   4.629   0.390
 2140SOL    HW218075   6.409   4.469   0.363
 2141SOL     OW18076   3.416   8.869   2.399
 2141SOL    HW118077   3.375   8.857   2.309
 2141SOL    HW218078   3.344   8.878   2.468
 2142SOL     OW18079   5.786   7.691   3.648
 2142SOL    HW118080   5.863   7.642   3.688
 2142SOL    HW218081   5.757   7.645   3.564
 2143SOL     OW18082   5.788   0.535   3.913
 2143SOL    HW118083   5.755   0.453   3.866
 2143SOL    HW218084   5.726   0.611   3.894
 2144SOL     OW18085   8.083   5.002   3.715
 2144SOL    HW118086   8.155   5.069   3.732
 2144SOL    HW218087   8.041   4.976   3.802
 2145SOL     OW18088   3.851   7.766   0.961
 2145SOL    HW118089   3.938   7.732   0.998
 2145SOL    HW218090   3.863   7.860   0.929
 2146SOL     OW18091   6.248   9.370   7.215
 2146SOL    HW118092   6.197   9.438   7.267
 2146SOL    HW218093   6.195   9.342   7.135
 2147SOL     OW18094   1.856   5.838   2.074
 2147SOL    HW118095   1.835   5.935   2.081
 2147SOL    HW218096   1.943   5.819   2.120
 2148SOL     OW18097   0.793   1.947   1.160
 2148SOL    HW118098   0.775   1.981   1.068
 2148SOL    HW218099   0.780   2.021   1.226
 2149SOL     OW18100   1.975   3.085   4.614
 2149SOL    HW118101   1.954   2.988   4.621
 2149SOL    HW218102   1.909   3.138   4.667
 2150SOL     OW18103   7.996   1.474   4.690
 2150SOL    HW118104   8.036   1.423   4.614
 2150SOL    HW218105   8.038   1.444   4.776
 2151SOL     OW18106   9.736   0.423   7.268
 2151SOL    HW118107   9.768   0.503   7.218
 2151SOL    HW218108   9.809   0.354   7.269
 2152SOL     OW18109   9.840   8.669   5.292
 2152SOL    HW118110   9.884   8.662   5.203
 2152SOL    HW218111   9.892   8.732   5.350
 2153SOL     OW18112   2.312   0.129   5.256
 2153SOL    HW118113   2.289   0.062   5.326
 2153SOL    HW218114   2.235   0.138   5.192
 2154SOL     OW18115   0.244   9.664   4.528
 2154SOL    HW118116   0.275   9.757   4.513
 2154SOL    HW218117   0.324   9.605   4.546
 2155SOL     OW18118   4.075   8.506   2.179
 2155SOL    HW118119   4.038   8.456   2.257
 2155SOL    HW218120   4.008   8.506   2.105
 2156SOL     OW18121   9.660   0.417   6.920
 2156SOL    HW118122   9.702   0.488   6.863
 2156SOL    HW218123   9.595   0.459   6.983
 2157SOL     OW18124   2.373   5.262   5.477
 2157SOL    HW118125   2.428   5.321   5.536
 2157SOL    HW218126   2.329   5.192   5.531
 2158SOL     OW18127   3.214   1.005   6.177
 2158SOL    HW118128   3.295   0.978   6.230
 2158SOL    HW218129   3.153   1.058   6.236
 2159SOL     OW18130   7.273   1.618   3.935
 2159SOL    HW118131   7.254   1.581   4.026
 2159SOL    HW218132   7.234   1.710   3.928
 2160SOL     OW18133   7.811   7.597   4.765
 2160SOL    HW118134   7.800   7.671   4.831
 2160SOL    HW218135   7.733   7.535   4.771
 2161SOL     OW18136   0.422   2.154   7.428
 2161SOL    HW118137   0.405   2.140   7.526
 2161SOL    HW218138   0.517   2.182   7.415
 2162SOL     OW18139   2.584   6.646   2.564
 2162SOL    HW118140   2.542   6.565   2.522
 2162SOL    HW218141   2.674   6.662   2.523
 2163SOL     OW18142   3.359   8.584   1.183
 2163SOL    HW118143   3.437   8.522   1.175
 2163SOL    HW218144   3.312   8.590   1.095
 2164SOL     OW18145   6.098   9.553   7.382
 2164SOL    HW118146   6.110   9.532   7.479
 2164SOL    HW218147   6.135   9.644   7.362
 2165SOL     OW18148   3.996   3.759   7.909
 2165SOL    HW118149   4.066   3.808   7.856
 2165SOL    HW218150   4.037   3.724   7.993
 2166SOL     OW18151   2.621   6.948   0.983
 2166SOL    HW118152   2.614   7.003   1.067
 2166SOL    HW218153   2.589   6.855   1.002
 2167SOL     OW18154   0.175   4.408   5.122
 2167SOL    HW118155   0.098   4.345   5.136
 2167SOL    HW218156   0.168   4.484   5.186
 2168SOL     OW18157   7.713   6.785   3.880
 2168SOL    HW118158   7.719   6.806   3.782
 2168SOL    HW218159   7.755   6.696   3.898
 2169SOL     OW18160   3.396   8.559   2.086
 2169SOL    HW118161   3.462   8.527   2.154
 2169SOL    HW218162   3.306   8.520   2.106
 2170SOL     OW18163   9.104   9.621   4.079
 2170SOL    HW118164   9.084   9.604   4.175
 2170SOL    HW218165   9.040   9.689   4.043
 2171SOL     OW18166   6.409   8.904   5.604
 2171SOL    HW118167   6.380   8.943   5.692
 2171SOL    HW218168   6.391   8.969   5.531
 2172SOL     OW18169   3.170   7.586   2.719
 2172SOL    HW118170   3.133   7.587   2.812
 2172SOL    HW218171   3.095   7.570   2.654
 2173SOL     OW18172   2.796   0.092   0.881
 2173SOL    HW118173   2.766   0.110   0.787
 2173SOL    HW218174   2.734   0.027   0.924
 2174SOL     OW18175   6.596   0.030   7.827
 2174SOL    HW118176   6.505   0.034   7.868
 2174SOL    HW218177   6.588   9.995   7.733
 2175SOL     OW18178   6.875   1.560   5.668
 2175SOL    HW118179   6.815   1.480   5.660
 2175SOL    HW218180   6.957   1.546   5.613
 2176SOL     OW18181   0.989   1.576   5.658
 2176SOL    HW118182   1.081   1.570   5.697
 2176SOL    HW218183   0.961   1.485   5.627
 2177SOL     OW18184   4.417   3.855   0.340
 2177SOL    HW118185   4.443   3.803   0.421
 2177SOL    HW218186   4.480   3.932   0.329
 2178SOL     OW18187   1.569   1.081   0.320
 2178SOL    HW118188   1.668   1.076   0.306
 2178SOL    HW218189   1.524   1.104   0.234
 2179SOL     OW18190   2.567   7.701   7.176
 2179SOL    HW118191   2.646   7.640   7.187
 2179SOL    HW218192   2.525   7.718   7.265
 2180SOL     OW18193   8.953   3.471   2.383
 2180SOL    HW118194   9.045   3.503   2.361
 2180SOL    HW218195   8.921   3.408   2.313
 2181SOL     OW18196   2.872   4.293   1.391
 2181SOL    HW118197   2.830   4.204   1.372
 2181SOL    HW218198   2.931   4.285   1.471
 2182SOL     OW18199   8.266   8.302   6.190
 2182SOL    HW118200   8.334   8.300   6.117
 2182SOL    HW218201   8.254   8.210   6.227
 2183SOL     OW18202   8.012   6.225   3.130
 2183SOL    HW118203   7.992   6.170   3.049
 2183SOL    HW218204   7.975   6.181   3.211
 2184SOL     OW18205   9.098   3.850   6.419
 2184SOL    HW118206   9.128   3.904   6.498
 2184SOL    HW218207   9.130   3.892   6.335
 2185SOL     OW18208   3.369   5.014   6.934
 2185SOL    HW118209   3.303   5.059   6.994
 2185SOL    HW218210   3.409   4.935   6.980
 2186SOL     OW18211   3.260   0.636   0.705
 2186SOL    HW118212   3.315   0.618   0.786
 2186SOL    HW218213   3.222   0.551   0.670
 2187SOL     OW18214   9.295   5.702   0.346
 2187SOL    HW118215   9.357   5.637   0.390
 2187SOL    HW218216   9.344   5.748   0.271
 2188SOL     OW18217   8.818   2.493   4.218
 2188SOL    HW118218   8.895   2.432   4.200
 2188SOL    HW218219   8.739   2.463   4.166
 2189SOL     OW18220   6.314   1.826   5.984
 2189SOL    HW118221   6.292   1.907   5.929
 2189SOL    HW218222   6.392   1.778   5.943
 2190SOL     OW18223   4.228   7.264   4.138
 2190SOL    HW118224   4.279   7.220   4.063
 2190SOL    HW218225   4.291   7.290   4.211
 2191SOL     OW18226   9.451   3.942   1.054
 2191SOL    HW118227   9.370   3.951   1.112
 2191SOL    HW218228   9.493   4.031   1.040
 2192SOL     OW18229   0.525   6.989   3.445
 2192SOL    HW118230   0.494   7.083   3.453
 2192SOL    HW218231   0.462   6.937   3.387
 2193SOL     OW18232   9.406   8.913   3.989
 2193SOL    HW118233   9.314   8.876   3.976
 2193SOL    HW218234   9.437   8.894   4.082
 2194SOL     OW18235   6.713   2.634   3.889
 2194SOL    HW118236   6.750   2.561   3.947
 2194SOL    HW218237   6.787   2.696   3.863
 2195SOL     OW18238   2.892   0.599   7.887
 2195SOL    HW118239   2.909   0.608   7.985
 2195SOL    HW218240   2.974   0.563   7.843
 2196SOL     OW18241   9.049   8.144   7.449
 2196SOL    HW118242   8.955   8.174   7.438
 2196SOL    HW218243   9.098   8.208   7.508
 2197SOL     OW18244   8.816   2.592   7.454
 2197SOL    HW118245   8.878   2.515   7.467
 2197SOL    HW218246   8.866   2.670   7.416
 2198SOL     OW18247   0.513   5.080   4.552
 2198SOL    HW118248   0.555   5.002   4.598
 2198SOL    HW218249   0.521   5.161   4.610
 2199SOL     OW18250   2.245   0.017   6.936
 2199SOL    HW118251   2.262   9.986   6.843
 2199SOL    HW218252   2.253   0.117   6.941
 2200SOL     OW18253   3.662   4.828   7.329
 2200SOL    HW118254   3.723   4.856   7.255
 2200SOL    HW218255   3.711   4.833   7.416
 2201SOL     OW18256   8.822   0.307   4.949
 2201SOL    HW118257   8.856   0.383   4.893
 2201SOL    HW218258   8.747   0.261   4.901
 2202SOL     OW18259   3.515   9.511   4.058
 2202SOL    HW118260   3.438   9.447   4.050
 2202SOL    HW218261   3.533   9.552   3.969
 2203SOL     OW18262   6.444   7.716   5.623
 2203SOL    HW118263   6.501   7.691   5.702
 2203SOL    HW218264   6.376   7.644   5.607
 2204SOL     OW18265   0.082   3.735   6.914
 2204SOL    HW118266   0.150   3.706   6.847
 2204SOL    HW218267   0.090   3.834   6.929
 2205SOL     OW18268   0.357   8.977   3.983
 2205SOL    HW118269   0.260   8.979   3.957
 2205SOL    HW218270   0.413   9.009   3.906
 2206SOL     OW18271   0.275   3.052   6.858
 2206SOL    HW118272   0.219   2.969   6.858
 2206SOL    HW218273   0.365   3.031   6.896
 2207SOL     OW18274   0.565   6.888   6.897
 2207SOL    HW118275   0.477   6.915   6.933
 2207SOL    HW218276   0.638   6.941   6.940
 2208SOL     OW18277   7.986   2.927   1.212
 2208SOL    HW118278   7.999   3.006   1.153
 2208SOL    HW218279   8.026   2.846   1.169
 2209SOL     OW18280   3.373   1.125   7.748
 2209SOL    HW118281   3.344   1.154   7.839
 2209SOL    HW218282   3.438   1.192   7.711
 2210SOL     OW18283   8.199   8.384   0.531
 2210SOL    HW118284   8.287   8.430   0.531
 2210SOL    HW218285   8.206   8.298   0.480
 2211SOL     OW18286   2.023   5.918   0.858
 2211SOL    HW118287   2.058   5.841   0.911
 2211SOL    HW218288   1.929   5.939   0.888
 2212SOL     OW18289   4.307   5.836   2.629
 2212SOL    HW118290   4.323   5.765   2.697
 2212SOL    HW218291   4.209   5.853   2.619
 2213SOL     OW18292   7.293   6.090   3.231
 2213SOL    HW118293   7.370   6.056   3.284
 2213SOL    HW218294   7.294   6.047   3.140
 2214SOL     OW18295   5.164   0.944   7.194
 2214SOL    HW118296   5.155   1.043   7.210
 2214SOL    HW218297   5.173   0.897   7.282
 2215SOL     OW18298   3.798   8.657   1.623
 2215SOL    HW118299   3.785   8.574   1.678
 2215SOL    HW218300   3.709   8.688   1.588
 2216SOL     OW18301   1.945   1.241   0.077
 2216SOL    HW118302   2.000   1.183   0.017
 2216SOL    HW218303   1.900   1.312   0.023
 2217SOL     OW18304   1.883   7.988   7.700
 2217SOL    HW118305   1.964   8.043   7.719
 2217SOL    HW218306   1.801   8.040   7.725
 2218SOL     OW18307   4.735   5.439   3.055
 2218SOL    HW118308   4.635   5.441   3.059
 2218SOL    HW218309   4.766   5.470   2.965
 2219SOL     OW18310   5.361   9.420   1.230
 2219SOL    HW118311   5.455   9.386   1.229
 2219SOL    HW218312   5.302   9.355   1.182
 2220SOL     OW18313   1.999   8.673   3.972
 2220SOL    HW118314   2.068   8.735   4.009
 2220SOL    HW218315   2.035   8.579   3.974
 2221SOL     OW18316   5.515   9.580   7.543
 2221SOL    HW118317   5.530   9.546   7.636
 2221SOL    HW218318   5.417   9.590   7.526
 2222SOL     OW18319   4.848   9.196   6.182
 2222SOL    HW118320   4.846   9.158   6.090
 2222SOL    HW218321   4.862   9.295   6.176
 2223SOL     OW18322   1.403   2.463   0.434
 2223SOL    HW118323   1.498   2.457   0.465
 2223SOL    HW218324   1.342   2.450   0.513
 2224SOL     OW18325   2.924   5.969   0.940
 2224SOL    HW118326   2.922   6.060   0.900
 2224SOL    HW218327   2.918   5.901   0.867
 2225SOL     OW18328   9.328   5.774   3.376
 2225SOL    HW118329   9.361   5.685   3.344
 2225SOL    HW218330   9.262   5.760   3.451
 2226SOL     OW18331   1.734   4.542   1.306
 2226SOL    HW118332   1.723   4.587   1.217
 2226SOL    HW218333   1.806   4.588   1.358
 2227SOL     OW18334   1.522   4.755   3.168
 2227SOL    HW118335   1.498   4.673   3.220
 2227SOL    HW218336   1.438   4.806   3.146
 2228SOL     OW18337   8.043   8.963   6.462
 2228SOL    HW118338   8.073   8.955   6.557
 2228SOL    HW218339   7.949   8.998   6.460
 2229SOL     OW18340   3.893   8.369   0.176
 2229SOL    HW118341   3.855   8.338   0.089
 2229SOL    HW218342   3.829   8.432   0.220
 2230SOL     OW18343   6.754   5.942   1.943
 2230SOL    HW118344   6.808   6.026   1.956
 2230SOL    HW218345   6.777   5.901   1.855
 2231SOL     OW18346   0.944   6.715   3.500
 2231SOL    HW118347   0.989   6.776   3.435
 2231SOL    HW218348   0.948   6.621   3.466
 2232SOL     OW18349   9.390   6.610   7.166
 2232SOL    HW118350   9.415   6.595   7.262
 2232SOL    HW218351   9.293   6.632   7.160
 2233SOL     OW18352   1.244   2.177   6.202
 2233SOL    HW118353   1.251   2.275   6.184
 2233SOL    HW218354   1.324   2.130   6.166
 2234SOL     OW18355   1.457   7.169   1.723
 2234SOL    HW118356   1.549   7.163   1.684
 2234SOL    HW218357   1.463   7.182   1.822
 2235SOL     OW18358   7.225   2.932   1.280
 2235SOL    HW118359   7.298   2.996   1.256
 2235SOL    HW218360   7.192   2.887   1.197
 2236SOL     OW18361   4.552   3.661   2.301
 2236SOL    HW118362   4.487   3.724   2.259
 2236SOL    HW218363   4.611   3.621   2.230
 2237SOL     OW18364   3.125   9.295   2.867
 2237SOL    HW118365   3.176   9.310   2.952
 2237SOL    HW218366   3.112   9.382   2.820
 2238SOL     OW18367   3.543   2.361   0.449
 2238SOL    HW118368   3.453   2.373   0.492
 2238SOL    HW218369   3.575   2.268   0.466
 2239SOL     OW18370   4.793   0.194   1.348
 2239SOL    HW118371   4.860   0.126   1.317
 2239SOL    HW218372   4.701   0.161   1.330
 2240SOL     OW18373   8.531   8.245   6.385
 2240SOL    HW118374   8.459   8.255   6.316
 2240SOL    HW218375   8.547   8.148   6.403
 2241SOL     OW18376   1.974   3.974   1.898
 2241SOL    HW118377   2.027   3.892   1.918
 2241SOL    HW218378   1.915   3.995   1.976
 2242SOL     OW18379   7.306   8.959   6.300
 2242SOL    HW118380   7.311   8.980   6.397
 2242SOL    HW218381   7.362   8.879   6.280
 2243SOL     OW18382   1.169   4.117   5.562
 2243SOL    HW118383   1.090   4.140   5.505
 2243SOL    HW218384   1.182   4.188   5.632
 2244SOL     OW18385   7.693   2.346   3.351
 2244SOL    HW118386   7.698   2.324   3.254
 2244SOL    HW218387   7.751   2.282   3.403
 2245SOL     OW18388   2.711   2.232   6.069
 2245SOL    HW118389   2.782   2.300   6.046
 2245SOL    HW218390   2.714   2.158   6.002
 2246SOL     OW18391   9.967   9.120   5.740
 2246SOL    HW118392   9.937   9.154   5.829
 2246SOL    HW218393   0.059   9.154   5.720
 2247SOL     OW18394   4.480   1.898   0.694
 2247SOL    HW118395   4.554   1.931   0.636
 2247SOL    HW218396   4.518   1.846   0.770
 2248SOL     OW18397   4.946   4.210   0.085
 2248SOL    HW118398   4.995   4.144   0.142
 2248SOL    HW218399   4.878   4.163   0.029
 2249SOL     OW18400   6.945   2.687   4.886
 2249SOL    HW118401   7.024   2.713   4.941
 2249SOL    HW218402   6.958   2.718   4.792
 2250SOL     OW18403   9.148   2.192   3.684
 2250SOL    HW118404   9.137   2.093   3.672
 2250SOL    HW218405   9.223   2.225   3.628
 2251SOL     OW18406   7.000   2.065   0.649
 2251SOL    HW118407   7.003   2.069   0.549
 2251SOL    HW218408   6.939   2.136   0.683
 2252SOL     OW18409   3.958   5.166   1.289
 2252SOL    HW118410   4.020   5.170   1.210
 2252SOL    HW218411   3.905   5.251   1.294
 2253SOL     OW18412   0.914   9.071   6.432
 2253SOL    HW118413   0.867   9.034   6.512
 2253SOL    HW218414   0.983   9.005   6.402
 2254SOL     OW18415   6.407   7.870   4.820
 2254SOL    HW118416   6.474   7.929   4.776
 2254SOL    HW218417   6.324   7.922   4.839
 2255SOL     OW18418   6.119   9.680   5.719
 2255SOL    HW118419   6.160   9.603   5.767
 2255SOL    HW218420   6.110   9.758   5.782
 2256SOL     OW18421   6.289   7.707   3.173
 2256SOL    HW118422   6.330   7.621   3.144
 2256SOL    HW218423   6.325   7.782   3.117
 2257SOL     OW18424   1.331   4.125   1.564
 2257SOL    HW118425   1.369   4.117   1.655
 2257SOL    HW218426   1.331   4.221   1.535
 2258SOL     OW18427   4.946   4.237   6.828
 2258SOL    HW118428   4.859   4.226   6.779
 2258SOL    HW218429   4.967   4.335   6.836
 2259SOL     OW18430   1.350   5.910   6.754
 2259SOL    HW118431   1.342   6.009   6.747
 2259SOL    HW218432   1.431   5.879   6.704
 2260SOL     OW18433   4.921   6.192   1.548
 2260SOL    HW118434   4.872   6.250   1.483
 2260SOL    HW218435   5.017   6.219   1.552
 2261SOL     OW18436   1.896   4.320   7.838
 2261SOL    HW118437   1.937   4.280   7.920
 2261SOL    HW218438   1.919   4.418   7.833
 2262SOL     OW18439   8.084   8.219   6.617
 2262SOL    HW118440   8.068   8.317   6.626
 2262SOL    HW218441   8.036   8.170   6.690
 2263SOL     OW18442   2.078   8.168   3.010
 2263SOL    HW118443   2.004   8.223   2.972
 2263SOL    HW218444   2.113   8.106   2.940
 2264SOL     OW18445   3.084   1.274   0.957
 2264SOL    HW118446   2.986   1.274   0.979
 2264SOL    HW218447   3.115   1.180   0.946
 2265SOL     OW18448   9.854   3.080   0.161
 2265SOL    HW118449   9.918   3.156   0.165
 2265SOL    HW218450   9.764   3.111   0.190
 2266SOL     OW18451   9.849   1.883   1.338
 2266SOL    HW118452   9.833   1.851   1.431
 2266SOL    HW218453   9.946   1.899   1.324
 2267SOL     OW18454   9.949   7.976   2.359
 2267SOL    HW118455   9.883   7.908   2.390
 2267SOL    HW218456   0.026   7.930   2.315
 2268SOL     OW18457   3.425   4.348   4.342
 2268SOL    HW118458   3.373   4.349   4.427
 2268SOL    HW218459   3.367   4.380   4.267
 2269SOL     OW18460   7.244   5.867   2.474
 2269SOL    HW118461   7.247   5.967   2.476
 2269SOL    HW218462   7.302   5.834   2.399
 2270SOL     OW18463   0.988   3.150   6.635
 2270SOL    HW118464   0.935   3.171   6.553
 2270SOL    HW218465   0.958   3.209   6.711
 2271SOL     OW18466   0.342   3.963   2.061
 2271SOL    HW118467   0.253   3.973   2.104
 2271SOL    HW218468   0.338   3.998   1.967
 2272SOL     OW18469   9.425   3.919   0.234
 2272SOL    HW118470   9.432   4.011   0.270
 2272SOL    HW218471   9.347   3.872   0.274
 2273SOL     OW18472   9.122   3.703   3.847
 2273SOL    HW118473   9.147   3.613   3.884
 2273SOL    HW218474   9.139   3.773   3.916
 2274SOL     OW18475   9.050   4.131   4.419
 2274SOL    HW118476   8.994   4.190   4.361
 2274SOL    HW218477   9.146   4.150   4.403
 2275SOL     OW18478   7.279   2.745   1.480
 2275SOL    HW118479   7.288   2.657   1.433
 2275SOL    HW218480   7.252   2.814   1.413
 2276SOL     OW18481   2.647   6.946   4.126
 2276SOL    HW118482   2.673   7.035   4.165
 2276SOL    HW218483   2.575   6.906   4.183
 2277SOL     OW18484   0.444   9.897   0.140
 2277SOL    HW118485   0.415   9.805   0.167
 2277SOL    HW218486   0.392   9.965   0.192
 2278SOL     OW18487   6.929   2.999   0.771
 2278SOL    HW118488   7.002   3.062   0.795
 2278SOL    HW218489   6.840   3.045   0.778
 2279SOL     OW18490   2.388   2.305   7.134
 2279SOL    HW118491   2.319   2.241   7.099
 2279SOL    HW218492   2.354   2.398   7.127
 2280SOL     OW18493   3.185   2.026   2.601
 2280SOL    HW118494   3.154   2.117   2.628
 2280SOL    HW218495   3.153   2.006   2.508
 2281SOL     OW18496   4.937   8.350   3.839
 2281SOL    HW118497   4.884   8.426   3.876
 2281SOL    HW218498   5.035   8.371   3.845
 2282SOL     OW18499   3.477   4.442   3.308
 2282SOL    HW118500   3.448   4.369   3.369
 2282SOL    HW218501   3.575   4.432   3.290
 2283SOL     OW18502   2.426   0.194   0.775
 2283SOL    HW118503   2.426   0.285   0.733
 2283SOL    HW218504   2.462   0.200   0.868
 2284SOL     OW18505   9.629   8.610   2.586
 2284SOL    HW118506   9.706   8.667   2.616
 2284SOL    HW218507   9.645   8.515   2.613
 2285SOL     OW18508   2.533   9.867   3.065
 2285SOL    HW118509   2.579   9.853   2.977
 2285SOL    HW218510   2.573   9.945   3.112
 2286SOL     OW18511   2.685   5.733   2.143
 2286SOL    HW118512   2.727   5.760   2.229
 2286SOL    HW218513   2.601   5.680   2.161
 2287SOL     OW18514   7.403   7.506   5.760
 2287SOL    HW118515   7.445   7.440   5.823
 2287SOL    HW218516   7.475   7.560   5.716
 2288SOL     OW18517   5.833   1.998   5.555
 2288SOL    HW118518   5.896   2.047   5.615
 2288SOL    HW218519   5.782   1.930   5.608
 2289SOL     OW18520   9.724   9.035   1.502
 2289SOL    HW118521   9.683   8.944   1.496
 2289SOL    HW218522   9.746   9.055   1.597
 2290SOL     OW18523   8.002   2.403   1.824
 2290SOL    HW118524   8.049   2.315   1.830
 2290SOL    HW218525   7.985   2.426   1.728
 2291SOL     OW18526   3.867   0.086   7.747
 2291SOL    HW118527   3.778   0.117   7.781
 2291SOL    HW218528   3.935   0.158   7.761
 2292SOL     OW18529   2.982   5.730   3.106
 2292SOL    HW118530   2.900   5.761   3.154
 2292SOL    HW218531   3.038   5.809   3.081
 2293SOL     OW18532   0.785   7.999   2.848
 2293SOL    HW118533   0.867   8.032   2.801
 2293SOL    HW218534   0.717   8.071   2.850
 2294SOL     OW18535   4.203   1.878   0.923
 2294SOL    HW118536   4.286   1.927   0.952
 2294SOL    HW218537   4.191   1.889   0.824
 2295SOL     OW18538   1.809   5.822   6.136
 2295SOL    HW118539   1.743   5.855   6.203
 2295SOL    HW218540   1.897   5.807   6.180
 2296SOL     OW18541   7.914   9.294   2.160
 2296SOL    HW118542   7.973   9.214   2.167
 2296SOL    HW218543   7.913   9.326   2.065
 2297SOL     OW18544   1.913   5.133   5.971
 2297SOL    HW118545   1.953   5.177   6.051
 2297SOL    HW218546   1.946   5.039   5.964
 2298SOL     OW18547   1.643   1.799   2.910
 2298SOL    HW118548   1.669   1.891   2.940
 2298SOL    HW218549   1.679   1.782   2.818
 2299SOL     OW18550   1.389   1.416   4.626
 2299SOL    HW118551   1.398   1.494   4.564
 2299SOL    HW218552   1.369   1.334   4.574
 2300SOL     OW18553   3.805   5.209   3.539
 2300SOL    HW118554   3.759   5.120   3.545
 2300SOL    HW218555   3.736   5.281   3.537
 2301SOL     OW18556   3.607   2.197   5.698
 2301SOL    HW118557   3.583   2.289   5.731
 2301SOL    HW218558   3.664   2.151   5.766
 2302SOL     OW18559   1.859   7.466   2.774
 2302SOL    HW118560   1.930   7.521   2.731
 2302SOL    HW218561   1.775   7.521   2.781
 2303SOL     OW18562   9.129   7.224   6.090
 2303SOL    HW118563   9.051   7.178   6.047
 2303SOL    HW218564   9.163   7.295   6.029
 2304SOL     OW18565   5.438   5.279   0.193
 2304SOL    HW118566   5.382   5.350   0.149
 2304SOL    HW218567   5.507   5.322   0.251
 2305SOL     OW18568   7.110   1.549   5.515
 2305SOL    HW118569   7.160   1.464   5.530
 2305SOL    HW218570   7.087   1.557   5.418
 2306SOL     OW18571   1.493   5.432   4.212
 2306SOL    HW118572   1.431   5.409   4.287
 2306SOL    HW218573   1.567   5.364   4.208
 2307SOL     OW18574   6.203   5.397   0.119
 2307SOL    HW118575   6.213   5.325   0.051
 2307SOL    HW218576   6.107   5.407   0.144
 2308SOL     OW18577   4.456   8.496   6.876
 2308SOL    HW118578   4.399   8.420   6.844
 2308SOL    HW218579   4.533   8.459   6.929
 2309SOL     OW18580   2.290   7.863   6.597
 2309SOL    HW118581   2.212   7.803   6.584
 2309SOL    HW218582   2.359   7.817   6.653
 2310SOL     OW18583   9.743   5.307   3.460
 2310SOL    HW118584   9.737   5.318   3.559
 2310SOL    HW218585   9.837   5.289   3.433
 2311SOL     OW18586   8.544   5.194   7.609
 2311SOL    HW118587   8.536   5.263   7.682
 2311SOL    HW218588   8.488   5.221   7.531
 2312SOL     OW18589   9.710   7.672   0.191
 2312SOL    HW118590   9.704   7.771   0.206
 2312SOL    HW218591   9.633   7.628   0.237
 2313SOL     OW18592   2.642   9.736   3.393
 2313SOL    HW118593   2.651   9.833   3.369
 2313SOL    HW218594   2.620   9.728   3.490
 2314SOL     OW18595   7.081   1.419   4.903
 2314SOL    HW118596   7.079   1.320   4.896
 2314SOL    HW218597   7.174   1.452   4.882
 2315SOL     OW18598   8.847   3.324   7.696
 2315SOL    HW118599   8.940   3.352   7.669
 2315SOL    HW218600   8.852   3.269   7.779
 2316SOL     OW18601   6.401   8.568   4.621
 2316SOL    HW118602   6.440   8.522   4.542
 2316SOL    HW218603   6.473   8.619   4.669
 2317SOL     OW18604   3.483   9.480   5.768
 2317SOL    HW118605   3.518   9.403   5.715
 2317SOL    HW218606   3.537   9.562   5.748
 2318SOL     OW18607   5.012   9.024   2.517
 2318SOL    HW118608   4.996   8.927   2.537
 2318SOL    HW218609   4.926   9.074   2.516
 2319SOL     OW18610   1.473   5.125   4.009
 2319SOL    HW118611   1.464   5.034   3.968
 2319SOL    HW218612   1.448   5.121   4.106
 2320SOL     OW18613   8.410   7.943   1.795
 2320SOL    HW118614   8.499   7.915   1.757
 2320SOL    HW218615   8.414   7.938   1.895
 2321SOL     OW18616   3.462   0.100   7.480
 2321SOL    HW118617   3.442   0.190   7.442
 2321SOL    HW218618   3.426   0.093   7.573
 2322SOL     OW18619   2.075   6.614   3.236
 2322SOL    HW118620   1.976   6.616   3.226
 2322SOL    HW218621   2.100   6.645   3.328
 2323SOL     OW18622   7.714   2.876   1.717
 2323SOL    HW118623   7.629   2.879   1.665
 2323SOL    HW218624   7.694   2.881   1.815
 2324SOL     OW18625   5.812   4.327   2.413
 2324SOL    HW118626   5.741   4.397   2.420
 2324SOL    HW218627   5.772   4.237   2.432
 2325SOL     OW18628   8.205   1.098   0.623
 2325SOL    HW118629   8.187   1.196   0.620
 2325SOL    HW218630   8.134   1.049   0.573
 2326SOL     OW18631   7.033   3.984   0.599
 2326SOL    HW118632   6.959   3.918   0.606
 2326SOL    HW218633   7.090   3.962   0.520
 2327SOL     OW18634   7.981   6.677   6.817
 2327SOL    HW118635   8.046   6.741   6.775
 2327SOL    HW218636   7.935   6.722   6.893
 2328SOL     OW18637   3.030   0.201   6.008
 2328SOL    HW118638   2.938   0.240   6.017
 2328SOL    HW218639   3.065   0.177   6.099
 2329SOL     OW18640   3.177   2.776   5.033
 2329SOL    HW118641   3.123   2.721   5.096
 2329SOL    HW218642   3.272   2.778   5.064
 2330SOL     OW18643   7.705   5.205   3.250
 2330SOL    HW118644   7.797   5.226   3.217
 2330SOL    HW218645   7.709   5.125   3.310
 2331SOL     OW18646   3.325   4.697   3.907
 2331SOL    HW118647   3.328   4.797   3.914
 2331SOL    HW218648   3.416   4.662   3.884
 2332SOL     OW18649   0.131   1.705   5.603
 2332SOL    HW118650   0.227   1.707   5.577
 2332SOL    HW218651   0.077   1.755   5.535
 2333SOL     OW18652   7.831   0.728   2.190
 2333SOL    HW118653   7.781   0.663   2.132
 2333SOL    HW218654   7.875   0.678   2.265
 2334SOL     OW18655   0.606   4.862   6.375
 2334SOL    HW118656   0.690   4.869   6.321
 2334SOL    HW218657   0.618   4.911   6.462
 2335SOL     OW18658   8.904   3.761   6.240
 2335SOL    HW118659   8.902   3.835   6.173
 2335SOL    HW218660   8.969   3.783   6.312
 2336SOL     OW18661   3.509   4.624   5.718
 2336SOL    HW118662   3.482   4.719   5.701
 2336SOL    HW218663   3.602   4.609   5.685
 2337SOL     OW18664   7.485   9.353   4.022
 2337SOL    HW118665   7.440   9.300   3.949
 2337SOL    HW218666   7.579   9.322   4.033
 2338SOL     OW18667   6.615   8.589   4.288
 2338SOL    HW118668   6.629   8.563   4.193
 2338SOL    HW218669   6.532   8.545   4.323
 2339SOL     OW18670   9.628   3.331   4.700
 2339SOL    HW118671   9.669   3.419   4.676
 2339SOL    HW218672   9.599   3.332   4.796
 2340SOL     OW18673   6.815   8.373   1.946
 2340SOL    HW118674   6.732   8.375   2.002
 2340SOL    HW218675   6.811   8.446   1.878
 2341SOL     OW18676   8.086   0.162   6.803
 2341SOL    HW118677   8.136   0.214   6.872
 2341SOL    HW218678   8.053   0.076   6.843
 2342SOL     OW18679   0.448   3.064   6.498
 2342SOL    HW118680   0.526   3.099   6.550
 2342SOL    HW218681   0.364   3.107   6.530
 2343SOL     OW18682   2.226   3.041   4.156
 2343SOL    HW118683   2.289   3.095   4.101
 2343SOL    HW218684   2.257   2.946   4.160
 2344SOL     OW18685   2.726   0.800   7.790
 2344SOL    HW118686   2.772   0.889   7.800
 2344SOL    HW218687   2.784   0.728   7.826
 2345SOL     OW18688   3.819   6.913   0.718
 2345SOL    HW118689   3.796   6.990   0.778
 2345SOL    HW218690   3.870   6.845   0.770
 2346SOL     OW18691   3.486   6.236   2.958
 2346SOL    HW118692   3.527   6.197   2.875
 2346SOL    HW218693   3.516   6.183   3.038
 2347SOL     OW18694   2.800   6.348   7.270
 2347SOL    HW118695   2.759   6.431   7.309
 2347SOL    HW218696   2.730   6.276   7.266
 2348SOL     OW18697   6.524   0.608   6.728
 2348SOL    HW118698   6.521   0.667   6.647
 2348SOL    HW218699   6.609   0.555   6.729
 2349SOL     OW18700   9.785   5.563   1.972
 2349SOL    HW118701   9.774   5.564   1.873
 2349SOL    HW218702   9.761   5.653   2.009
 2350SOL     OW18703   1.440   4.823   7.817
 2350SOL    HW118704   1.341   4.809   7.817
 2350SOL    HW218705   1.486   4.739   7.848
 2351SOL     OW18706   0.295   4.086   1.813
 2351SOL    HW118707   0.356   4.084   1.734
 2351SOL    HW218708   0.289   4.179   1.849
 2352SOL     OW18709   0.811   3.622   6.129
 2352SOL    HW118710   0.750   3.622   6.049
 2352SOL    HW218711   0.760   3.596   6.211
 2353SOL     OW18712   8.426   2.611   0.114
 2353SOL    HW118713   8.499   2.645   0.173
 2353SOL    HW218714   8.407   2.515   0.137
 2354SOL     OW18715   1.401   6.036   5.953
 2354SOL    HW118716   1.476   6.074   5.900
 2354SOL    HW218717   1.418   6.052   6.050
 2355SOL     OW18718   0.340   6.819   3.301
 2355SOL    HW118719   0.418   6.759   3.316
 2355SOL    HW218720   0.279   6.778   3.233
 2356SOL     OW18721   9.453   9.064   1.044
 2356SOL    HW118722   9.474   8.973   1.080
 2356SOL    HW218723   9.365   9.061   0.995
 2357SOL     OW18724   1.019   1.860   1.565
 2357SOL    HW118725   0.920   1.855   1.571
 2357SOL    HW218726   1.046   1.954   1.540
 2358SOL     OW18727   7.504   4.867   7.638
 2358SOL    HW118728   7.509   4.845   7.541
 2358SOL    HW218729   7.570   4.811   7.689
 2359SOL     OW18730   8.093   5.239   5.976
 2359SOL    HW118731   8.051   5.148   5.969
 2359SOL    HW218732   8.183   5.231   6.018
 2360SOL     OW18733   0.194   4.350   2.280
 2360SOL    HW118734   0.275   4.297   2.255
 2360SOL    HW218735   0.114   4.311   2.234
 2361SOL     OW18736   4.414   1.508   5.821
 2361SOL    HW118737   4.424   1.572   5.745
 2361SOL    HW218738   4.357   1.549   5.891
 2362SOL     OW18739   0.407   1.295   2.538
 2362SOL    HW118740   0.344   1.235   2.588
 2362SOL    HW218741   0.383   1.390   2.557
 2363SOL     OW18742   1.838   1.033   4.222
 2363SOL    HW118743   1.813   1.130   4.231
 2363SOL    HW218744   1.834   1.007   4.126
 2364SOL     OW18745   4.156   6.266   4.609
 2364SOL    HW118746   4.178   6.347   4.664
 2364SOL    HW218747   4.118   6.295   4.521
 2365SOL     OW18748   3.023   1.625   2.375
 2365SOL    HW118749   3.120   1.601   2.375
 2365SOL    HW218750   3.001   1.678   2.457
 2366SOL     OW18751   8.789   9.128   7.429
 2366SOL    HW118752   8.790   9.222   7.464
 2366SOL    HW218753   8.694   9.099   7.412
 2367SOL     OW18754   1.856   9.696   5.957
 2367SOL    HW118755   1.922   9.731   5.891
 2367SOL    HW218756   1.892   9.708   6.050
 2368SOL     OW18757   8.789   1.396   4.269
 2368SOL    HW118758   8.807   1.384   4.172
 2368SOL    HW218759   8.876   1.399   4.319
 2369SOL     OW18760   1.951   6.604   0.820
 2369SOL    HW118761   1.879   6.640   0.879
 2369SOL    HW218762   1.952   6.655   0.734
 2370SOL     OW18763   1.556   7.440   4.186
 2370SOL    HW118764   1.594   7.444   4.094
 2370SOL    HW218765   1.619   7.390   4.246
 2371SOL     OW18766   7.642   0.214   3.317
 2371SOL    HW118767   7.603   0.201   3.408
 2371SOL    HW218768   7.587   0.164   3.250
 2372SOL     OW18769   8.541   2.855   5.204
 2372SOL    HW118770   8.519   2.861   5.107
 2372SOL    HW218771   8.535   2.760   5.234
 2373SOL     OW18772   2.277   4.175   6.095
 2373SOL    HW118773   2.250   4.269   6.114
 2373SOL    HW218774   2.354   4.150   6.152
 2374SOL     OW18775   4.940   1.977   1.337
 2374SOL    HW118776   4.885   1.957   1.419
 2374SOL    HW218777   4.892   2.045   1.281
 2375SOL     OW18778   6.660   2.827   0.234
 2375SOL    HW118779   6.660   2.894   0.161
 2375SOL    HW218780   6.702   2.866   0.316
 2376SOL     OW18781   2.045   6.471   4.549
 2376SOL    HW118782   2.144   6.464   4.557
 2376SOL    HW218783   2.009   6.387   4.510
 2377SOL     OW18784   1.247   4.538   6.174
 2377SOL    HW118785   1.218   4.586   6.257
 2377SOL    HW218786   1.278   4.605   6.106
 2378SOL     OW18787   6.344   5.564   0.967
 2378SOL    HW118788   6.436   5.526   0.975
 2378SOL    HW218789   6.310   5.590   1.058
 2379SOL     OW18790   7.948   9.749   5.119
 2379SOL    HW118791   8.036   9.796   5.115
 2379SOL    HW218792   7.922   9.734   5.214
 2380SOL     OW18793   4.451   4.532   7.390
 2380SOL    HW118794   4.461   4.630   7.402
 2380SOL    HW218795   4.508   4.484   7.458
 2381SOL     OW18796   9.098   7.230   6.358
 2381SOL    HW118797   9.113   7.227   6.259
 2381SOL    HW218798   9.002   7.251   6.376
 2382SOL     OW18799   7.012   7.324   2.888
 2382SOL    HW118800   7.038   7.290   2.978
 2382SOL    HW218801   6.965   7.412   2.897
 2383SOL     OW18802   9.537   1.248   1.291
 2383SOL    HW118803   9.469   1.247   1.365
 2383SOL    HW218804   9.604   1.176   1.307
 2384SOL     OW18805   0.803   7.741   3.841
 2384SOL    HW118806   0.870   7.792   3.894
 2384SOL    HW218807   0.750   7.682   3.902
 2385SOL     OW18808   9.971   5.798   3.874
 2385SOL    HW118809   0.034   5.873   3.894
 2385SOL    HW218810   9.877   5.832   3.877
 2386SOL     OW18811   7.323   8.124   1.449
 2386SOL    HW118812   7.267   8.143   1.529
 2386SOL    HW218813   7.402   8.186   1.448
 2387SOL     OW18814   3.300   9.172   6.406
 2387SOL    HW118815   3.317   9.082   6.448
 2387SOL    HW218816   3.367   9.238   6.440
 2388SOL     OW18817   2.387   6.052   3.691
 2388SOL    HW118818   2.382   6.028   3.788
 2388SOL    HW218819   2.459   6.120   3.677
 2389SOL     OW18820   0.064   9.810   1.430
 2389SOL    HW118821   0.034   9.881   1.493
 2389SOL    HW218822   0.130   9.751   1.476
 2390SOL     OW18823   0.860   9.539   0.462
 2390SOL    HW118824   0.836   9.541   0.365
 2390SOL    HW218825   0.958   9.555   0.473
 2391SOL     OW18826   7.289   2.428   3.165
 2391SOL    HW118827   7.308   2.358   3.233
 2391SOL    HW218828   7.196   2.463   3.178
 2392SOL     OW18829   8.803   1.345   3.999
 2392SOL    HW118830   8.791   1.436   3.959
 2392SOL    HW218831   8.856   1.288   3.936
 2393SOL     OW18832   1.039   0.027   0.189
 2393SOL    HW118833   1.035   0.094   0.115
 2393SOL    HW218834   1.113   0.052   0.253
 2394SOL     OW18835   3.609   1.320   6.931
 2394SOL    HW118836   3.601   1.285   7.024
 2394SOL    HW218837   3.583   1.249   6.866
 2395SOL     OW18838   9.846   8.509   6.908
 2395SOL    HW118839   9.894   8.489   6.822
 2395SOL    HW218840   9.750   8.480   6.899
 2396SOL     OW18841   2.534   6.380   7.846
 2396SOL    HW118842   2.468   6.454   7.837
 2396SOL    HW218843   2.494   6.306   7.901
 2397SOL     OW18844   9.274   6.991   2.561
 2397SOL    HW118845   9.294   7.089   2.562
 2397SOL    HW218846   9.208   6.970   2.633
 2398SOL     OW18847   6.791   0.496   1.110
 2398SOL    HW118848   6.818   0.531   1.020
 2398SOL    HW218849   6.698   0.527   1.130
 2399SOL     OW18850   1.032   9.456   5.517
 2399SOL    HW118851   1.019   9.391   5.442
 2399SOL    HW218852   1.065   9.407   5.598
 2400SOL     OW18853   5.931   7.134   4.191
 2400SOL    HW118854   5.872   7.102   4.264
 2400SOL    HW218855   6.021   7.092   4.199
 2401SOL     OW18856   8.991   8.893   1.376
 2401SOL    HW118857   8.962   8.862   1.285
 2401SOL    HW218858   9.067   8.957   1.366
 2402SOL     OW18859   4.142   9.926   7.023
 2402SOL    HW118860   4.238   9.906   7.003
 2402SOL    HW218861   4.093   9.944   6.938
 2403SOL     OW18862   6.753   1.120   2.669
 2403SOL    HW118863   6.846   1.157   2.673
 2403SOL    HW218864   6.695   1.167   2.735
 2404SOL     OW18865   9.312   2.058   1.043
 2404SOL    HW118866   9.315   2.103   0.954
 2404SOL    HW218867   9.366   1.974   1.039
 2405SOL     OW18868   5.690   0.286   3.832
 2405SOL    HW118869   5.662   0.228   3.909
 2405SOL    HW218870   5.758   0.237   3.777
 2406SOL     OW18871   0.558   5.700   6.687
 2406SOL    HW118872   0.515   5.609   6.686
 2406SOL    HW218873   0.563   5.733   6.781
 2407SOL     OW18874   9.631   9.581   6.637
 2407SOL    HW118875   9.718   9.535   6.619
 2407SOL    HW218876   9.647   9.660   6.697
 2408SOL     OW18877   6.538   1.567   6.301
 2408SOL    HW118878   6.475   1.645   6.304
 2408SOL    HW218879   6.582   1.564   6.212
 2409SOL     OW18880   3.768   0.024   1.011
 2409SOL    HW118881   3.858   0.036   0.970
 2409SOL    HW218882   3.709   0.101   0.985
 2410SOL     OW18883   8.543   2.746   6.578
 2410SOL    HW118884   8.502   2.706   6.661
 2410SOL    HW218885   8.510   2.840   6.567
 2411SOL     OW18886   4.747   2.606   5.741
 2411SOL    HW118887   4.822   2.614   5.807
 2411SOL    HW218888   4.758   2.676   5.671
 2412SOL     OW18889   7.574   7.477   6.488
 2412SOL    HW118890   7.642   7.433   6.429
 2412SOL    HW218891   7.557   7.570   6.456
 2413SOL     OW18892   0.413   9.913   4.963
 2413SOL    HW118893   0.339   9.855   4.930
 2413SOL    HW218894   0.400   0.007   4.931
 2414SOL     OW18895   3.193   3.794   0.624
 2414SOL    HW118896   3.172   3.713   0.679
 2414SOL    HW218897   3.289   3.792   0.597
 2415SOL     OW18898   7.330   8.128   7.300
 2415SOL    HW118899   7.317   8.168   7.209
 2415SOL    HW218900   7.380   8.193   7.358
 2416SOL     OW18901   8.144   8.220   2.271
 2416SOL    HW118902   8.208   8.213   2.195
 2416SOL    HW218903   8.152   8.139   2.329
 2417SOL     OW18904   4.001   3.941   0.095
 2417SOL    HW118905   3.975   3.913   0.188
 2417SOL    HW218906   3.919   3.970   0.045
 2418SOL     OW18907   2.738   4.929   2.599
 2418SOL    HW118908   2.665   4.948   2.664
 2418SOL    HW218909   2.816   4.989   2.618
 2419SOL     OW18910   1.546   6.007   1.351
 2419SOL    HW118911   1.552   5.968   1.442
 2419SOL    HW218912   1.484   5.952   1.295
 2420SOL     OW18913   2.343   1.547   7.103
 2420SOL    HW118914   2.299   1.543   7.013
 2420SOL    HW218915   2.432   1.590   7.095
 2421SOL     OW18916   0.022   6.385   5.266
 2421SOL    HW118917   0.037   6.450   5.192
 2421SOL    HW218918   0.080   6.304   5.252
 2422SOL     OW18919   1.704   4.423   2.615
 2422SOL    HW118920   1.769   4.492   2.648
 2422SOL    HW218921   1.683   4.359   2.689
 2423SOL     OW18922   4.629   2.181   0.928
 2423SOL    HW118923   4.713   2.172   0.982
 2423SOL    HW218924   4.654   2.197   0.832
 2424SOL     OW18925   5.091   6.992   2.578
 2424SOL    HW118926   5.109   6.985   2.480
 2424SOL    HW218927   5.038   7.074   2.597
 2425SOL     OW18928   3.768   6.656   2.301
 2425SOL    HW118929   3.686   6.611   2.266
 2425SOL    HW218930   3.742   6.730   2.362
 2426SOL     OW18931   3.533   6.534   2.218
 2426SOL    HW118932   3.521   6.483   2.303
 2426SOL    HW218933   3.509   6.476   2.140
 2427SOL     OW18934   8.517   6.695   7.021
 2427SOL    HW118935   8.576   6.715   6.944
 2427SOL    HW218936   8.485   6.600   7.015
 2428SOL     OW18937   6.315   0.814   2.563
 2428SOL    HW118938   6.239   0.779   2.508
 2428SOL    HW218939   6.366   0.881   2.510
 2429SOL     OW18940   2.078   0.359   6.860
 2429SOL    HW118941   2.078   0.301   6.778
 2429SOL    HW218942   2.160   0.339   6.915
 2430SOL     OW18943   3.286   8.129   2.173
 2430SOL    HW118944   3.367   8.081   2.207
 2430SOL    HW218945   3.298   8.151   2.076
 2431SOL     OW18946   6.637   9.598   6.980
 2431SOL    HW118947   6.550   9.559   6.952
 2431SOL    HW218948   6.691   9.623   6.900
 2432SOL     OW18949   2.456   9.015   3.594
 2432SOL    HW118950   2.439   9.113   3.587
 2432SOL    HW218951   2.502   8.983   3.511
 2433SOL     OW18952   2.553   3.784   0.390
 2433SOL    HW118953   2.491   3.805   0.465
 2433SOL    HW218954   2.565   3.865   0.333
 2434SOL     OW18955   4.291   7.608   0.804
 2434SOL    HW118956   4.283   7.706   0.821
 2434SOL    HW218957   4.219   7.580   0.740
 2435SOL     OW18958   5.575   9.353   4.726
 2435SOL    HW118959   5.490   9.389   4.764
 2435SOL    HW218960   5.614   9.418   4.662
 2436SOL     OW18961   6.934   8.357   4.115
 2436SOL    HW118962   6.900   8.375   4.207
 2436SOL    HW218963   7.032   8.335   4.120
 2437SOL     OW18964   3.950   4.048   3.047
 2437SOL    HW118965   3.861   4.079   3.016
 2437SOL    HW218966   3.958   4.064   3.146
 2438SOL     OW18967   0.655   1.111   5.895
 2438SOL    HW118968   0.610   1.160   5.970
 2438SOL    HW218969   0.601   1.122   5.811
 2439SOL     OW18970   1.664   9.216   4.287
 2439SOL    HW118971   1.589   9.220   4.354
 2439SOL    HW218972   1.701   9.308   4.273
 2440SOL     OW18973   6.242   3.381   0.246
 2440SOL    HW118974   6.318   3.425   0.200
 2440SOL    HW218975   6.271   3.292   0.283
 2441SOL     OW18976   3.646   1.096   7.422
 2441SOL    HW118977   3.683   1.132   7.508
 2441SOL    HW218978   3.711   1.032   7.382
 2442SOL     OW18979   4.435   9.882   6.940
 2442SOL    HW118980   4.458   9.945   6.866
 2442SOL    HW218981   4.490   9.799   6.932
 2443SOL     OW18982   0.334   1.473   5.237
 2443SOL    HW118983   0.431   1.467   5.211
 2443SOL    HW218984   0.293   1.552   5.192
 2444SOL     OW18985   3.614   3.674   6.356
 2444SOL    HW118986   3.567   3.604   6.304
 2444SOL    HW218987   3.699   3.699   6.309
 2445SOL     OW18988   9.205   2.930   6.340
 2445SOL    HW118989   9.187   2.860   6.271
 2445SOL    HW218990   9.191   3.021   6.301
 2446SOL     OW18991   4.333   6.983   0.464
 2446SOL    HW118992   4.310   6.890   0.494
 2446SOL    HW218993   4.278   7.048   0.517
 2447SOL     OW18994   9.636   1.480   4.434
 2447SOL    HW118995   9.572   1.554   4.453
 2447SOL    HW218996   9.640   1.418   4.512
 2448SOL     OW18997   0.677   2.642   7.259
 2448SOL    HW118998   0.629   2.726   7.231
 2448SOL    HW218999   0.621   2.563   7.235
 2449SOL     OW19000   9.042   3.425   2.021
 2449SOL    HW119001   9.073   3.482   1.945
 2449SOL    HW219002   9.102   3.439   2.100
 2450SOL     OW19003   6.729   0.268   7.592
 2450SOL    HW119004   6.646   0.256   7.647
 2450SOL    HW219005   6.704   0.292   7.498
 2451SOL     OW19006   7.925   3.878   7.235
 2451SOL    HW119007   8.000   3.882   7.170
 2451SOL    HW219008   7.957   3.835   7.320
 2452SOL     OW19009   7.615   9.390   7.073
 2452SOL    HW119010   7.573   9.328   7.139
 2452SOL    HW219011   7.581   9.369   6.981
 2453SOL     OW19012   3.372   5.769   2.377
 2453SOL    HW119013   3.373   5.858   2.332
 2453SOL    HW219014   3.433   5.707   2.328
 2454SOL     OW19015   9.289   8.997   7.212
 2454SOL    HW119016   9.234   9.000   7.128
 2454SOL    HW219017   9.319   9.090   7.235
 2455SOL     OW19018   5.616   9.132   1.982
 2455SOL    HW119019   5.563   9.065   1.931
 2455SOL    HW219020   5.555   9.193   2.031
 2456SOL     OW19021   3.497   5.930   7.681
 2456SOL    HW119022   3.443   5.942   7.764
 2456SOL    HW219023   3.498   6.015   7.628
 2457SOL     OW19024   5.290   0.307   5.166
 2457SOL    HW119025   5.199   0.293   5.127
 2457SOL    HW219026   5.287   0.287   5.264
 2458SOL     OW19027   8.161   7.433   4.544
 2458SOL    HW119028   8.122   7.460   4.456
 2458SOL    HW219029   8.211   7.347   4.534
 2459SOL     OW19030   1.670   5.416   7.384
 2459SOL    HW119031   1.648   5.382   7.292
 2459SOL    HW219032   1.700   5.339   7.441
 2460SOL     OW19033   1.807   4.577   5.403
 2460SOL    HW119034   1.742   4.506   5.377
 2460SOL    HW219035   1.797   4.656   5.343
 2461SOL     OW19036   0.781   8.384   0.547
 2461SOL    HW119037   0.783   8.356   0.643
 2461SOL    HW219038   0.795   8.304   0.489
 2462SOL     OW19039   0.443   2.381   0.646
 2462SOL    HW119040   0.425   2.354   0.552
 2462SOL    HW219041   0.402   2.471   0.664
 2463SOL     OW19042   1.697   6.784   4.581
 2463SOL    HW119043   1.688   6.879   4.610
 2463SOL    HW219044   1.611   6.735   4.597
 2464SOL     OW19045   7.496   0.259   3.918
 2464SOL    HW119046   7.534   0.335   3.865
 2464SOL    HW219047   7.433   0.295   3.987
 2465SOL     OW19048   1.099   7.463   2.692
 2465SOL    HW119049   1.195   7.477   2.668
 2465SOL    HW219050   1.069   7.374   2.659
 2466SOL     OW19051   2.475   0.329   3.265
 2466SOL    HW119052   2.419   0.377   3.333
 2466SOL    HW219053   2.510   0.395   3.198
 2467SOL     OW19054   1.040   3.134   1.704
 2467SOL    HW119055   1.015   3.063   1.771
 2467SOL    HW219056   1.140   3.143   1.702
 2468SOL     OW19057   3.788   3.125   1.445
 2468SOL    HW119058   3.689   3.123   1.434
 2468SOL    HW219059   3.813   3.080   1.531
 2469SOL     OW19060   9.289   4.146   1.999
 2469SOL    HW119061   9.287   4.230   1.945
 2469SOL    HW219062   9.231   4.156   2.079
 2470SOL     OW19063   4.823   5.062   1.922
 2470SOL    HW119064   4.804   4.976   1.874
 2470SOL    HW219065   4.788   5.056   2.016
 2471SOL     OW19066   2.618   6.748   0.591
 2471SOL    HW119067   2.536   6.797   0.621
 2471SOL    HW219068   2.660   6.702   0.669
 2472SOL     OW19069   9.528   9.556   6.383
 2472SOL    HW119070   9.552   9.575   6.479
 2472SOL    HW219071   9.541   9.459   6.364
 2473SOL     OW19072   5.243   5.077   7.203
 2473SOL    HW119073   5.291   5.145   7.259
 2473SOL    HW219074   5.219   5.118   7.114
 2474SOL     OW19075   2.780   9.896   6.833
 2474SOL    HW119076   2.878   9.875   6.833
 2474SOL    HW219077   2.749   9.908   6.928
 2475SOL     OW19078   0.887   9.501   7.518
 2475SOL    HW119079   0.954   9.512   7.592
 2475SOL    HW219080   0.925   9.536   7.433
 2476SOL     OW19081   1.695   5.513   3.823
 2476SOL    HW119082   1.720   5.593   3.768
 2476SOL    HW219083   1.698   5.537   3.920
 2477SOL     OW19084   2.866   2.330   6.920
 2477SOL    HW119085   2.781   2.350   6.970
 2477SOL    HW219086   2.930   2.406   6.931
 2478SOL     OW19087   0.600   6.433   6.150
 2478SOL    HW119088   0.688   6.416   6.105
 2478SOL    HW219089   0.532   6.458   6.080
 2479SOL     OW19090   3.550   3.977   2.828
 2479SOL    HW119091   3.470   3.979   2.888
 2479SOL    HW219092   3.521   3.967   2.733
 2480SOL     OW19093   2.669   7.958   4.290
 2480SOL    HW119094   2.629   8.015   4.217
 2480SOL    HW219095   2.625   7.980   4.377
 2481SOL     OW19096   0.857   0.504   4.555
 2481SOL    HW119097   0.807   0.590   4.551
 2481SOL    HW219098   0.834   0.448   4.475
 2482SOL     OW19099   8.501   7.394   3.027
 2482SOL    HW119100   8.526   7.332   2.953
 2482SOL    HW219101   8.409   7.373   3.059
 2483SOL     OW19102   9.669   2.790   6.485
 2483SOL    HW119103   9.591   2.852   6.478
 2483SOL    HW219104   9.753   2.843   6.500
 2484SOL     OW19105   0.022   1.322   2.432
 2484SOL    HW119106   0.039   1.414   2.467
 2484SOL    HW219107   9.988   1.264   2.507
 2485SOL     OW19108   8.159   7.573   3.021
 2485SOL    HW119109   8.187   7.488   3.064
 2485SOL    HW219110   8.239   7.624   2.990
 2486SOL     OW19111   7.062   4.970   0.924
 2486SOL    HW119112   6.992   4.977   0.996
 2486SOL    HW219113   7.030   5.020   0.843
 2487SOL     OW19114   8.627   7.744   3.282
 2487SOL    HW119115   8.630   7.707   3.375
 2487SOL    HW219116   8.698   7.814   3.272
 2488SOL     OW19117   1.379   9.484   5.070
 2488SOL    HW119118   1.436   9.467   5.150
 2488SOL    HW219119   1.428   9.545   5.007
 2489SOL     OW19120   2.725   5.125   7.273
 2489SOL    HW119121   2.765   5.163   7.189
 2489SOL    HW219122   2.636   5.167   7.290
 2490SOL     OW19123   2.898   4.673   2.174
 2490SOL    HW119124   2.852   4.736   2.110
 2490SOL    HW219125   2.919   4.721   2.259
 2491SOL     OW19126   0.728   5.770   4.580
 2491SOL    HW119127   0.632   5.797   4.580
 2491SOL    HW219128   0.753   5.735   4.670
 2492SOL     OW19129   1.558   8.602   1.931
 2492SOL    HW119130   1.563   8.527   1.996
 2492SOL    HW219131   1.507   8.678   1.971
 2493SOL     OW19132   8.609   3.558   7.420
 2493SOL    HW119133   8.596   3.592   7.513
 2493SOL    HW219134   8.681   3.611   7.374
 2494SOL     OW19135   8.759   4.331   2.450
 2494SOL    HW119136   8.766   4.238   2.413
 2494SOL    HW219137   8.736   4.326   2.547
 2495SOL     OW19138   9.530   0.009   4.150
 2495SOL    HW119139   9.512   9.981   4.244
 2495SOL    HW219140   9.615   0.061   4.146
 2496SOL     OW19141   8.185   0.202   2.741
 2496SOL    HW119142   8.255   0.139   2.709
 2496SOL    HW219143   8.228   0.286   2.774
 2497SOL     OW19144   9.724   1.850   1.093
 2497SOL    HW119145   9.803   1.828   1.036
 2497SOL    HW219146   9.755   1.865   1.187
 2498SOL     OW19147   9.303   9.938   0.894
 2498SOL    HW119148   9.357   9.971   0.970
 2498SOL    HW219149   9.212   9.910   0.926
 2499SOL     OW19150   8.997   9.974   2.280
 2499SOL    HW119151   9.085   9.993   2.324
 2499SOL    HW219152   9.012   9.922   2.196
 2500SOL     OW19153   3.178   8.647   5.804
 2500SOL    HW119154   3.228   8.732   5.791
 2500SOL    HW219155   3.243   8.570   5.803
 2501SOL     OW19156   5.089   7.149   2.882
 2501SOL    HW119157   5.162   7.218   2.890
 2501SOL    HW219158   5.128   7.058   2.891
 2502SOL     OW19159   9.074   7.026   4.116
 2502SOL    HW119160   9.091   7.073   4.029
 2502SOL    HW219161   9.073   6.927   4.101
 2503SOL     OW19162   7.283   7.428   4.227
 2503SOL    HW119163   7.371   7.430   4.180
 2503SOL    HW219164   7.230   7.349   4.195
 2504SOL     OW19165   9.830   7.083   5.152
 2504SOL    HW119166   9.877   7.136   5.081
 2504SOL    HW219167   9.871   7.102   5.241
 2505SOL     OW19168   8.258   2.828   2.168
 2505SOL    HW119169   8.268   2.927   2.157
 2505SOL    HW219170   8.169   2.808   2.208
 2506SOL     OW19171   5.435   1.512   0.487
 2506SOL    HW119172   5.392   1.436   0.438
 2506SOL    HW219173   5.528   1.487   0.514
 2507SOL     OW19174   2.208   4.572   6.129
 2507SOL    HW119175   2.221   4.617   6.041
 2507SOL    HW219176   2.125   4.516   6.126
 2508SOL     OW19177   4.298   7.171   0.100
 2508SOL    HW119178   4.386   7.203   0.133
 2508SOL    HW219179   4.286   7.075   0.125
 2509SOL     OW19180   1.987   8.240   0.508
 2509SOL    HW119181   2.084   8.264   0.496
 2509SOL    HW219182   1.959   8.260   0.602
 2510SOL     OW19183   3.459   7.967   5.766
 2510SOL    HW119184   3.500   7.965   5.675
 2510SOL    HW219185   3.372   8.016   5.762
 2511SOL     OW19186   7.335   0.977   6.319
 2511SOL    HW119187   7.304   1.071   6.336
 2511SOL    HW219188   7.427   0.978   6.280
 2512SOL     OW19189   6.845   9.717   5.930
 2512SOL    HW119190   6.903   9.798   5.924
 2512SOL    HW219191   6.853   9.664   5.846
 2513SOL     OW19192   7.342   3.384   2.298
 2513SOL    HW119193   7.258   3.356   2.252
 2513SOL    HW219194   7.368   3.475   2.265
 2514SOL     OW19195   4.967   0.454   6.803
 2514SOL    HW119196   4.996   0.454   6.707
 2514SOL    HW219197   4.916   0.370   6.823
 2515SOL     OW19198   6.886   1.866   3.059
 2515SOL    HW119199   6.845   1.955   3.078
 2515SOL    HW219200   6.923   1.866   2.966
 2516SOL     OW19201   2.001   7.879   0.753
 2516SOL    HW119202   2.089   7.884   0.706
 2516SOL    HW219203   1.929   7.914   0.693
 2517SOL     OW19204   1.148   7.462   3.036
 2517SOL    HW119205   1.067   7.431   2.985
 2517SOL    HW219206   1.134   7.555   3.068
 2518SOL     OW19207   4.819   2.344   1.646
 2518SOL    HW119208   4.895   2.358   1.710
 2518SOL    HW219209   4.773   2.258   1.667
 2519SOL     OW19210   3.020   7.184   7.532
 2519SOL    HW119211   2.959   7.264   7.533
 2519SOL    HW219212   2.967   7.102   7.513
 2520SOL     OW19213   2.454   8.966   6.546
 2520SOL    HW119214   2.475   9.047   6.599
 2520SOL    HW219215   2.537   8.932   6.501
 2521SOL     OW19216   0.844   7.467   1.278
 2521SOL    HW119217   0.903   7.425   1.347
 2521SOL    HW219218   0.900   7.502   1.204
 2522SOL     OW19219   2.754   5.880   4.851
 2522SOL    HW119220   2.733   5.960   4.906
 2522SOL    HW219221   2.671   5.848   4.805
 2523SOL     OW19222   5.583   9.647   1.817
 2523SOL    HW119223   5.520   9.569   1.818
 2523SOL    HW219224   5.551   9.714   1.750
 2524SOL     OW19225   8.695   9.017   5.392
 2524SOL    HW119226   8.636   9.080   5.442
 2524SOL    HW219227   8.696   8.928   5.438
 2525SOL     OW19228   3.376   2.631   2.045
 2525SOL    HW119229   3.296   2.571   2.051
 2525SOL    HW219230   3.444   2.603   2.112
 2526SOL     OW19231   2.701   9.250   0.406
 2526SOL    HW119232   2.738   9.273   0.316
 2526SOL    HW219233   2.687   9.152   0.412
 2527SOL     OW19234   8.109   5.388   0.730
 2527SOL    HW119235   8.121   5.316   0.662
 2527SOL    HW219236   8.197   5.409   0.772
 2528SOL     OW19237   7.105   4.344   1.527
 2528SOL    HW119238   7.194   4.345   1.571
 2528SOL    HW219239   7.054   4.263   1.557
 2529SOL     OW19240   4.476   9.108   5.651
 2529SOL    HW119241   4.395   9.063   5.612
 2529SOL    HW219242   4.494   9.070   5.742
 2530SOL     OW19243   0.996   3.347   0.609
 2530SOL    HW119244   0.999   3.288   0.689
 2530SOL    HW219245   1.000   3.291   0.526
 2531SOL     OW19246   8.254   1.613   4.978
 2531SOL    HW119247   8.322   1.636   4.909
 2531SOL    HW219248   8.206   1.529   4.952
 2532SOL     OW19249   7.621   5.723   6.430
 2532SOL    HW119250   7.656   5.731   6.524
 2532SOL    HW219251   7.691   5.680   6.373
 2533SOL     OW19252   8.895   4.296   4.248
 2533SOL    HW119253   8.912   4.394   4.255
 2533SOL    HW219254   8.799   4.280   4.228
 2534SOL     OW19255   9.292   6.299   4.936
 2534SOL    HW119256   9.287   6.215   4.881
 2534SOL    HW219257   9.386   6.311   4.969
 2535SOL     OW19258   6.504   2.602   5.077
 2535SOL    HW119259   6.592   2.650   5.074
 2535SOL    HW219260   6.432   2.663   5.045
 2536SOL     OW19261   6.988   3.494   2.948
 2536SOL    HW119262   6.938   3.502   3.033
 2536SOL    HW219263   6.924   3.475   2.873
 2537SOL     OW19264   0.085   2.918   0.125
 2537SOL    HW119265   0.155   2.982   0.092
 2537SOL    HW219266   9.998   2.967   0.135
 2538SOL     OW19267   9.847   5.723   5.115
 2538SOL    HW119268   9.793   5.750   5.194
 2538SOL    HW219269   9.911   5.650   5.141
 2539SOL     OW19270   3.888   3.845   7.154
 2539SOL    HW119271   3.796   3.806   7.150
 2539SOL    HW219272   3.954   3.777   7.123
 2540SOL     OW19273   2.231   2.286   5.374
 2540SOL    HW119274   2.309   2.318   5.429
 2540SOL    HW219275   2.178   2.365   5.344
 2541SOL     OW19276   2.697   2.859   3.669
 2541SOL    HW119277   2.644   2.938   3.638
 2541SOL    HW219278   2.688   2.850   3.768
 2542SOL     OW19279   2.234   0.155   2.877
 2542SOL    HW119280   2.196   0.160   2.969
 2542SOL    HW219281   2.204   0.070   2.833
 2543SOL     OW19282   8.852   1.396   1.268
 2543SOL    HW119283   8.925   1.402   1.336
 2543SOL    HW219284   8.776   1.342   1.304
 2544SOL     OW19285   4.519   6.174   0.323
 2544SOL    HW119286   4.531   6.077   0.300
 2544SOL    HW219287   4.423   6.198   0.315
 2545SOL     OW19288   4.135   4.303   2.378
 2545SOL    HW119289   4.074   4.232   2.341
 2545SOL    HW219290   4.167   4.361   2.304
 2546SOL     OW19291   5.314   5.724   0.080
 2546SOL    HW119292   5.363   5.806   0.051
 2546SOL    HW219293   5.216   5.745   0.087
 2547SOL     OW19294   1.600   2.424   2.867
 2547SOL    HW119295   1.656   2.421   2.949
 2547SOL    HW219296   1.566   2.332   2.846
 2548SOL     OW19297   9.647   3.153   6.376
 2548SOL    HW119298   9.723   3.104   6.333
 2548SOL    HW219299   9.576   3.087   6.403
 2549SOL     OW19300   1.362   7.374   0.902
 2549SOL    HW119301   1.403   7.288   0.872
 2549SOL    HW219302   1.409   7.450   0.857
 2550SOL     OW19303   3.031   4.253   4.511
 2550SOL    HW119304   3.017   4.289   4.419
 2550SOL    HW219305   2.943   4.236   4.555
 2551SOL     OW19306   1.267   2.527   2.260
 2551SOL    HW119307   1.260   2.496   2.355
 2551SOL    HW219308   1.363   2.543   2.237
 2552SOL     OW19309   3.604   1.276   2.451
 2552SOL    HW119310   3.568   1.323   2.531
 2552SOL    HW219311   3.616   1.179   2.472
 2553SOL     OW19312   7.044   1.171   6.601
 2553SOL    HW119313   7.037   1.075   6.627
 2553SOL    HW219314   7.114   1.181   6.530
 2554SOL     OW19315   8.074   0.087   6.532
 2554SOL    HW119316   8.097   0.100   6.629
 2554SOL    HW219317   8.093   9.992   6.507
 2555SOL     OW19318   0.492   4.662   2.231
 2555SOL    HW119319   0.544   4.607   2.165
 2555SOL    HW219320   0.485   4.612   2.317
 2556SOL     OW19321   6.254   9.474   4.337
 2556SOL    HW119322   6.321   9.504   4.405
 2556SOL    HW219323   6.283   9.388   4.296
 2557SOL     OW19324   1.861   6.174   0.501
 2557SOL    HW119325   1.835   6.155   0.596
 2557SOL    HW219326   1.778   6.181   0.445
 2558SOL     OW19327   9.641   6.640   4.038
 2558SOL    HW119328   9.664   6.735   4.058
 2558SOL    HW219329   9.713   6.599   3.982
 2559SOL     OW19330   7.936   4.429   3.464
 2559SOL    HW119331   7.904   4.480   3.544
 2559SOL    HW219332   8.034   4.411   3.473
 2560SOL     OW19333   7.103   2.803   3.606
 2560SOL    HW119334   7.176   2.854   3.652
 2560SOL    HW219335   7.111   2.818   3.507
 2561SOL     OW19336   1.075   0.206   6.401
 2561SOL    HW119337   1.171   0.208   6.371
 2561SOL    HW219338   1.035   0.297   6.389
 2562SOL     OW19339   2.391   4.771   2.601
 2562SOL    HW119340   2.326   4.832   2.556
 2562SOL    HW219341   2.465   4.749   2.538
 2563SOL     OW19342   3.893   3.935   4.380
 2563SOL    HW119343   3.934   3.844   4.383
 2563SOL    HW219344   3.964   4.003   4.364
 2564SOL     OW19345   0.620   5.049   5.236
 2564SOL    HW119346   0.549   5.119   5.246
 2564SOL    HW219347   0.633   5.028   5.139
 2565SOL     OW19348   7.234   0.731   6.725
 2565SOL    HW119349   7.218   0.716   6.823
 2565SOL    HW219350   7.219   0.645   6.675
 2566SOL     OW19351   1.748   4.359   5.963
 2566SOL    HW119352   1.673   4.347   6.027
 2566SOL    HW219353   1.722   4.424   5.892
 2567SOL     OW19354   5.384   9.465   5.057
 2567SOL    HW119355   5.308   9.487   5.119
 2567SOL    HW219356   5.390   9.366   5.046
 2568SOL     OW19357   5.095   0.583   5.707
 2568SOL    HW119358   5.044   0.505   5.742
 2568SOL    HW219359   5.106   0.651   5.780
 2569SOL     OW19360   2.690   8.129   7.584
 2569SOL    HW119361   2.705   8.224   7.612
 2569SOL    HW219362   2.727   8.114   7.493
 2570SOL     OW19363   9.257   0.741   6.629
 2570SOL    HW119364   9.238   0.771   6.536
 2570SOL    HW219365   9.265   0.641   6.631
 2571SOL     OW19366   9.401   3.160   0.466
 2571SOL    HW119367   9.391   3.229   0.538
 2571SOL    HW219368   9.417   3.070   0.507
 2572SOL     OW19369   0.336   2.413   3.119
 2572SOL    HW119370   0.249   2.362   3.116
 2572SOL    HW219371   0.412   2.349   3.113
 2573SOL     OW19372   4.713   0.929   0.495
 2573SOL    HW119373   4.806   0.927   0.460
 2573SOL    HW219374   4.663   0.849   0.461
 2574SOL     OW19375   5.575   2.286   1.696
 2574SOL    HW119376   5.661   2.329   1.667
 2574SOL    HW219377   5.521   2.262   1.615
 2575SOL     OW19378   1.017   6.006   6.830
 2575SOL    HW119379   1.014   5.955   6.744
 2575SOL    HW219380   1.110   6.002   6.868
 2576SOL     OW19381   0.015   5.309   3.392
 2576SOL    HW119382   0.071   5.284   3.313
 2576SOL    HW219383   0.019   5.408   3.406
 2577SOL     OW19384   5.139   3.845   6.639
 2577SOL    HW119385   5.046   3.813   6.657
 2577SOL    HW219386   5.163   3.828   6.544
 2578SOL     OW19387   3.774   1.723   5.909
 2578SOL    HW119388   3.696   1.780   5.934
 2578SOL    HW219389   3.760   1.686   5.817
 2579SOL     OW19390   2.410   0.416   6.784
 2579SOL    HW119391   2.373   0.360   6.858
 2579SOL    HW219392   2.467   0.490   6.823
 2580SOL     OW19393   2.766   4.834   1.986
 2580SOL    HW119394   2.737   4.929   2.001
 2580SOL    HW219395   2.794   4.822   1.891
 2581SOL     OW19396   0.632   2.031   1.848
 2581SOL    HW119397   0.614   2.084   1.766
 2581SOL    HW219398   0.618   1.934   1.829
 2582SOL     OW19399   4.260   9.509   2.127
 2582SOL    HW119400   4.214   9.506   2.038
 2582SOL    HW219401   4.342   9.452   2.124
 2583SOL     OW19402   3.310   0.365   3.480
 2583SOL    HW119403   3.264   0.285   3.443
 2583SOL    HW219404   3.258   0.402   3.557
 2584SOL     OW19405   1.993   8.454   7.322
 2584SOL    HW119406   1.940   8.387   7.374
 2584SOL    HW219407   2.069   8.486   7.378
 2585SOL     OW19408   2.148   5.415   0.036
 2585SOL    HW119409   2.244   5.442   0.028
 2585SOL    HW219410   2.094   5.494   0.064
 2586SOL     OW19411   4.392   3.972   0.911
 2586SOL    HW119412   4.485   4.008   0.913
 2586SOL    HW219413   4.374   3.929   0.822
 2587SOL     OW19414   4.257   4.439   0.377
 2587SOL    HW119415   4.310   4.372   0.325
 2587SOL    HW219416   4.255   4.526   0.329
 2588SOL     OW19417   3.828   4.931   4.634
 2588SOL    HW119418   3.800   4.860   4.698
 2588SOL    HW219419   3.925   4.918   4.610
 2589SOL     OW19420   9.918   5.116   1.415
 2589SOL    HW119421   9.960   5.205   1.435
 2589SOL    HW219422   9.824   5.115   1.450
 2590SOL     OW19423   3.592   9.854   1.574
 2590SOL    HW119424   3.632   9.800   1.500
 2590SOL    HW219425   3.591   9.800   1.659
 2591SOL     OW19426   9.772   9.151   1.264
 2591SOL    HW119427   9.758   9.108   1.353
 2591SOL    HW219428   9.847   9.106   1.216
 2592SOL     OW19429   6.063   9.164   6.164
 2592SOL    HW119430   6.098   9.081   6.205
 2592SOL    HW219431   5.963   9.163   6.165
 2593SOL     OW19432   2.819   2.856   3.282
 2593SOL    HW119433   2.845   2.882   3.375
 2593SOL    HW219434   2.876   2.906   3.217
 2594SOL     OW19435   7.116   3.281   2.175
 2594SOL    HW119436   7.082   3.207   2.234
 2594SOL    HW219437   7.054   3.292   2.097
 2595SOL     OW19438   3.559   6.791   5.756
 2595SOL    HW119439   3.617   6.716   5.786
 2595SOL    HW219440   3.616   6.867   5.724
 2596SOL     OW19441   9.622   3.755   0.961
 2596SOL    HW119442   9.711   3.797   0.976
 2596SOL    HW219443   9.550   3.815   0.995
 2597SOL     OW19444   1.472   9.507   1.849
 2597SOL    HW119445   1.389   9.513   1.905
 2597SOL    HW219446   1.467   9.426   1.792
 2598SOL     OW19447   0.977   2.217   7.414
 2598SOL    HW119448   1.074   2.199   7.432
 2598SOL    HW219449   0.952   2.306   7.452
 2599SOL     OW19450   3.878   4.962   5.414
 2599SOL    HW119451   3.810   4.910   5.362
 2599SOL    HW219452   3.856   5.059   5.411
 2600SOL     OW19453   8.868   8.374   5.474
 2600SOL    HW119454   8.945   8.310   5.469
 2600SOL    HW219455   8.842   8.386   5.570
 2601SOL     OW19456   7.452   8.911   3.924
 2601SOL    HW119457   7.403   8.840   3.873
 2601SOL    HW219458   7.539   8.874   3.956
 2602SOL     OW19459   2.869   9.391   3.871
 2602SOL    HW119460   2.920   9.473   3.895
 2602SOL    HW219461   2.924   9.334   3.810
 2603SOL     OW19462   9.192   3.427   6.362
 2603SOL    HW119463   9.268   3.482   6.327
 2603SOL    HW219464   9.203   3.332   6.331
 2604SOL     OW19465   3.341   1.787   0.437
 2604SOL    HW119466   3.310   1.748   0.523
 2604SOL    HW219467   3.302   1.735   0.361
 2605SOL     OW19468   6.277   8.588   2.625
 2605SOL    HW119469   6.359   8.549   2.667
 2605SOL    HW219470   6.263   8.547   2.535
 2606SOL     OW19471   5.136   9.206   5.297
 2606SOL    HW119472   5.045   9.170   5.274
 2606SOL    HW219473   5.158   9.182   5.391
 2607SOL     OW19474   7.115   7.511   6.951
 2607SOL    HW119475   7.142   7.588   7.009
 2607SOL    HW219476   7.040   7.461   6.995
 2608SOL     OW19477   4.387   3.840   2.167
 2608SOL    HW119478   4.462   3.872   2.108
 2608SOL    HW219479   4.313   3.907   2.166
 2609SOL     OW19480   9.764   1.058   4.010
 2609SOL    HW119481   9.669   1.074   3.983
 2609SOL    HW219482   9.779   0.960   4.023
 2610SOL     OW19483   3.414   3.170   4.567
 2610SOL    HW119484   3.497   3.115   4.557
 2610SOL    HW219485   3.422   3.228   4.648
 2611SOL     OW19486   3.562   2.107   7.245
 2611SOL    HW119487   3.519   2.031   7.197
 2611SOL    HW219488   3.643   2.074   7.294
 2612SOL     OW19489   4.132   6.949   3.885
 2612SOL    HW119490   4.090   6.995   3.964
 2612SOL    HW219491   4.094   6.986   3.801
 2613SOL     OW19492   5.960   4.365   1.892
 2613SOL    HW119493   5.927   4.350   1.985
 2613SOL    HW219494   6.055   4.397   1.896
 2614SOL     OW19495   8.490   4.501   2.984
 2614SOL    HW119496   8.473   4.590   2.944
 2614SOL    HW219497   8.461   4.429   2.921
 2615SOL     OW19498   1.632   6.895   2.819
 2615SOL    HW119499   1.584   6.840   2.888
 2615SOL    HW219500   1.598   6.989   2.822
 2616SOL     OW19501   2.515   5.656   1.246
 2616SOL    HW119502   2.478   5.634   1.336
 2616SOL    HW219503   2.443   5.647   1.177
 2617SOL     OW19504   2.614   6.775   5.029
 2617SOL    HW119505   2.670   6.798   4.949
 2617SOL    HW219506   2.670   6.725   5.095
 2618SOL     OW19507   9.462   2.689   0.852
 2618SOL    HW119508   9.526   2.723   0.921
 2618SOL    HW219509   9.465   2.747   0.771
 2619SOL     OW19510   5.965   0.747   6.416
 2619SOL    HW119511   5.915   0.829   6.444
 2619SOL    HW219512   6.063   0.762   6.424
 2620SOL     OW19513   9.354   9.364   3.521
 2620SOL    HW119514   9.264   9.320   3.526
 2620SOL    HW219515   9.406   9.327   3.445
 2621SOL     OW19516   8.603   4.883   1.202
 2621SOL    HW119517   8.574   4.847   1.291
 2621SOL    HW219518   8.577   4.980   1.197
 2622SOL     OW19519   6.903   8.063   2.843
 2622SOL    HW119520   6.897   7.965   2.863
 2622SOL    HW219521   6.998   8.092   2.849
 2623SOL     OW19522   5.847   6.214   1.014
 2623SOL    HW119523   5.811   6.262   1.094
 2623SOL    HW219524   5.858   6.117   1.035
 2624SOL     OW19525   4.620   6.576   4.180
 2624SOL    HW119526   4.599   6.509   4.109
 2624SOL    HW219527   4.581   6.545   4.267
 2625SOL     OW19528   7.108   0.231   6.178
 2625SOL    HW119529   7.132   0.261   6.086
 2625SOL    HW219530   7.078   0.135   6.175
 2626SOL     OW19531   2.864   4.737   7.754
 2626SOL    HW119532   2.786   4.682   7.783
 2626SOL    HW219533   2.949   4.691   7.780
 2627SOL     OW19534   7.435   6.771   5.649
 2627SOL    HW119535   7.375   6.711   5.596
 2627SOL    HW219536   7.391   6.860   5.660
 2628SOL     OW19537   4.787   7.983   4.033
 2628SOL    HW119538   4.779   7.934   4.119
 2628SOL    HW219539   4.756   7.924   3.958
 2629SOL     OW19540   3.422   9.556   6.240
 2629SOL    HW119541   3.365   9.557   6.323
 2629SOL    HW219542   3.377   9.501   6.170
 2630SOL     OW19543   1.815   8.483   3.380
 2630SOL    HW119544   1.842   8.575   3.355
 2630SOL    HW219545   1.805   8.427   3.297
 2631SOL     OW19546   5.229   8.280   1.931
 2631SOL    HW119547   5.154   8.221   1.960
 2631SOL    HW219548   5.286   8.304   2.010
 2632SOL     OW19549   7.472   3.628   1.923
 2632SOL    HW119550   7.523   3.585   1.849
 2632SOL    HW219551   7.375   3.629   1.901
 2633SOL     OW19552   7.320   7.096   3.520
 2633SOL    HW119553   7.259   7.017   3.525
 2633SOL    HW219554   7.391   7.079   3.451
 2634SOL     OW19555   1.565   5.826   6.605
 2634SOL    HW119556   1.652   5.864   6.575
 2634SOL    HW219557   1.575   5.728   6.621
 2635SOL     OW19558   9.069   5.068   6.201
 2635SOL    HW119559   9.005   5.032   6.133
 2635SOL    HW219560   9.051   5.026   6.289
 2636SOL     OW19561   9.430   7.297   7.574
 2636SOL    HW119562   9.505   7.234   7.588
 2636SOL    HW219563   9.348   7.246   7.546
 2637SOL     OW19564   6.842   5.446   1.065
 2637SOL    HW119565   6.901   5.431   1.144
 2637SOL    HW219566   6.872   5.527   1.016
 2638SOL     OW19567   0.957   0.559   7.152
 2638SOL    HW119568   0.985   0.558   7.249
 2638SOL    HW219569   0.963   0.652   7.117
 2639SOL     OW19570   3.774   8.721   2.113
 2639SOL    HW119571   3.847   8.789   2.100
 2639SOL    HW219572   3.742   8.725   2.207
 2640SOL     OW19573   0.212   5.866   3.215
 2640SOL    HW119574   0.147   5.941   3.230
 2640SOL    HW219575   0.270   5.888   3.137
 2641SOL     OW19576   4.258   3.157   0.521
 2641SOL    HW119577   4.339   3.103   0.501
 2641SOL    HW219578   4.184   3.132   0.459
 2642SOL     OW19579   4.145   0.845   7.123
 2642SOL    HW119580   4.205   0.903   7.179
 2642SOL    HW219581   4.187   0.831   7.033
 2643SOL     OW19582   2.038   5.460   7.888
 2643SOL    HW119583   2.041   5.503   7.978
 2643SOL    HW219584   1.970   5.506   7.831
 2644SOL     OW19585   8.975   9.674   1.228
 2644SOL    HW119586   9.057   9.678   1.171
 2644SOL    HW219587   8.897   9.645   1.171
 2645SOL     OW19588   3.716   5.287   6.859
 2645SOL    HW119589   3.721   5.244   6.949
 2645SOL    HW219590   3.622   5.280   6.823
 2646SOL     OW19591   9.417   0.819   4.565
 2646SOL    HW119592   9.336   0.783   4.520
 2646SOL    HW219593   9.425   0.917   4.547
 2647SOL     OW19594   9.810   3.708   4.436
 2647SOL    HW119595   9.738   3.762   4.393
 2647SOL    HW219596   9.898   3.754   4.427
 2648SOL     OW19597   5.197   9.795   3.356
 2648SOL    HW119598   5.145   9.825   3.277
 2648SOL    HW219599   5.161   9.838   3.439
 2649SOL     OW19600   8.674   0.335   4.254
 2649SOL    HW119601   8.593   0.377   4.294
 2649SOL    HW219602   8.649   0.252   4.205
 2650SOL     OW19603   7.042   9.907   5.742
 2650SOL    HW119604   7.114   9.857   5.790
 2650SOL    HW219605   6.990   9.844   5.684
 2651SOL     OW19606   9.154   4.391   5.629
 2651SOL    HW119607   9.218   4.408   5.704
 2651SOL    HW219608   9.131   4.477   5.584
 2652SOL     OW19609   8.783   6.088   7.198
 2652SOL    HW119610   8.798   6.187   7.192
 2652SOL    HW219611   8.741   6.066   7.286
 2653SOL     OW19612   3.088   4.595   7.829
 2653SOL    HW119613   3.154   4.620   7.901
 2653SOL    HW219614   3.137   4.551   7.754
 2654SOL     OW19615   8.311   1.785   3.495
 2654SOL    HW119616   8.279   1.763   3.403
 2654SOL    HW219617   8.263   1.867   3.529
 2655SOL     OW19618   1.517   1.546   5.381
 2655SOL    HW119619   1.482   1.454   5.362
 2655SOL    HW219620   1.614   1.540   5.405
 2656SOL     OW19621   6.301   9.409   1.600
 2656SOL    HW119622   6.351   9.465   1.534
 2656SOL    HW219623   6.256   9.468   1.667
 2657SOL     OW19624   3.261   1.918   3.255
 2657SOL    HW119625   3.352   1.928   3.215
 2657SOL    HW219626   3.265   1.941   3.352
 2658SOL     OW19627   1.729   8.125   5.274
 2658SOL    HW119628   1.768   8.064   5.205
 2658SOL    HW219629   1.781   8.210   5.276
 2659SOL     OW19630   3.397   5.959   2.616
 2659SOL    HW119631   3.348   5.909   2.688
 2659SOL    HW219632   3.405   5.900   2.535
 2660SOL     OW19633   9.200   3.064   5.962
 2660SOL    HW119634   9.135   3.141   5.964
 2660SOL    HW219635   9.151   2.979   5.979
 2661SOL     OW19636   9.318   4.182   4.376
 2661SOL    HW119637   9.398   4.126   4.398
 2661SOL    HW219638   9.323   4.212   4.281
 2662SOL     OW19639   1.846   0.613   5.395
 2662SOL    HW119640   1.812   0.704   5.373
 2662SOL    HW219641   1.860   0.560   5.311
 2663SOL     OW19642   4.669   9.997   7.837
 2663SOL    HW119643   4.712   0.078   7.798
 2663SOL    HW219644   4.659   0.009   7.936
 2664SOL     OW19645   8.729   5.259   1.386
 2664SOL    HW119646   8.721   5.352   1.350
 2664SOL    HW219647   8.810   5.216   1.347
 2665SOL     OW19648   4.170   0.124   6.441
 2665SOL    HW119649   4.159   0.040   6.387
 2665SOL    HW219650   4.092   0.185   6.425
 2666SOL     OW19651   7.768   1.926   5.793
 2666SOL    HW119652   7.852   1.882   5.824
 2666SOL    HW219653   7.757   2.014   5.840
 2667SOL     OW19654   9.197   9.214   0.625
 2667SOL    HW119655   9.296   9.217   0.640
 2667SOL    HW219656   9.177   9.157   0.546
 2668SOL     OW19657   5.496   7.572   3.235
 2668SOL    HW119658   5.447   7.657   3.222
 2668SOL    HW219659   5.510   7.527   3.146
 2669SOL     OW19660   8.642   4.259   4.118
 2669SOL    HW119661   8.687   4.294   4.036
 2669SOL    HW219662   8.612   4.166   4.102
 2670SOL     OW19663   4.554   9.298   2.591
 2670SOL    HW119664   4.535   9.392   2.621
 2670SOL    HW219665   4.494   9.274   2.515
 2671SOL     OW19666   0.470   5.983   1.360
 2671SOL    HW119667   0.433   6.037   1.285
 2671SOL    HW219668   0.549   5.931   1.328
 2672SOL     OW19669   4.531   1.099   0.354
 2672SOL    HW119670   4.593   1.132   0.283
 2672SOL    HW219671   4.580   1.039   0.417
 2673SOL     OW19672   8.579   5.355   0.469
 2673SOL    HW119673   8.574   5.453   0.489
 2673SOL    HW219674   8.604   5.342   0.373
 2674SOL     OW19675   0.421   5.561   4.013
 2674SOL    HW119676   0.505   5.524   3.974
 2674SOL    HW219677   0.389   5.501   4.087
 2675SOL     OW19678   2.191   9.254   2.184
 2675SOL    HW119679   2.116   9.194   2.158
 2675SOL    HW219680   2.257   9.259   2.108
 2676SOL     OW19681   3.581   9.997   7.237
 2676SOL    HW119682   3.629   9.919   7.278
 2676SOL    HW219683   3.518   0.036   7.304
 2677SOL     OW19684   7.624   8.600   7.149
 2677SOL    HW119685   7.634   8.666   7.224
 2677SOL    HW219686   7.534   8.557   7.154
 2678SOL     OW19687   4.855   0.473   0.596
 2678SOL    HW119688   4.916   0.551   0.613
 2678SOL    HW219689   4.815   0.483   0.505
 2679SOL     OW19690   6.601   0.941   4.467
 2679SOL    HW119691   6.676   0.875   4.459
 2679SOL    HW219692   6.518   0.902   4.427
 2680SOL     OW19693   7.356   9.618   1.503
 2680SOL    HW119694   7.365   9.645   1.407
 2680SOL    HW219695   7.273   9.660   1.541
 2681SOL     OW19696   3.945   2.767   7.849
 2681SOL    HW119697   3.921   2.672   7.870
 2681SOL    HW219698   3.986   2.772   7.758
 2682SOL     OW19699   2.126   5.135   6.493
 2682SOL    HW119700   2.165   5.099   6.407
 2682SOL    HW219701   2.191   5.198   6.534
 2683SOL     OW19702   3.993   4.111   7.840
 2683SOL    HW119703   3.944   4.193   7.868
 2683SOL    HW219704   3.944   4.030   7.871
 2684SOL     OW19705   2.832   0.855   0.758
 2684SOL    HW119706   2.758   0.860   0.691
 2684SOL    HW219707   2.898   0.928   0.741
 2685SOL     OW19708   2.377   7.030   5.772
 2685SOL    HW119709   2.455   6.968   5.766
 2685SOL    HW219710   2.349   7.057   5.680
 2686SOL     OW19711   1.142   2.432   3.426
 2686SOL    HW119712   1.232   2.446   3.467
 2686SOL    HW219713   1.144   2.349   3.370
 2687SOL     OW19714   3.188   9.908   3.236
 2687SOL    HW119715   3.244   9.899   3.154
 2687SOL    HW219716   3.099   9.866   3.221
 2688SOL     OW19717   5.673   1.550   5.640
 2688SOL    HW119718   5.740   1.482   5.608
 2688SOL    HW219719   5.620   1.511   5.715
 2689SOL     OW19720   7.372   5.930   5.484
 2689SOL    HW119721   7.356   6.027   5.468
 2689SOL    HW219722   7.348   5.908   5.579
 2690SOL     OW19723   1.811   6.114   2.103
 2690SOL    HW119724   1.883   6.183   2.113
 2690SOL    HW219725   1.737   6.132   2.167
 2691SOL     OW19726   5.003   7.236   2.021
 2691SOL    HW119727   4.969   7.259   1.930
 2691SOL    HW219728   5.060   7.310   2.055
 2692SOL     OW19729   0.681   0.550   0.796
 2692SOL    HW119730   0.681   0.556   0.697
 2692SOL    HW219731   0.714   0.460   0.824
 2693SOL     OW19732   9.624   1.681   3.550
 2693SOL    HW119733   9.695   1.722   3.606
 2693SOL    HW219734   9.592   1.748   3.483
 2694SOL     OW19735   2.347   9.220   2.653
 2694SOL    HW119736   2.309   9.193   2.564
 2694SOL    HW219737   2.278   9.271   2.704
 2695SOL     OW19738   0.598   2.623   5.970
 2695SOL    HW119739   0.606   2.523   5.968
 2695SOL    HW219740   0.571   2.657   5.880
 2696SOL     OW19741   8.273   0.370   5.650
 2696SOL    HW119742   8.232   0.420   5.574
 2696SOL    HW219743   8.305   0.281   5.617
 2697SOL     OW19744   1.070   9.106   5.663
 2697SOL    HW119745   1.112   9.105   5.754
 2697SOL    HW219746   1.040   9.013   5.639
 2698SOL     OW19747   0.736   9.585   4.515
 2698SOL    HW119748   0.722   9.677   4.478
 2698SOL    HW219749   0.807   9.538   4.462
 2699SOL     OW19750   7.945   9.399   2.417
 2699SOL    HW119751   7.934   9.367   2.323
 2699SOL    HW219752   8.041   9.421   2.434
 2700SOL     OW19753   9.136   3.157   7.922
 2700SOL    HW119754   9.037   3.167   7.920
 2700SOL    HW219755   9.167   3.151   8.017
 2701SOL     OW19756   0.061   9.493   4.430
 2701SOL    HW119757   0.125   9.561   4.467
 2701SOL    HW219758   9.994   9.468   4.500
 2702SOL     OW19759   7.132   1.419   7.841
 2702SOL    HW119760   7.143   1.400   7.743
 2702SOL    HW219761   7.207   1.479   7.871
 2703SOL     OW19762   2.877   9.346   3.225
 2703SOL    HW119763   2.877   9.424   3.288
 2703SOL    HW219764   2.838   9.375   3.138
 2704SOL     OW19765   9.458   3.612   3.916
 2704SOL    HW119766   9.537   3.557   3.941
 2704SOL    HW219767   9.435   3.594   3.820
 2705SOL     OW19768   4.078   8.989   3.323
 2705SOL    HW119769   4.153   8.932   3.355
 2705SOL    HW219770   3.997   8.932   3.307
 2706SOL     OW19771   2.032   1.206   7.296
 2706SOL    HW119772   2.107   1.263   7.261
 2706SOL    HW219773   2.057   1.110   7.288
 2707SOL     OW19774   4.352   5.032   1.207
 2707SOL    HW119775   4.429   5.008   1.148
 2707SOL    HW219776   4.384   5.092   1.280
 2708SOL     OW19777   4.350   5.453   4.495
 2708SOL    HW119778   4.437   5.410   4.471
 2708SOL    HW219779   4.340   5.455   4.594
 2709SOL     OW19780   4.358   3.816   7.132
 2709SOL    HW119781   4.434   3.760   7.167
 2709SOL    HW219782   4.395   3.896   7.084
 2710SOL     OW19783   5.616   9.844   3.390
 2710SOL    HW119784   5.590   9.894   3.308
 2710SOL    HW219785   5.567   9.881   3.469
 2711SOL     OW19786   8.220   5.496   7.438
 2711SOL    HW119787   8.221   5.490   7.338
 2711SOL    HW219788   8.278   5.572   7.467
 2712SOL     OW19789   8.633   7.633   3.028
 2712SOL    HW119790   8.637   7.670   3.121
 2712SOL    HW219791   8.583   7.547   3.028
 2713SOL     OW19792   0.779   1.079   6.725
 2713SOL    HW119793   0.749   1.156   6.668
 2713SOL    HW219794   0.702   1.045   6.778
 2714SOL     OW19795   5.360   2.499   7.859
 2714SOL    HW119796   5.435   2.439   7.832
 2714SOL    HW219797   5.356   2.578   7.797
 2715SOL     OW19798   8.955   7.320   3.981
 2715SOL    HW119799   9.007   7.257   3.923
 2715SOL    HW219800   8.998   7.324   4.071
 2716SOL     OW19801   1.715   9.657   4.023
 2716SOL    HW119802   1.799   9.605   4.006
 2716SOL    HW219803   1.636   9.604   3.994
 2717SOL     OW19804   1.244   0.423   4.968
 2717SOL    HW119805   1.162   0.368   4.951
 2717SOL    HW219806   1.306   0.416   4.889
 2718SOL     OW19807   2.473   8.850   5.776
 2718SOL    HW119808   2.531   8.860   5.695
 2718SOL    HW219809   2.478   8.933   5.831
 2719SOL     OW19810   6.038   9.352   4.456
 2719SOL    HW119811   6.110   9.400   4.406
 2719SOL    HW219812   6.050   9.368   4.554
 2720SOL     OW19813   0.639   4.963   2.739
 2720SOL    HW119814   0.697   5.040   2.711
 2720SOL    HW219815   0.690   4.904   2.801
 2721SOL     OW19816   6.808   0.763   4.445
 2721SOL    HW119817   6.776   0.683   4.395
 2721SOL    HW219818   6.895   0.794   4.406
 2722SOL     OW19819   7.545   1.642   4.580
 2722SOL    HW119820   7.480   1.683   4.644
 2722SOL    HW219821   7.540   1.542   4.587
 2723SOL     OW19822   5.378   9.853   6.776
 2723SOL    HW119823   5.291   9.828   6.819
 2723SOL    HW219824   5.435   9.901   6.843
 2724SOL     OW19825   5.472   1.023   7.476
 2724SOL    HW119826   5.514   0.959   7.413
 2724SOL    HW219827   5.391   0.982   7.517
 2725SOL     OW19828   4.503   9.690   6.264
 2725SOL    HW119829   4.602   9.692   6.273
 2725SOL    HW219830   4.461   9.722   6.349
 2726SOL     OW19831   7.962   1.054   1.360
 2726SOL    HW119832   7.960   1.108   1.276
 2726SOL    HW219833   8.038   0.990   1.356
 2727SOL     OW19834   3.144   2.483   2.102
 2727SOL    HW119835   3.102   2.570   2.076
 2727SOL    HW219836   3.088   2.439   2.173
 2728SOL     OW19837   1.333   2.398   7.525
 2728SOL    HW119838   1.295   2.308   7.502
 2728SOL    HW219839   1.418   2.412   7.474
 2729SOL     OW19840   8.062   0.619   2.884
 2729SOL    HW119841   8.111   0.699   2.850
 2729SOL    HW219842   7.966   0.625   2.859
 2730SOL     OW19843   7.899   8.599   6.189
 2730SOL    HW119844   7.946   8.528   6.137
 2730SOL    HW219845   7.966   8.668   6.219
 2731SOL     OW19846   1.216   3.707   7.207
 2731SOL    HW119847   1.274   3.628   7.227
 2731SOL    HW219848   1.271   3.778   7.163
 2732SOL     OW19849   3.400   2.481   6.358
 2732SOL    HW119850   3.481   2.526   6.396
 2732SOL    HW219851   3.357   2.425   6.428
 2733SOL     OW19852   4.467   9.167   4.898
 2733SOL    HW119853   4.530   9.092   4.916
 2733SOL    HW219854   4.390   9.134   4.843
 2734SOL     OW19855   2.605   5.048   3.959
 2734SOL    HW119856   2.569   5.061   3.867
 2734SOL    HW219857   2.703   5.070   3.960
 2735SOL     OW19858   0.469   7.796   0.046
 2735SOL    HW119859   0.567   7.813   0.048
 2735SOL    HW219860   0.421   7.881   0.026
 2736SOL     OW19861   0.023   6.459   7.726
 2736SOL    HW119862   0.089   6.384   7.738
 2736SOL    HW219863   0.072   6.543   7.704
 2737SOL     OW19864   2.772   0.766   3.117
 2737SOL    HW119865   2.736   0.801   3.203
 2737SOL    HW219866   2.819   0.840   3.068
 2738SOL     OW19867   9.816   5.397   1.505
 2738SOL    HW119868   9.803   5.417   1.408
 2738SOL    HW219869   9.766   5.314   1.529
 2739SOL     OW19870   6.007   9.822   4.651
 2739SOL    HW119871   5.926   9.790   4.700
 2739SOL    HW219872   5.988   9.821   4.553
 2740SOL     OW19873   3.333   9.375   1.028
 2740SOL    HW119874   3.354   9.402   1.122
 2740SOL    HW219875   3.372   9.442   0.964
 2741SOL     OW19876   2.910   8.100   4.273
 2741SOL    HW119877   2.839   8.030   4.270
 2741SOL    HW219878   2.877   8.183   4.229
 2742SOL     OW19879   1.322   5.320   6.630
 2742SOL    HW119880   1.348   5.365   6.544
 2742SOL    HW219881   1.223   5.307   6.632
 2743SOL     OW19882   2.202   5.871   0.657
 2743SOL    HW119883   2.141   5.896   0.733
 2743SOL    HW219884   2.149   5.825   0.586
 2744SOL     OW19885   2.267   3.284   1.775
 2744SOL    HW119886   2.227   3.216   1.713
 2744SOL    HW219887   2.205   3.299   1.852
 2745SOL     OW19888   0.355   5.207   2.420
 2745SOL    HW119889   0.362   5.214   2.519
 2745SOL    HW219890   0.438   5.165   2.384
 2746SOL     OW19891   8.277   9.854   0.992
 2746SOL    HW119892   8.288   9.908   1.075
 2746SOL    HW219893   8.362   9.853   0.940
 2747SOL     OW19894   3.474   5.739   6.648
 2747SOL    HW119895   3.472   5.658   6.590
 2747SOL    HW219896   3.396   5.737   6.712
 2748SOL     OW19897   1.221   5.480   3.889
 2748SOL    HW119898   1.312   5.441   3.872
 2748SOL    HW219899   1.153   5.407   3.889
 2749SOL     OW19900   4.380   0.544   4.019
 2749SOL    HW119901   4.322   0.470   4.054
 2749SOL    HW219902   4.330   0.630   4.024
 2750SOL     OW19903   9.871   6.331   6.874
 2750SOL    HW119904   9.787   6.377   6.846
 2750SOL    HW219905   9.950   6.387   6.852
 2751SOL     OW19906   4.005   8.831   1.055
 2751SOL    HW119907   4.074   8.896   1.024
 2751SOL    HW219908   3.966   8.864   1.141
 2752SOL     OW19909   4.008   3.562   6.105
 2752SOL    HW119910   4.105   3.565   6.128
 2752SOL    HW219911   3.996   3.589   6.009
 2753SOL     OW19912   3.640   2.090   6.425
 2753SOL    HW119913   3.636   2.076   6.524
 2753SOL    HW219914   3.564   2.043   6.381
 2754SOL     OW19915   9.495   0.768   2.901
 2754SOL    HW119916   9.558   0.835   2.862
 2754SOL    HW219917   9.401   0.803   2.896
 2755SOL     OW19918   3.376   1.038   7.481
 2755SOL    HW119919   3.374   1.055   7.579
 2755SOL    HW219920   3.470   1.049   7.447
 2756SOL     OW19921   3.218   4.228   0.593
 2756SOL    HW119922   3.125   4.261   0.611
 2756SOL    HW219923   3.223   4.191   0.501
 2757SOL     OW19924   0.246   9.398   3.521
 2757SOL    HW119925   0.178   9.463   3.557
 2757SOL    HW219926   0.323   9.393   3.583
 2758SOL     OW19927   2.012   9.673   7.874
 2758SOL    HW119928   2.005   9.687   7.973
 2758SOL    HW219929   2.077   9.738   7.836
 2759SOL     OW19930   0.357   9.930   7.299
 2759SOL    HW119931   0.438   9.939   7.358
 2759SOL    HW219932   0.386   9.901   7.208
 2760SOL     OW19933   0.357   2.871   5.716
 2760SOL    HW119934   0.445   2.824   5.705
 2760SOL    HW219935   0.373   2.970   5.718
 2761SOL     OW19936   3.687   3.077   2.537
 2761SOL    HW119937   3.778   3.118   2.525
 2761SOL    HW219938   3.633   3.091   2.455
 2762SOL     OW19939   9.869   2.576   7.023
 2762SOL    HW119940   9.819   2.646   6.971
 2762SOL    HW219941   9.827   2.564   7.112
 2763SOL     OW19942   6.263   7.443   4.213
 2763SOL    HW119943   6.301   7.474   4.126
 2763SOL    HW219944   6.244   7.523   4.271
 2764SOL     OW19945   6.812   8.514   5.567
 2764SOL    HW119946   6.743   8.585   5.578
 2764SOL    HW219947   6.779   8.428   5.607
 2765SOL     OW19948   6.105   9.962   6.823
 2765SOL    HW119949   6.025   9.954   6.763
 2765SOL    HW219950   6.179   0.008   6.775
 2766SOL     OW19951   1.502   6.571   3.201
 2766SOL    HW119952   1.477   6.475   3.189
 2766SOL    HW219953   1.510   6.592   3.298
 2767SOL     OW19954   0.644   3.763   7.503
 2767SOL    HW119955   0.619   3.822   7.580
 2767SOL    HW219956   0.634   3.667   7.529
 2768SOL     OW19957   0.226   6.534   3.535
 2768SOL    HW119958   0.257   6.518   3.441
 2768SOL    HW219959   0.304   6.557   3.593
 2769SOL     OW19960   7.682   9.691   3.364
 2769SOL    HW119961   7.699   9.769   3.303
 2769SOL    HW219962   7.614   9.631   3.322
 2770SOL     OW19963   2.447   2.196   4.269
 2770SOL    HW119964   2.419   2.159   4.180
 2770SOL    HW219965   2.488   2.286   4.257
 2771SOL     OW19966   9.495   7.769   2.993
 2771SOL    HW119967   9.505   7.792   2.896
 2771SOL    HW219968   9.585   7.742   3.030
 2772SOL     OW19969   3.557   5.496   4.380
 2772SOL    HW119970   3.519   5.428   4.442
 2772SOL    HW219971   3.604   5.567   4.433
 2773SOL     OW19972   8.136   2.611   2.415
 2773SOL    HW119973   8.135   2.546   2.340
 2773SOL    HW219974   8.221   2.602   2.467
 2774SOL     OW19975   7.351   9.553   5.574
 2774SOL    HW119976   7.398   9.628   5.619
 2774SOL    HW219977   7.276   9.588   5.519
 2775SOL     OW19978   4.265   5.291   1.631
 2775SOL    HW119979   4.363   5.275   1.636
 2775SOL    HW219980   4.221   5.216   1.581
 2776SOL     OW19981   0.061   3.802   6.209
 2776SOL    HW119982   0.134   3.751   6.254
 2776SOL    HW219983   0.091   3.829   6.117
 2777SOL     OW19984   0.725   8.874   2.968
 2777SOL    HW119985   0.643   8.817   2.962
 2777SOL    HW219986   0.768   8.880   2.878
 2778SOL     OW19987   2.767   0.926   0.306
 2778SOL    HW119988   2.681   0.901   0.262
 2778SOL    HW219989   2.844   0.886   0.256
 2779SOL     OW19990   7.160   7.995   2.040
 2779SOL    HW119991   7.250   7.992   1.996
 2779SOL    HW219992   7.112   7.910   2.023
 2780SOL     OW19993   9.639   4.170   0.773
 2780SOL    HW119994   9.725   4.213   0.745
 2780SOL    HW219995   9.628   4.178   0.872
 2781SOL     OW19996   4.639   2.821   7.874
 2781SOL    HW119997   4.549   2.858   7.897
 2781SOL    HW219998   4.630   2.757   7.797
 2782SOL     OW19999   3.642   6.057   6.150
 2782SOL    HW120000   3.590   5.973   6.169
 2782SOL    HW220001   3.639   6.117   6.230
 2783SOL     OW20002   3.417   9.728   1.255
 2783SOL    HW120003   3.319   9.744   1.267
 2783SOL    HW220004   3.449   9.773   1.172
 2784SOL     OW20005   4.315   9.113   6.811
 2784SOL    HW120006   4.388   9.152   6.755
 2784SOL    HW220007   4.352   9.085   6.899
 2785SOL     OW20008   1.905   7.025   0.099
 2785SOL    HW120009   1.867   7.112   0.067
 2785SOL    HW220010   2.005   7.033   0.106
 2786SOL     OW20011   0.372   9.489   1.654
 2786SOL    HW120012   0.282   9.520   1.686
 2786SOL    HW220013   0.360   9.422   1.580
 2787SOL     OW20014   2.321   8.236   1.219
 2787SOL    HW120015   2.350   8.331   1.209
 2787SOL    HW220016   2.276   8.206   1.134
 2788SOL     OW20017   1.243   2.430   0.648
 2788SOL    HW120018   1.153   2.473   0.655
 2788SOL    HW220019   1.281   2.418   0.740
 2789SOL     OW20020   6.770   3.841   2.298
 2789SOL    HW120021   6.707   3.862   2.224
 2789SOL    HW220022   6.805   3.748   2.288
 2790SOL     OW20023   4.316   3.858   1.146
 2790SOL    HW120024   4.348   3.896   1.060
 2790SOL    HW220025   4.218   3.879   1.157
 2791SOL     OW20026   9.335   1.109   3.168
 2791SOL    HW120027   9.419   1.097   3.115
 2791SOL    HW220028   9.349   1.180   3.238
 2792SOL     OW20029   1.446   2.693   0.734
 2792SOL    HW120030   1.498   2.609   0.749
 2792SOL    HW220031   1.489   2.768   0.784
 2793SOL     OW20032   4.154   2.341   3.950
 2793SOL    HW120033   4.086   2.303   3.887
 2793SOL    HW220034   4.215   2.268   3.982
 2794SOL     OW20035   2.395   8.416   2.444
 2794SOL    HW120036   2.321   8.434   2.509
 2794SOL    HW220037   2.406   8.317   2.434
 2795SOL     OW20038   2.006   4.296   1.051
 2795SOL    HW120039   1.925   4.296   1.110
 2795SOL    HW220040   2.084   4.260   1.102
 2796SOL     OW20041   7.096   6.347   6.239
 2796SOL    HW120042   7.095   6.441   6.205
 2796SOL    HW220043   7.163   6.338   6.312
 2797SOL     OW20044   9.274   2.736   7.541
 2797SOL    HW120045   9.237   2.683   7.464
 2797SOL    HW220046   9.255   2.687   7.626
 2798SOL     OW20047   8.831   8.289   3.213
 2798SOL    HW120048   8.851   8.245   3.125
 2798SOL    HW220049   8.858   8.385   3.209
 2799SOL     OW20050   4.622   9.322   1.399
 2799SOL    HW120051   4.556   9.341   1.471
 2799SOL    HW220052   4.581   9.259   1.332
 2800SOL     OW20053   9.042   3.766   0.091
 2800SOL    HW120054   8.973   3.830   0.058
 2800SOL    HW220055   9.125   3.775   0.037
 2801SOL     OW20056   3.258   0.813   3.742
 2801SOL    HW120057   3.270   0.869   3.660
 2801SOL    HW220058   3.335   0.750   3.750
 2802SOL     OW20059   0.509   8.975   4.214
 2802SOL    HW120060   0.573   9.051   4.220
 2802SOL    HW220061   0.461   8.979   4.126
 2803SOL     OW20062   1.362   7.742   6.212
 2803SOL    HW120063   1.331   7.695   6.294
 2803SOL    HW220064   1.449   7.702   6.181
 2804SOL     OW20065   3.582   6.477   6.404
 2804SOL    HW120066   3.594   6.475   6.503
 2804SOL    HW220067   3.584   6.383   6.369
 2805SOL     OW20068   8.764   1.394   6.508
 2805SOL    HW120069   8.733   1.383   6.414
 2805SOL    HW220070   8.807   1.484   6.518
 2806SOL     OW20071   2.938   6.231   4.373
 2806SOL    HW120072   2.877   6.228   4.294
 2806SOL    HW220073   3.033   6.239   4.342
 2807SOL     OW20074   8.282   8.867   3.754
 2807SOL    HW120075   8.265   8.944   3.816
 2807SOL    HW220076   8.337   8.798   3.800
 2808SOL     OW20077   2.610   1.232   0.056
 2808SOL    HW120078   2.663   1.164   0.105
 2808SOL    HW220079   2.611   1.211  10.040
 2809SOL     OW20080   0.084   9.989   1.018
 2809SOL    HW120081   0.147   9.982   1.095
 2809SOL    HW220082   0.030   0.073   1.027
 2810SOL     OW20083   1.399   0.755   5.019
 2810SOL    HW120084   1.303   0.731   5.034
 2810SOL    HW220085   1.449   0.752   5.106
 2811SOL     OW20086   9.544   6.340   1.369
 2811SOL    HW120087   9.471   6.371   1.430
 2811SOL    HW220088   9.630   6.384   1.395
 2812SOL     OW20089   0.063   6.767   6.460
 2812SOL    HW120090   0.126   6.720   6.398
 2812SOL    HW220091   9.985   6.801   6.408
 2813SOL     OW20092   8.553   3.610   0.458
 2813SOL    HW120093   8.514   3.518   0.457
 2813SOL    HW220094   8.595   3.629   0.369
 2814SOL     OW20095   8.144   1.367   0.687
 2814SOL    HW120096   8.178   1.453   0.649
 2814SOL    HW220097   8.197   1.344   0.769
 2815SOL     OW20098   4.655   9.672   1.911
 2815SOL    HW120099   4.571   9.662   1.859
 2815SOL    HW220100   4.731   9.689   1.848
 2816SOL     OW20101   2.273   7.502   1.656
 2816SOL    HW120102   2.210   7.430   1.687
 2816SOL    HW220103   2.341   7.520   1.727
 2817SOL     OW20104   6.468   7.421   5.817
 2817SOL    HW120105   6.510   7.507   5.845
 2817SOL    HW220106   6.512   7.387   5.734
 2818SOL     OW20107   1.251   0.736   1.351
 2818SOL    HW120108   1.310   0.706   1.426
 2818SOL    HW220109   1.174   0.673   1.343
 2819SOL     OW20110   0.127   7.582   4.624
 2819SOL    HW120111   0.192   7.601   4.697
 2819SOL    HW220112   0.045   7.540   4.662
 2820SOL     OW20113   6.886   8.273   3.859
 2820SOL    HW120114   6.919   8.347   3.801
 2820SOL    HW220115   6.900   8.298   3.955
 2821SOL     OW20116   6.052   7.526   5.349
 2821SOL    HW120117   6.035   7.499   5.254
 2821SOL    HW220118   5.964   7.537   5.396
 2822SOL     OW20119   1.955   8.316   0.774
 2822SOL    HW120120   1.932   8.237   0.830
 2822SOL    HW220121   2.054   8.329   0.776
 2823SOL     OW20122   8.915   7.082   5.992
 2823SOL    HW120123   8.846   7.085   6.065
 2823SOL    HW220124   8.881   7.131   5.912
 2824SOL     OW20125   0.861   9.227   7.489
 2824SOL    HW120126   0.769   9.209   7.524
 2824SOL    HW220127   0.878   9.326   7.488
 2825SOL     OW20128   3.264   9.109   4.489
 2825SOL    HW120129   3.324   9.036   4.457
 2825SOL    HW220130   3.306   9.198   4.471
 2826SOL     OW20131   5.796   0.993   5.473
 2826SOL    HW120132   5.895   1.001   5.469
 2826SOL    HW220133   5.761   1.058   5.541
 2827SOL     OW20134   9.738   6.039   4.661
 2827SOL    HW120135   9.776   5.981   4.733
 2827SOL    HW220136   9.708   6.126   4.700
 2828SOL     OW20137   5.292   2.343   0.830
 2828SOL    HW120138   5.340   2.389   0.905
 2828SOL    HW220139   5.211   2.296   0.866
 2829SOL     OW20140   4.940   9.899   7.442
 2829SOL    HW120141   5.039   9.889   7.444
 2829SOL    HW220142   4.897   9.819   7.484
 2830SOL     OW20143   1.826   2.957   6.295
 2830SOL    HW120144   1.787   2.880   6.345
 2830SOL    HW220145   1.780   3.041   6.323
 2831SOL     OW20146   7.154   7.687   6.141
 2831SOL    HW120147   7.089   7.699   6.217
 2831SOL    HW220148   7.145   7.594   6.106
 2832SOL     OW20149   0.498   9.576   5.216
 2832SOL    HW120150   0.530   9.619   5.132
 2832SOL    HW220151   0.534   9.626   5.295
 2833SOL     OW20152   6.714   2.774   0.693
 2833SOL    HW120153   6.743   2.842   0.625
 2833SOL    HW220154   6.732   2.809   0.785
 2834SOL     OW20155   2.845   3.225   5.374
 2834SOL    HW120156   2.867   3.140   5.326
 2834SOL    HW220157   2.761   3.264   5.337
 2835SOL     OW20158   9.784   2.058   0.452
 2835SOL    HW120159   9.737   1.971   0.436
 2835SOL    HW220160   9.727   2.133   0.419
 2836SOL     OW20161   6.431   0.763   4.833
 2836SOL    HW120162   6.497   0.835   4.852
 2836SOL    HW220163   6.351   0.802   4.787
 2837SOL     OW20164   8.543   1.226   3.726
 2837SOL    HW120165   8.499   1.200   3.812
 2837SOL    HW220166   8.619   1.288   3.746
 2838SOL     OW20167   4.642   0.626   2.402
 2838SOL    HW120168   4.624   0.660   2.310
 2838SOL    HW220169   4.560   0.636   2.458
 2839SOL     OW20170   2.497   1.723   1.990
 2839SOL    HW120171   2.558   1.732   2.069
 2839SOL    HW220172   2.450   1.810   1.974
 2840SOL     OW20173   3.513   7.229   0.537
 2840SOL    HW120174   3.449   7.209   0.464
 2840SOL    HW220175   3.472   7.206   0.625
 2841SOL     OW20176   9.501   6.606   0.368
 2841SOL    HW120177   9.518   6.568   0.459
 2841SOL    HW220178   9.474   6.702   0.377
 2842SOL     OW20179   9.017   3.922   0.481
 2842SOL    HW120180   9.072   4.003   0.458
 2842SOL    HW220181   8.920   3.942   0.466
 2843SOL     OW20182   0.512   9.758   2.860
 2843SOL    HW120183   0.566   9.799   2.786
 2843SOL    HW220184   0.541   9.663   2.874
 2844SOL     OW20185   8.995   5.338   4.697
 2844SOL    HW120186   9.007   5.322   4.599
 2844SOL    HW220187   8.908   5.385   4.713
 2845SOL     OW20188   4.494   1.393   6.139
 2845SOL    HW120189   4.506   1.471   6.078
 2845SOL    HW220190   4.410   1.406   6.193
 2846SOL     OW20191   7.837   6.677   6.108
 2846SOL    HW120192   7.834   6.628   6.195
 2846SOL    HW220193   7.781   6.759   6.114
 2847SOL     OW20194   8.718   8.101   2.122
 2847SOL    HW120195   8.739   8.019   2.069
 2847SOL    HW220196   8.674   8.169   2.062
 2848SOL     OW20197   0.741   5.653   4.081
 2848SOL    HW120198   0.841   5.648   4.078
 2848SOL    HW220199   0.703   5.591   4.012
 2849SOL     OW20200   3.456   5.523   6.492
 2849SOL    HW120201   3.476   5.426   6.506
 2849SOL    HW220202   3.392   5.533   6.415
 2850SOL     OW20203   8.759   9.941   0.519
 2850SOL    HW120204   8.793   9.983   0.435
 2850SOL    HW220205   8.663   9.964   0.531
 2851SOL     OW20206   2.158   8.800   0.362
 2851SOL    HW120207   2.109   8.755   0.437
 2851SOL    HW220208   2.150   8.900   0.372
 2852SOL     OW20209   0.430   6.778   5.591
 2852SOL    HW120210   0.384   6.806   5.675
 2852SOL    HW220211   0.362   6.752   5.523
 2853SOL     OW20212   6.995   9.958   1.174
 2853SOL    HW120213   7.094   9.953   1.160
 2853SOL    HW220214   6.964   0.052   1.161
 2854SOL     OW20215   1.710   7.461   3.957
 2854SOL    HW120216   1.744   7.488   3.867
 2854SOL    HW220217   1.784   7.462   4.024
 2855SOL     OW20218   7.239   3.044   3.987
 2855SOL    HW120219   7.162   3.108   3.990
 2855SOL    HW220220   7.273   3.037   3.893
 2856SOL     OW20221   3.462   1.608   7.402
 2856SOL    HW120222   3.406   1.554   7.465
 2856SOL    HW220223   3.494   1.691   7.447
 2857SOL     OW20224   4.268   6.919   0.204
 2857SOL    HW120225   4.326   6.848   0.165
 2857SOL    HW220226   4.298   6.941   0.296
 2858SOL     OW20227   3.097   9.846   7.219
 2858SOL    HW120228   3.171   9.883   7.162
 2858SOL    HW220229   3.137   9.790   7.292
 2859SOL     OW20230   2.114   8.067   7.196
 2859SOL    HW120231   2.038   8.005   7.180
 2859SOL    HW220232   2.092   8.157   7.157
 2860SOL     OW20233   5.155   0.781   6.247
 2860SOL    HW120234   5.093   0.801   6.323
 2860SOL    HW220235   5.201   0.866   6.219
 2861SOL     OW20236   9.850   4.207   6.786
 2861SOL    HW120237   9.889   4.221   6.877
 2861SOL    HW220238   9.883   4.120   6.748
 2862SOL     OW20239   6.111   5.963   0.645
 2862SOL    HW120240   6.048   6.040   0.634
 2862SOL    HW220241   6.175   5.962   0.569
 2863SOL     OW20242   3.578   5.309   4.173
 2863SOL    HW120243   3.667   5.317   4.128
 2863SOL    HW220244   3.572   5.374   4.249
 2864SOL     OW20245   6.821   9.012   3.965
 2864SOL    HW120246   6.883   8.987   4.040
 2864SOL    HW220247   6.737   9.050   4.003
 2865SOL     OW20248   4.060   4.445   7.007
 2865SOL    HW120249   4.025   4.368   7.059
 2865SOL    HW220250   4.104   4.412   6.923
 2866SOL     OW20251   2.908   4.666   5.303
 2866SOL    HW120252   2.877   4.694   5.394
 2866SOL    HW220253   3.005   4.684   5.294
 2867SOL     OW20254   0.591   1.132   3.785
 2867SOL    HW120255   0.589   1.032   3.788
 2867SOL    HW220256   0.651   1.166   3.857
 2868SOL     OW20257   4.125   8.283   5.481
 2868SOL    HW120258   4.029   8.256   5.473
 2868SOL    HW220259   4.181   8.225   5.422
 2869SOL     OW20260   8.616   3.411   4.838
 2869SOL    HW120261   8.533   3.421   4.892
 2869SOL    HW220262   8.642   3.500   4.801
 2870SOL     OW20263   7.321   8.832   5.524
 2870SOL    HW120264   7.325   8.840   5.624
 2870SOL    HW220265   7.243   8.883   5.489
 2871SOL     OW20266   2.736   5.437   7.176
 2871SOL    HW120267   2.824   5.434   7.223
 2871SOL    HW220268   2.663   5.449   7.243
 2872SOL     OW20269   6.612   1.666   1.878
 2872SOL    HW120270   6.543   1.663   1.950
 2872SOL    HW220271   6.567   1.668   1.789
 2873SOL     OW20272   8.039   0.866   3.226
 2873SOL    HW120273   7.953   0.846   3.179
 2873SOL    HW220274   8.022   0.933   3.298
 2874SOL     OW20275   3.858   9.369   6.687
 2874SOL    HW120276   3.936   9.306   6.692
 2874SOL    HW220277   3.773   9.317   6.690
 2875SOL     OW20278   1.177   5.010   3.891
 2875SOL    HW120279   1.267   4.976   3.866
 2875SOL    HW220280   1.163   5.001   3.989
 2876SOL     OW20281   0.126   0.942   1.417
 2876SOL    HW120282   0.064   1.015   1.390
 2876SOL    HW220283   0.098   0.857   1.372
 2877SOL     OW20284   6.373   4.939   2.637
 2877SOL    HW120285   6.406   4.849   2.666
 2877SOL    HW220286   6.450   5.000   2.622
 2878SOL     OW20287   3.108   0.612   6.564
 2878SOL    HW120288   3.024   0.665   6.549
 2878SOL    HW220289   3.093   0.518   6.532
 2879SOL     OW20290   2.189   7.471   4.728
 2879SOL    HW120291   2.167   7.374   4.710
 2879SOL    HW220292   2.259   7.501   4.663
 2880SOL     OW20293   1.389   8.626   1.220
 2880SOL    HW120294   1.389   8.612   1.121
 2880SOL    HW220295   1.484   8.631   1.253
 2881SOL     OW20296   9.980   8.640   5.039
 2881SOL    HW120297   0.037   8.558   5.046
 2881SOL    HW220298   9.901   8.620   4.981
 2882SOL     OW20299   3.768   8.482   0.543
 2882SOL    HW120300   3.740   8.496   0.448
 2882SOL    HW220301   3.866   8.464   0.546
 2883SOL     OW20302   4.474   2.997   0.439
 2883SOL    HW120303   4.481   2.911   0.488
 2883SOL    HW220304   4.563   3.024   0.404
 2884SOL     OW20305   1.899   1.666   7.205
 2884SOL    HW120306   1.999   1.673   7.214
 2884SOL    HW220307   1.871   1.707   7.119
 2885SOL     OW20308   8.733   0.994   7.326
 2885SOL    HW120309   8.660   0.926   7.338
 2885SOL    HW220310   8.774   1.015   7.415
 2886SOL     OW20311   9.615   0.794   5.341
 2886SOL    HW120312   9.640   0.852   5.263
 2886SOL    HW220313   9.697   0.755   5.381
 2887SOL     OW20314   8.870   3.549   1.252
 2887SOL    HW120315   8.778   3.513   1.263
 2887SOL    HW220316   8.904   3.584   1.339
 2888SOL     OW20317   5.199   2.014   6.115
 2888SOL    HW120318   5.243   2.104   6.109
 2888SOL    HW220319   5.212   1.966   6.028
 2889SOL     OW20320   8.089   6.368   7.466
 2889SOL    HW120321   8.031   6.449   7.461
 2889SOL    HW220322   8.117   6.353   7.560
 2890SOL     OW20323   9.719   3.167   2.617
 2890SOL    HW120324   9.703   3.069   2.614
 2890SOL    HW220325   9.815   3.185   2.639
 2891SOL     OW20326   8.234   6.708   1.244
 2891SOL    HW120327   8.267   6.668   1.158
 2891SOL    HW220328   8.299   6.689   1.317
 2892SOL     OW20329   0.825   6.971   7.360
 2892SOL    HW120330   0.728   6.950   7.345
 2892SOL    HW220331   0.872   6.888   7.392
 2893SOL     OW20332   4.255   1.469   6.261
 2893SOL    HW120333   4.251   1.499   6.356
 2893SOL    HW220334   4.166   1.435   6.233
 2894SOL     OW20335   3.957   0.158   4.223
 2894SOL    HW120336   4.045   0.115   4.199
 2894SOL    HW220337   3.894   0.147   4.146
 2895SOL     OW20338   1.825   4.928   2.254
 2895SOL    HW120339   1.820   4.882   2.343
 2895SOL    HW220340   1.752   4.996   2.247
 2896SOL     OW20341   2.126   4.770   2.341
 2896SOL    HW120342   2.179   4.688   2.318
 2896SOL    HW220343   2.033   4.743   2.366
 2897SOL     OW20344   6.131   2.953   0.764
 2897SOL    HW120345   6.092   3.008   0.838
 2897SOL    HW220346   6.140   3.009   0.682
 2898SOL     OW20347   4.261   9.205   3.699
 2898SOL    HW120348   4.173   9.221   3.744
 2898SOL    HW220349   4.328   9.270   3.731
 2899SOL     OW20350   8.673   2.683   1.389
 2899SOL    HW120351   8.630   2.753   1.445
 2899SOL    HW220352   8.604   2.634   1.336
 2900SOL     OW20353   1.001   5.609   4.311
 2900SOL    HW120354   1.012   5.624   4.213
 2900SOL    HW220355   0.982   5.696   4.356
 2901SOL     OW20356   7.825   0.691   0.377
 2901SOL    HW120357   7.876   0.746   0.443
 2901SOL    HW220358   7.769   0.624   0.425
 2902SOL     OW20359   3.046   1.404   4.339
 2902SOL    HW120360   3.042   1.503   4.355
 2902SOL    HW220361   2.953   1.368   4.330
 2903SOL     OW20362   7.928   1.288   0.544
 2903SOL    HW120363   7.963   1.252   0.458
 2903SOL    HW220364   8.003   1.325   0.598
 2904SOL     OW20365   2.926   0.448   1.213
 2904SOL    HW120366   2.958   0.533   1.171
 2904SOL    HW220367   2.962   0.441   1.306
 2905SOL     OW20368   7.197   0.503   2.610
 2905SOL    HW120369   7.285   0.519   2.566
 2905SOL    HW220370   7.211   0.481   2.707
 2906SOL     OW20371   4.085   6.977   2.039
 2906SOL    HW120372   4.013   6.942   1.979
 2906SOL    HW220373   4.137   7.047   1.991
 2907SOL     OW20374   9.150   9.389   5.847
 2907SOL    HW120375   9.146   9.298   5.804
 2907SOL    HW220376   9.155   9.378   5.946
 2908SOL     OW20377   3.261   9.675   4.311
 2908SOL    HW120378   3.218   9.589   4.284
 2908SOL    HW220379   3.301   9.665   4.402
 2909SOL     OW20380   3.351   9.574   2.926
 2909SOL    HW120381   3.335   9.494   2.984
 2909SOL    HW220382   3.279   9.579   2.857
 2910SOL     OW20383   8.456   6.841   5.188
 2910SOL    HW120384   8.480   6.841   5.285
 2910SOL    HW220385   8.358   6.827   5.178
 2911SOL     OW20386   0.059   5.254   1.870
 2911SOL    HW120387   0.096   5.347   1.862
 2911SOL    HW220388   0.129   5.188   1.843
 2912SOL     OW20389   0.329   0.590   5.164
 2912SOL    HW120390   0.285   0.524   5.225
 2912SOL    HW220391   0.266   0.614   5.091
 2913SOL     OW20392   9.776   7.335   3.254
 2913SOL    HW120393   9.776   7.270   3.178
 2913SOL    HW220394   9.690   7.387   3.254
 2914SOL     OW20395   8.046   7.135   0.891
 2914SOL    HW120396   8.012   7.131   0.985
 2914SOL    HW220397   8.146   7.142   0.892
 2915SOL     OW20398   6.802   2.571   5.293
 2915SOL    HW120399   6.721   2.520   5.322
 2915SOL    HW220400   6.778   2.631   5.217
 2916SOL     OW20401   8.281   8.137   3.741
 2916SOL    HW120402   8.342   8.125   3.662
 2916SOL    HW220403   8.186   8.122   3.712
 2917SOL     OW20404   3.680   3.598   2.048
 2917SOL    HW120405   3.737   3.519   2.029
 2917SOL    HW220406   3.697   3.630   2.141
 2918SOL     OW20407   3.673   7.618   5.763
 2918SOL    HW120408   3.710   7.531   5.793
 2918SOL    HW220409   3.653   7.675   5.843
 2919SOL     OW20410   4.050   3.089   0.361
 2919SOL    HW120411   4.023   3.077   0.265
 2919SOL    HW220412   3.968   3.101   0.417
 2920SOL     OW20413   9.578   6.319   2.323
 2920SOL    HW120414   9.600   6.224   2.343
 2920SOL    HW220415   9.663   6.372   2.317
 2921SOL     OW20416   9.747   6.281   2.717
 2921SOL    HW120417   9.728   6.191   2.677
 2921SOL    HW220418   9.668   6.341   2.703
 2922SOL     OW20419   2.239   5.731   2.435
 2922SOL    HW120420   2.297   5.766   2.508
 2922SOL    HW220421   2.193   5.647   2.466
 2923SOL     OW20422   8.604   7.804   1.124
 2923SOL    HW120423   8.581   7.897   1.098
 2923SOL    HW220424   8.522   7.746   1.117
 2924SOL     OW20425   1.351   2.600   3.766
 2924SOL    HW120426   1.286   2.663   3.809
 2924SOL    HW220427   1.436   2.599   3.818
 2925SOL     OW20428   9.737   9.681   6.253
 2925SOL    HW120429   9.654   9.659   6.305
 2925SOL    HW220430   9.771   9.598   6.207
 2926SOL     OW20431   9.664   7.895   5.295
 2926SOL    HW120432   9.603   7.816   5.291
 2926SOL    HW220433   9.747   7.870   5.346
 2927SOL     OW20434   4.033   8.263   3.332
 2927SOL    HW120435   4.052   8.251   3.235
 2927SOL    HW220436   3.947   8.218   3.356
 2928SOL     OW20437   2.283   8.025   6.973
 2928SOL    HW120438   2.242   8.037   7.063
 2928SOL    HW220439   2.377   7.991   6.984
 2929SOL     OW20440   4.017   1.574   7.524
 2929SOL    HW120441   4.028   1.477   7.503
 2929SOL    HW220442   4.054   1.628   7.448
 2930SOL     OW20443   7.470   5.886   6.252
 2930SOL    HW120444   7.397   5.932   6.304
 2930SOL    HW220445   7.513   5.817   6.310
 2931SOL     OW20446   3.594   4.322   4.592
 2931SOL    HW120447   3.673   4.293   4.647
 2931SOL    HW220448   3.553   4.242   4.548
 2932SOL     OW20449   0.919   5.995   7.302
 2932SOL    HW120450   0.960   6.086   7.306
 2932SOL    HW220451   0.926   5.960   7.208
 2933SOL     OW20452   4.017   7.416   4.210
 2933SOL    HW120453   4.096   7.361   4.185
 2933SOL    HW220454   3.991   7.398   4.305
 2934SOL     OW20455   6.486   0.502   4.163
 2934SOL    HW120456   6.398   0.514   4.210
 2934SOL    HW220457   6.500   0.579   4.100
 2935SOL     OW20458   0.960   4.090   3.001
 2935SOL    HW120459   1.014   4.037   3.067
 2935SOL    HW220460   0.922   4.171   3.046
 2936SOL     OW20461   2.318   8.357   4.816
 2936SOL    HW120462   2.412   8.379   4.840
 2936SOL    HW220463   2.317   8.277   4.756
 2937SOL     OW20464   9.026   2.406   7.505
 2937SOL    HW120465   9.118   2.378   7.533
 2937SOL    HW220466   8.959   2.371   7.570
 2938SOL     OW20467   0.052   1.587   2.549
 2938SOL    HW120468   0.065   1.684   2.527
 2938SOL    HW220469   9.989   1.579   2.626
 2939SOL     OW20470   6.894   0.343   3.714
 2939SOL    HW120471   6.890   0.441   3.730
 2939SOL    HW220472   6.903   0.325   3.616
 2940SOL     OW20473   1.432   0.178   3.508
 2940SOL    HW120474   1.431   0.229   3.423
 2940SOL    HW220475   1.415   0.241   3.585
 2941SOL     OW20476   1.745   9.424   3.298
 2941SOL    HW120477   1.690   9.364   3.356
 2941SOL    HW220478   1.798   9.486   3.355
 2942SOL     OW20479   6.698   1.738   4.540
 2942SOL    HW120480   6.766   1.781   4.600
 2942SOL    HW220481   6.737   1.657   4.498
 2943SOL     OW20482   9.847   2.335   2.937
 2943SOL    HW120483   9.765   2.390   2.950
 2943SOL    HW220484   9.880   2.303   3.026
 2944SOL     OW20485   8.405   7.336   0.743
 2944SOL    HW120486   8.361   7.267   0.801
 2944SOL    HW220487   8.503   7.337   0.761
 2945SOL     OW20488   3.145   4.309   1.015
 2945SOL    HW120489   3.234   4.263   1.013
 2945SOL    HW220490   3.073   4.243   0.994
 2946SOL     OW20491   1.641   8.129   7.365
 2946SOL    HW120492   1.548   8.138   7.399
 2946SOL    HW220493   1.644   8.157   7.269
 2947SOL     OW20494   1.820   6.601   1.507
 2947SOL    HW120495   1.759   6.652   1.568
 2947SOL    HW220496   1.768   6.571   1.426
 2948SOL     OW20497   3.370   7.449   0.277
 2948SOL    HW120498   3.467   7.455   0.251
 2948SOL    HW220499   3.348   7.355   0.301
 2949SOL     OW20500   2.577   8.120   5.171
 2949SOL    HW120501   2.546   8.036   5.216
 2949SOL    HW220502   2.521   8.197   5.202
 2950SOL     OW20503   2.533   7.740   3.952
 2950SOL    HW120504   2.616   7.741   3.897
 2950SOL    HW220505   2.461   7.792   3.906
 2951SOL     OW20506   4.710   9.711   7.794
 2951SOL    HW120507   4.623   9.666   7.818
 2951SOL    HW220508   4.701   9.809   7.810
 2952SOL     OW20509   9.258   5.342   6.796
 2952SOL    HW120510   9.357   5.332   6.795
 2952SOL    HW220511   9.219   5.299   6.714
 2953SOL     OW20512   9.232   6.113   3.191
 2953SOL    HW120513   9.304   6.048   3.169
 2953SOL    HW220514   9.272   6.195   3.233
 2954SOL     OW20515   3.348   5.231   1.892
 2954SOL    HW120516   3.333   5.229   1.794
 2954SOL    HW220517   3.286   5.298   1.934
 2955SOL     OW20518   1.761   4.487   3.319
 2955SOL    HW120519   1.811   4.436   3.389
 2955SOL    HW220520   1.693   4.427   3.277
 2956SOL     OW20521   7.159   1.934   0.204
 2956SOL    HW120522   7.254   1.967   0.198
 2956SOL    HW220523   7.159   1.836   0.222
 2957SOL     OW20524   5.615   9.717   5.825
 2957SOL    HW120525   5.544   9.752   5.885
 2957SOL    HW220526   5.625   9.777   5.746
 2958SOL     OW20527   8.543   9.072   7.092
 2958SOL    HW120528   8.489   8.997   7.055
 2958SOL    HW220529   8.548   9.064   7.191
 2959SOL     OW20530   0.156   7.387   5.153
 2959SOL    HW120531   0.233   7.393   5.090
 2959SOL    HW220532   0.162   7.460   5.221
 2960SOL     OW20533   3.831   4.925   1.266
 2960SOL    HW120534   3.881   5.011   1.277
 2960SOL    HW220535   3.857   4.883   1.179
 2961SOL     OW20536   0.047   9.267   1.080
 2961SOL    HW120537   0.027   9.308   0.991
 2961SOL    HW220538   0.017   9.172   1.082
 2962SOL     OW20539   9.071   6.734   4.139
 2962SOL    HW120540   9.155   6.769   4.180
 2962SOL    HW220541   9.060   6.637   4.161
 2963SOL     OW20542   0.300   4.293   3.207
 2963SOL    HW120543   0.386   4.246   3.223
 2963SOL    HW220544   0.303   4.384   3.250
 2964SOL     OW20545   6.507   1.556   0.900
 2964SOL    HW120546   6.558   1.622   0.956
 2964SOL    HW220547   6.501   1.588   0.806
 2965SOL     OW20548   0.581   9.765   0.433
 2965SOL    HW120549   0.573   9.833   0.505
 2965SOL    HW220550   0.663   9.784   0.378
 2966SOL     OW20551   1.288   6.593   7.285
 2966SOL    HW120552   1.388   6.597   7.281
 2966SOL    HW220553   1.249   6.653   7.216
 2967SOL     OW20554   7.326   9.108   2.311
 2967SOL    HW120555   7.349   9.195   2.268
 2967SOL    HW220556   7.325   9.119   2.411
 2968SOL     OW20557   1.492   2.508   4.221
 2968SOL    HW120558   1.489   2.504   4.321
 2968SOL    HW220559   1.572   2.561   4.192
 2969SOL     OW20560   0.358   0.580   7.612
 2969SOL    HW120561   0.387   0.496   7.657
 2969SOL    HW220562   0.271   0.610   7.651
 2970SOL     OW20563   5.472   8.548   2.472
 2970SOL    HW120564   5.443   8.475   2.535
 2970SOL    HW220565   5.533   8.510   2.403
 2971SOL     OW20566   5.575   0.969   4.204
 2971SOL    HW120567   5.497   0.906   4.191
 2971SOL    HW220568   5.547   1.061   4.177
 2972SOL     OW20569   3.777   3.395   6.668
 2972SOL    HW120570   3.745   3.489   6.684
 2972SOL    HW220571   3.710   3.346   6.612
 2973SOL     OW20572   5.697   4.320   0.397
 2973SOL    HW120573   5.674   4.233   0.441
 2973SOL    HW220574   5.669   4.395   0.457
 2974SOL     OW20575   2.073   5.382   4.882
 2974SOL    HW120576   1.999   5.317   4.866
 2974SOL    HW220577   2.035   5.473   4.899
 2975SOL     OW20578   3.135   9.190   0.639
 2975SOL    HW120579   3.222   9.237   0.619
 2975SOL    HW220580   3.132   9.168   0.736
 2976SOL     OW20581   9.935   1.024   0.901
 2976SOL    HW120582   9.941   1.094   0.972
 2976SOL    HW220583   9.840   1.013   0.874
 2977SOL     OW20584   9.623   2.276   0.977
 2977SOL    HW120585   9.716   2.241   0.978
 2977SOL    HW220586   9.597   2.305   1.070
 2978SOL     OW20587   3.643   8.201   2.440
 2978SOL    HW120588   3.734   8.180   2.476
 2978SOL    HW220589   3.578   8.209   2.515
 2979SOL     OW20590   5.289   0.373   3.606
 2979SOL    HW120591   5.288   0.300   3.537
 2979SOL    HW220592   5.196   0.396   3.632
 2980SOL     OW20593   2.023   9.375   0.217
 2980SOL    HW120594   2.123   9.370   0.212
 2980SOL    HW220595   1.988   9.292   0.260
 2981SOL     OW20596   0.756   8.192   3.281
 2981SOL    HW120597   0.781   8.098   3.258
 2981SOL    HW220598   0.815   8.225   3.355
 2982SOL     OW20599   0.568   2.598   0.128
 2982SOL    HW120600   0.641   2.530   0.122
 2982SOL    HW220601   0.597   2.681   0.080
 2983SOL     OW20602   0.735   2.220   6.146
 2983SOL    HW120603   0.700   2.276   6.072
 2983SOL    HW220604   0.827   2.188   6.123
 2984SOL     OW20605   2.871   4.824   1.448
 2984SOL    HW120606   2.961   4.793   1.420
 2984SOL    HW220607   2.805   4.804   1.376
 2985SOL     OW20608   4.775   9.718   5.139
 2985SOL    HW120609   4.767   9.783   5.214
 2985SOL    HW220610   4.824   9.760   5.063
 2986SOL     OW20611   0.194   7.971   7.143
 2986SOL    HW120612   0.158   7.998   7.233
 2986SOL    HW220613   0.282   8.015   7.128
 2987SOL     OW20614   7.351   6.736   6.694
 2987SOL    HW120615   7.394   6.700   6.612
 2987SOL    HW220616   7.257   6.762   6.674
 2988SOL     OW20617   0.682   8.307   3.044
 2988SOL    HW120618   0.711   8.262   3.128
 2988SOL    HW220619   0.632   8.390   3.066
 2989SOL     OW20620   5.519   4.971   0.564
 2989SOL    HW120621   5.596   4.910   0.585
 2989SOL    HW220622   5.479   4.945   0.476
 2990SOL     OW20623   9.312   8.079   2.983
 2990SOL    HW120624   9.380   8.054   3.051
 2990SOL    HW220625   9.310   8.179   2.973
 2991SOL     OW20626   9.701   3.629   5.593
 2991SOL    HW120627   9.632   3.588   5.534
 2991SOL    HW220628   9.791   3.620   5.551
 2992SOL     OW20629   0.474   9.113   1.559
 2992SOL    HW120630   0.544   9.091   1.491
 2992SOL    HW220631   0.413   9.182   1.522
 2993SOL     OW20632   9.639   2.880   4.193
 2993SOL    HW120633   9.610   2.935   4.271
 2993SOL    HW220634   9.585   2.796   4.190
 2994SOL     OW20635   7.804   1.314   3.870
 2994SOL    HW120636   7.759   1.294   3.783
 2994SOL    HW220637   7.836   1.228   3.911
 2995SOL     OW20638   2.350   9.240   1.950
 2995SOL    HW120639   2.317   9.321   1.901
 2995SOL    HW220640   2.336   9.159   1.893
 2996SOL     OW20641   4.104   9.802   1.939
 2996SOL    HW120642   4.114   9.704   1.926
 2996SOL    HW220643   4.077   9.821   2.034
 2997SOL     OW20644   7.944   8.409   7.663
 2997SOL    HW120645   8.041   8.411   7.640
 2997SOL    HW220646   7.920   8.318   7.699
 2998SOL     OW20647   6.803   4.017   2.496
 2998SOL    HW120648   6.799   4.113   2.466
 2998SOL    HW220649   6.791   3.957   2.418
 2999SOL     OW20650   5.480   2.065   7.258
 2999SOL    HW120651   5.547   1.995   7.235
 2999SOL    HW220652   5.440   2.045   7.347
 3000SOL     OW20653   4.413   8.087   1.241
 3000SOL    HW120654   4.447   8.179   1.224
 3000SOL    HW220655   4.427   8.063   1.338
 3001SOL     OW20656   5.191   5.628   1.434
 3001SOL    HW120657   5.155   5.658   1.346
 3001SOL    HW220658   5.232   5.705   1.481
 3002SOL     OW20659   1.934   9.639   1.734
 3002SOL    HW120660   1.957   9.544   1.756
 3002SOL    HW220661   1.835   9.653   1.743
 3003SOL     OW20662   7.730   7.491   7.040
 3003SOL    HW120663   7.707   7.432   7.117
 3003SOL    HW220664   7.758   7.581   7.075
 3004SOL     OW20665   9.365   7.520   1.630
 3004SOL    HW120666   9.407   7.490   1.545
 3004SOL    HW220667   9.393   7.614   1.650
 3005SOL     OW20668   8.291   1.303   2.519
 3005SOL    HW120669   8.292   1.311   2.419
 3005SOL    HW220670   8.344   1.223   2.546
 3006SOL     OW20671   6.931   1.678   0.440
 3006SOL    HW120672   6.849   1.688   0.382
 3006SOL    HW220673   6.916   1.726   0.526
 3007SOL     OW20674   3.083   0.373   3.241
 3007SOL    HW120675   3.167   0.382   3.188
 3007SOL    HW220676   3.091   0.297   3.305
 3008SOL     OW20677   9.744   7.037   4.382
 3008SOL    HW120678   9.809   6.962   4.371
 3008SOL    HW220679   9.787   7.112   4.433
 3009SOL     OW20680   6.441   0.257   5.235
 3009SOL    HW120681   6.427   0.229   5.330
 3009SOL    HW220682   6.359   0.303   5.201
 3010SOL     OW20683   4.273   7.016   2.740
 3010SOL    HW120684   4.323   7.092   2.699
 3010SOL    HW220685   4.336   6.941   2.761
 3011SOL     OW20686   2.599   7.920   6.551
 3011SOL    HW120687   2.573   7.885   6.461
 3011SOL    HW220688   2.559   7.861   6.622
 3012SOL     OW20689   6.077   9.333   5.538
 3012SOL    HW120690   6.029   9.303   5.621
 3012SOL    HW220691   6.039   9.420   5.507
 3013SOL     OW20692   1.920   8.416   4.652
 3013SOL    HW120693   1.871   8.453   4.731
 3013SOL    HW220694   2.013   8.452   4.650
 3014SOL     OW20695   3.185   3.841   6.202
 3014SOL    HW120696   3.193   3.756   6.150
 3014SOL    HW220697   3.274   3.865   6.240
 3015SOL     OW20698   2.719   2.313   0.914
 3015SOL    HW120699   2.683   2.320   0.821
 3015SOL    HW220700   2.649   2.274   0.975
 3016SOL     OW20701   5.305   7.465   6.117
 3016SOL    HW120702   5.222   7.460   6.062
 3016SOL    HW220703   5.369   7.529   6.076
 3017SOL     OW20704   0.191   2.308   6.310
 3017SOL    HW120705   0.213   2.211   6.309
 3017SOL    HW220706   0.098   2.321   6.344
 3018SOL     OW20707   6.781   1.117   0.291
 3018SOL    HW120708   6.708   1.134   0.226
 3018SOL    HW220709   6.870   1.120   0.245
 3019SOL     OW20710   3.520   8.733   2.848
 3019SOL    HW120711   3.598   8.686   2.807
 3019SOL    HW220712   3.501   8.693   2.937
 3020SOL     OW20713   2.688   9.087   0.848
 3020SOL    HW120714   2.750   9.139   0.905
 3020SOL    HW220715   2.627   9.150   0.798
 3021SOL     OW20716   3.628   9.369   0.638
 3021SOL    HW120717   3.724   9.396   0.627
 3021SOL    HW220718   3.624   9.271   0.657
 3022SOL     OW20719   7.131   5.226   7.773
 3022SOL    HW120720   7.223   5.188   7.776
 3022SOL    HW220721   7.133   5.323   7.797
 3023SOL     OW20722   1.347   2.984   3.216
 3023SOL    HW120723   1.347   2.888   3.190
 3023SOL    HW220724   1.315   3.040   3.140
 3024SOL     OW20725   0.552   2.821   2.367
 3024SOL    HW120726   0.550   2.857   2.273
 3024SOL    HW220727   0.529   2.894   2.431
 3025SOL     OW20728   2.995   5.976   2.224
 3025SOL    HW120729   3.021   5.900   2.283
 3025SOL    HW220730   2.901   6.003   2.242
 3026SOL     OW20731   7.548   1.018   4.258
 3026SOL    HW120732   7.644   1.015   4.230
 3026SOL    HW220733   7.541   1.057   4.350
 3027SOL     OW20734   1.165   6.432   1.879
 3027SOL    HW120735   1.093   6.367   1.904
 3027SOL    HW220736   1.236   6.384   1.828
 3028SOL     OW20737   7.272   1.431   5.830
 3028SOL    HW120738   7.311   1.352   5.879
 3028SOL    HW220739   7.345   1.475   5.777
 3029SOL     OW20740   8.867   9.342   5.379
 3029SOL    HW120741   8.855   9.320   5.282
 3029SOL    HW220742   8.889   9.259   5.429
 3030SOL     OW20743   2.012   4.856   5.965
 3030SOL    HW120744   1.991   4.852   6.063
 3030SOL    HW220745   2.088   4.793   5.946
 3031SOL     OW20746   4.561   9.435   7.570
 3031SOL    HW120747   4.529   9.529   7.558
 3031SOL    HW220748   4.525   9.398   7.656
 3032SOL     OW20749   1.468   6.663   4.674
 3032SOL    HW120750   1.481   6.706   4.763
 3032SOL    HW220751   1.479   6.564   4.683
 3033SOL     OW20752   0.980   7.889   3.993
 3033SOL    HW120753   0.924   7.934   4.063
 3033SOL    HW220754   1.056   7.841   4.038
 3034SOL     OW20755   2.106   9.671   7.046
 3034SOL    HW120756   2.186   9.729   7.035
 3034SOL    HW220757   2.135   9.578   7.068
 3035SOL     OW20758   7.868   6.607   1.518
 3035SOL    HW120759   7.769   6.596   1.510
 3035SOL    HW220760   7.891   6.704   1.514
 3036SOL     OW20761   2.677   3.161   4.100
 3036SOL    HW120762   2.710   3.068   4.110
 3036SOL    HW220763   2.751   3.221   4.070
 3037SOL     OW20764   2.407   0.589   4.203
 3037SOL    HW120765   2.486   0.646   4.225
 3037SOL    HW220766   2.340   0.644   4.153
 3038SOL     OW20767   4.870   7.480   1.263
 3038SOL    HW120768   4.773   7.476   1.287
 3038SOL    HW220769   4.899   7.393   1.224
 3039SOL     OW20770   8.398   9.240   1.526
 3039SOL    HW120771   8.452   9.303   1.472
 3039SOL    HW220772   8.335   9.190   1.467
 3040SOL     OW20773   9.622   0.386   0.192
 3040SOL    HW120774   9.569   0.444   0.131
 3040SOL    HW220775   9.713   0.426   0.205
 3041SOL     OW20776   3.109   9.229   7.312
 3041SOL    HW120777   3.177   9.281   7.363
 3041SOL    HW220778   3.066   9.287   7.243
 3042SOL     OW20779   1.017   0.660   2.191
 3042SOL    HW120780   0.958   0.738   2.171
 3042SOL    HW220781   1.074   0.639   2.112
 3043SOL     OW20782   2.451   5.155   4.531
 3043SOL    HW120783   2.518   5.148   4.605
 3043SOL    HW220784   2.475   5.090   4.458
 3044SOL     OW20785   2.201   8.518   7.484
 3044SOL    HW120786   2.239   8.568   7.562
 3044SOL    HW220787   2.258   8.438   7.465
 3045SOL     OW20788   2.473   6.996   5.136
 3045SOL    HW120789   2.417   7.030   5.061
 3045SOL    HW220790   2.526   6.917   5.105
 3046SOL     OW20791   8.982   6.436   2.085
 3046SOL    HW120792   9.026   6.398   2.167
 3046SOL    HW220793   9.027   6.521   2.059
 3047SOL     OW20794   2.637   2.620   3.557
 3047SOL    HW120795   2.658   2.711   3.593
 3047SOL    HW220796   2.703   2.596   3.485
 3048SOL     OW20797   9.144   0.618   4.942
 3048SOL    HW120798   9.215   0.632   4.874
 3048SOL    HW220799   9.171   0.545   5.005
 3049SOL     OW20800   7.185   6.732   6.388
 3049SOL    HW120801   7.143   6.730   6.479
 3049SOL    HW220802   7.282   6.710   6.396
 3050SOL     OW20803   1.556   3.219   5.299
 3050SOL    HW120804   1.599   3.156   5.233
 3050SOL    HW220805   1.542   3.171   5.385
 3051SOL     OW20806   0.718   7.300   2.260
 3051SOL    HW120807   0.790   7.358   2.299
 3051SOL    HW220808   0.636   7.354   2.243
 3052SOL     OW20809   0.016   0.000   6.140
 3052SOL    HW120810   9.985   9.949   6.060
 3052SOL    HW220811   9.989   9.952   6.224
 3053SOL     OW20812   4.598   1.080   5.503
 3053SOL    HW120813   4.562   1.038   5.587
 3053SOL    HW220814   4.522   1.121   5.452
 3054SOL     OW20815   7.741   1.062   1.555
 3054SOL    HW120816   7.817   1.069   1.490
 3054SOL    HW220817   7.777   1.034   1.644
 3055SOL     OW20818   0.389   5.389   2.218
 3055SOL    HW120819   0.374   5.314   2.282
 3055SOL    HW220820   0.389   5.354   2.124
 3056SOL     OW20821   8.655   6.905   1.137
 3056SOL    HW120822   8.615   6.837   1.076
 3056SOL    HW220823   8.654   6.870   1.231
 3057SOL     OW20824   4.105   4.088   4.988
 3057SOL    HW120825   4.083   4.020   4.918
 3057SOL    HW220826   4.078   4.053   5.078
 3058SOL     OW20827   1.018   6.332   2.564
 3058SOL    HW120828   1.000   6.247   2.514
 3058SOL    HW220829   0.963   6.406   2.524
 3059SOL     OW20830   6.931   9.507   5.422
 3059SOL    HW120831   6.944   9.408   5.423
 3059SOL    HW220832   6.905   9.537   5.330
 3060SOL     OW20833   7.435   1.190   4.065
 3060SOL    HW120834   7.469   1.129   4.137
 3060SOL    HW220835   7.489   1.275   4.065
 3061SOL     OW20836   3.609   5.268   1.977
 3061SOL    HW120837   3.650   5.341   1.922
 3061SOL    HW220838   3.515   5.251   1.945
 3062SOL     OW20839   5.143   8.766   3.071
 3062SOL    HW120840   5.114   8.853   3.110
 3062SOL    HW220841   5.153   8.776   2.972
 3063SOL     OW20842   4.018   1.171   1.084
 3063SOL    HW120843   3.958   1.147   1.008
 3063SOL    HW220844   3.972   1.236   1.144
 3064SOL     OW20845   2.860   8.512   6.988
 3064SOL    HW120846   2.818   8.583   7.044
 3064SOL    HW220847   2.888   8.436   7.046
 3065SOL     OW20848   3.209   3.026   6.162
 3065SOL    HW120849   3.237   3.049   6.255
 3065SOL    HW220850   3.265   2.952   6.127
 3066SOL     OW20851   3.432   1.085   0.823
 3066SOL    HW120852   3.516   1.035   0.801
 3066SOL    HW220853   3.374   1.090   0.741
 3067SOL     OW20854   3.907   2.717   5.031
 3067SOL    HW120855   3.902   2.661   4.949
 3067SOL    HW220856   3.904   2.814   5.007
 3068SOL     OW20857   8.856   9.455   0.750
 3068SOL    HW120858   8.762   9.489   0.763
 3068SOL    HW220859   8.915   9.531   0.724
 3069SOL     OW20860   9.436   5.132   2.599
 3069SOL    HW120861   9.534   5.110   2.603
 3069SOL    HW220862   9.394   5.084   2.522
 3070SOL     OW20863   0.239   4.780   5.115
 3070SOL    HW120864   0.334   4.755   5.096
 3070SOL    HW220865   0.207   4.728   5.194
 3071SOL     OW20866   8.110   2.092   7.818
 3071SOL    HW120867   8.176   2.164   7.836
 3071SOL    HW220868   8.088   2.043   7.902
 3072SOL     OW20869   7.322   6.611   2.809
 3072SOL    HW120870   7.371   6.566   2.883
 3072SOL    HW220871   7.377   6.687   2.774
 3073SOL     OW20872   1.210   7.928   7.479
 3073SOL    HW120873   1.264   7.904   7.559
 3073SOL    HW220874   1.113   7.930   7.503
 3074SOL     OW20875   6.413   0.549   2.618
 3074SOL    HW120876   6.381   0.640   2.592
 3074SOL    HW220877   6.364   0.519   2.700
 3075SOL     OW20878   8.236   8.056   4.894
 3075SOL    HW120879   8.143   8.023   4.880
 3075SOL    HW220880   8.286   8.052   4.808
 3076SOL     OW20881   4.012   0.877   1.972
 3076SOL    HW120882   4.096   0.852   1.925
 3076SOL    HW220883   4.032   0.948   2.040
 3077SOL     OW20884   8.690   6.762   2.772
 3077SOL    HW120885   8.630   6.743   2.850
 3077SOL    HW220886   8.783   6.781   2.804
 3078SOL     OW20887   1.821   4.016   2.122
 3078SOL    HW120888   1.781   4.106   2.135
 3078SOL    HW220889   1.754   3.946   2.146
 3079SOL     OW20890   0.947   1.638   6.622
 3079SOL    HW120891   0.931   1.551   6.669
 3079SOL    HW220892   1.042   1.666   6.636
 3080SOL     OW20893   4.673   9.916   3.851
 3080SOL    HW120894   4.687   0.004   3.807
 3080SOL    HW220895   4.575   9.897   3.856
 3081SOL     OW20896   1.200   5.012   1.384
 3081SOL    HW120897   1.258   5.015   1.466
 3081SOL    HW220898   1.257   5.024   1.303
 3082SOL     OW20899   8.550   4.527   5.934
 3082SOL    HW120900   8.532   4.466   6.012
 3082SOL    HW220901   8.464   4.546   5.886
 3083SOL     OW20902   0.881   4.679   4.770
 3083SOL    HW120903   0.793   4.650   4.806
 3083SOL    HW220904   0.875   4.686   4.670
 3084SOL     OW20905   5.526   8.127   2.195
 3084SOL    HW120906   5.503   8.213   2.150
 3084SOL    HW220907   5.521   8.138   2.294
 3085SOL     OW20908   7.445   7.888   3.866
 3085SOL    HW120909   7.382   7.914   3.794
 3085SOL    HW220910   7.421   7.797   3.901
 3086SOL     OW20911   0.363   7.222   0.413
 3086SOL    HW120912   0.363   7.321   0.426
 3086SOL    HW220913   0.456   7.187   0.418
 3087SOL     OW20914   5.584   7.781   2.992
 3087SOL    HW120915   5.504   7.799   3.049
 3087SOL    HW220916   5.554   7.742   2.904
 3088SOL     OW20917   8.929   4.568   0.534
 3088SOL    HW120918   8.918   4.663   0.564
 3088SOL    HW220919   8.840   4.524   0.528
 3089SOL     OW20920   2.008   7.373   7.436
 3089SOL    HW120921   2.094   7.344   7.394
 3089SOL    HW220922   1.932   7.350   7.375
 3090SOL     OW20923   9.562   3.023   4.413
 3090SOL    HW120924   9.464   3.029   4.428
 3090SOL    HW220925   9.608   2.993   4.497
 3091SOL     OW20926   8.369   1.830   7.241
 3091SOL    HW120927   8.326   1.895   7.177
 3091SOL    HW220928   8.468   1.843   7.239
 3092SOL     OW20929   3.632   4.373   7.701
 3092SOL    HW120930   3.696   4.320   7.646
 3092SOL    HW220931   3.540   4.333   7.695
 3093SOL     OW20932   2.146   8.127   3.269
 3093SOL    HW120933   2.126   8.146   3.173
 3093SOL    HW220934   2.106   8.198   3.327
 3094SOL     OW20935   5.940   9.858   6.445
 3094SOL    HW120936   5.855   9.809   6.462
 3094SOL    HW220937   6.016   9.809   6.487
 3095SOL     OW20938   9.995   3.994   1.297
 3095SOL    HW120939   9.983   3.899   1.326
 3095SOL    HW220940   9.905   4.035   1.282
 3096SOL     OW20941   0.255   8.159   5.651
 3096SOL    HW120942   0.340   8.109   5.629
 3096SOL    HW220943   0.178   8.096   5.647
 3097SOL     OW20944   9.358   4.785   0.934
 3097SOL    HW120945   9.303   4.753   1.012
 3097SOL    HW220946   9.317   4.753   0.849
 3098SOL     OW20947   5.562   3.180   0.125
 3098SOL    HW120948   5.574   3.257   0.061
 3098SOL    HW220949   5.646   3.127   0.129
 3099SOL     OW20950   7.014   7.031   6.678
 3099SOL    HW120951   7.088   7.095   6.698
 3099SOL    HW220952   6.950   7.030   6.754
 3100SOL     OW20953   3.548   9.924   6.978
 3100SOL    HW120954   3.554   9.956   7.072
 3100SOL    HW220955   3.638   9.896   6.946
 3101SOL     OW20956   3.343   5.246   2.293
 3101SOL    HW120957   3.359   5.152   2.262
 3101SOL    HW220958   3.424   5.301   2.276
 3102SOL     OW20959   5.611   4.523   0.560
 3102SOL    HW120960   5.594   4.482   0.650
 3102SOL    HW220961   5.656   4.612   0.572
 3103SOL     OW20962   3.621   2.591   6.468
 3103SOL    HW120963   3.676   2.507   6.467
 3103SOL    HW220964   3.602   2.616   6.563
 3104SOL     OW20965   7.484   8.395   4.300
 3104SOL    HW120966   7.409   8.383   4.234
 3104SOL    HW220967   7.472   8.332   4.376
 3105SOL     OW20968   5.840   9.239   1.331
 3105SOL    HW120969   5.938   9.224   1.342
 3105SOL    HW220970   5.792   9.210   1.414
 3106SOL     OW20971   2.288   1.008   7.694
 3106SOL    HW120972   2.273   0.917   7.732
 3106SOL    HW220973   2.378   1.012   7.652
 3107SOL     OW20974   1.012   0.251   0.493
 3107SOL    HW120975   1.086   0.205   0.444
 3107SOL    HW220976   1.026   0.350   0.489
 3108SOL     OW20977   0.261   4.936   3.039
 3108SOL    HW120978   0.176   4.901   3.000
 3108SOL    HW220979   0.240   5.012   3.101
 3109SOL     OW20980   8.451   6.703   2.378
 3109SOL    HW120981   8.544   6.667   2.377
 3109SOL    HW220982   8.399   6.662   2.304
 3110SOL     OW20983   3.777   6.497   1.658
 3110SOL    HW120984   3.717   6.433   1.706
 3110SOL    HW220985   3.803   6.571   1.721
 3111SOL     OW20986   1.099   6.319   4.425
 3111SOL    HW120987   1.101   6.413   4.458
 3111SOL    HW220988   1.050   6.262   4.490
 3112SOL     OW20989   2.431   2.220   2.036
 3112SOL    HW120990   2.441   2.182   2.127
 3112SOL    HW220991   2.422   2.320   2.042
 3113SOL     OW20992   2.553   6.353   3.120
 3113SOL    HW120993   2.489   6.327   3.192
 3113SOL    HW220994   2.627   6.285   3.115
 3114SOL     OW20995   2.001   6.826   2.323
 3114SOL    HW120996   1.967   6.888   2.394
 3114SOL    HW220997   2.100   6.816   2.331
 3115SOL     OW20998   0.684   7.626   2.431
 3115SOL    HW120999   0.689   7.687   2.510
 3115SOL    HW221000   0.589   7.602   2.413
 3116SOL     OW21001   3.671   4.168   1.556
 3116SOL    HW121002   3.612   4.139   1.480
 3116SOL    HW221003   3.763   4.184   1.521
 3117SOL     OW21004   9.304   6.810   4.257
 3117SOL    HW121005   9.316   6.746   4.333
 3117SOL    HW221006   9.295   6.903   4.292
 3118SOL     OW21007   9.159   6.012   0.999
 3118SOL    HW121008   9.205   6.016   1.088
 3118SOL    HW221009   9.189   6.089   0.943
 3119SOL     OW21010   4.677   8.277   1.670
 3119SOL    HW121011   4.637   8.337   1.600
 3119SOL    HW221012   4.634   8.295   1.758
 3120SOL     OW21013   5.929   5.400   0.185
 3120SOL    HW121014   5.875   5.317   0.170
 3120SOL    HW221015   5.868   5.477   0.202
 3121SOL     OW21016   1.566   5.555   6.648
 3121SOL    HW121017   1.530   5.520   6.561
 3121SOL    HW221018   1.495   5.548   6.719
 3122SOL     OW21019   2.969   5.504   1.615
 3122SOL    HW121020   2.923   5.587   1.583
 3122SOL    HW221021   3.054   5.491   1.564
 3123SOL     OW21022   3.590   8.348   6.755
 3123SOL    HW121023   3.566   8.435   6.797
 3123SOL    HW221024   3.688   8.347   6.734
 3124SOL     OW21025   3.873   5.381   0.885
 3124SOL    HW121026   3.815   5.300   0.897
 3124SOL    HW221027   3.875   5.433   0.971
 3125SOL     OW21028   9.618   3.078   5.816
 3125SOL    HW121029   9.561   3.033   5.885
 3125SOL    HW221030   9.663   3.009   5.760
 3126SOL     OW21031   2.442   8.796   4.511
 3126SOL    HW121032   2.486   8.716   4.551
 3126SOL    HW221033   2.399   8.850   4.583
 3127SOL     OW21034   2.084   2.321   3.656
 3127SOL    HW121035   2.018   2.395   3.667
 3127SOL    HW221036   2.131   2.330   3.568
 3128SOL     OW21037   7.766   0.851   6.906
 3128SOL    HW121038   7.815   0.879   6.988
 3128SOL    HW221039   7.668   0.846   6.926
 3129SOL     OW21040   6.684   4.204   2.118
 3129SOL    HW121041   6.778   4.220   2.091
 3129SOL    HW221042   6.626   4.279   2.085
 3130SOL     OW21043   7.630   9.322   4.421
 3130SOL    HW121044   7.678   9.405   4.396
 3130SOL    HW221045   7.533   9.332   4.401
 3131SOL     OW21046   8.890   2.538   5.051
 3131SOL    HW121047   8.928   2.629   5.033
 3131SOL    HW221048   8.802   2.529   5.003
 3132SOL     OW21049   0.578   0.024   3.628
 3132SOL    HW121050   0.579   0.016   3.728
 3132SOL    HW221051   0.483   0.026   3.596
 3133SOL     OW21052   9.531   7.645   5.353
 3133SOL    HW121053   9.624   7.610   5.365
 3133SOL    HW221054   9.468   7.568   5.343
 3134SOL     OW21055   6.226   0.827   6.430
 3134SOL    HW121056   6.265   0.859   6.517
 3134SOL    HW221057   6.300   0.798   6.369
 3135SOL     OW21058   9.690   7.651   6.971
 3135SOL    HW121059   9.685   7.554   6.993
 3135SOL    HW221060   9.659   7.664   6.876
 3136SOL     OW21061   0.330   7.691   3.600
 3136SOL    HW121062   0.394   7.715   3.674
 3136SOL    HW221063   0.372   7.708   3.512
 3137SOL     OW21064   0.524   7.646   6.974
 3137SOL    HW121065   0.592   7.703   6.929
 3137SOL    HW221066   0.437   7.652   6.925
 3138SOL     OW21067   1.212   9.167   7.339
 3138SOL    HW121068   1.171   9.139   7.426
 3138SOL    HW221069   1.143   9.210   7.282
 3139SOL     OW21070   2.661   8.157   5.804
 3139SOL    HW121071   2.707   8.157   5.716
 3139SOL    HW221072   2.576   8.105   5.797
 3140SOL     OW21073   0.875   1.430   3.620
 3140SOL    HW121074   0.780   1.399   3.613
 3140SOL    HW221075   0.928   1.360   3.669
 3141SOL     OW21076   6.773   3.229   3.037
 3141SOL    HW121077   6.780   3.320   3.079
 3141SOL    HW221078   6.678   3.211   3.012
 3142SOL     OW21079   4.167   1.147   6.556
 3142SOL    HW121080   4.228   1.155   6.478
 3142SOL    HW221081   4.116   1.232   6.568
 3143SOL     OW21082   6.236   2.489   2.128
 3143SOL    HW121083   6.178   2.463   2.205
 3143SOL    HW221084   6.332   2.487   2.157
 3144SOL     OW21085   3.520   9.043   5.330
 3144SOL    HW121086   3.618   9.027   5.328
 3144SOL    HW221087   3.497   9.119   5.269
 3145SOL     OW21088   9.308   2.822   4.587
 3145SOL    HW121089   9.352   2.775   4.663
 3145SOL    HW221090   9.232   2.767   4.553
 3146SOL     OW21091   1.655   7.185   3.939
 3146SOL    HW121092   1.678   7.282   3.937
 3146SOL    HW221093   1.564   7.171   3.901
 3147SOL     OW21094   1.962   7.938   1.655
 3147SOL    HW121095   1.941   8.031   1.626
 3147SOL    HW221096   2.048   7.909   1.611
 3148SOL     OW21097   5.043   0.376   3.233
 3148SOL    HW121098   5.052   0.338   3.325
 3148SOL    HW221099   4.974   0.325   3.182
 3149SOL     OW21100   6.093   0.261   3.354
 3149SOL    HW121101   6.077   0.340   3.296
 3149SOL    HW221102   6.191   0.253   3.374
 3150SOL     OW21103   9.230   1.038   7.217
 3150SOL    HW121104   9.306   0.980   7.188
 3150SOL    HW221105   9.222   1.117   7.156
 3151SOL     OW21106   9.421   2.181   0.250
 3151SOL    HW121107   9.328   2.194   0.214
 3151SOL    HW221108   9.464   2.104   0.205
 3152SOL     OW21109   0.675   5.288   6.608
 3152SOL    HW121110   0.756   5.280   6.550
 3152SOL    HW221111   0.701   5.290   6.704
 3153SOL     OW21112   1.239   1.096   6.962
 3153SOL    HW121113   1.253   1.045   7.047
 3153SOL    HW221114   1.145   1.084   6.931
 3154SOL     OW21115   3.439   6.405   1.978
 3154SOL    HW121116   3.514   6.385   1.916
 3154SOL    HW221117   3.367   6.453   1.929
 3155SOL     OW21118   8.986   5.683   3.311
 3155SOL    HW121119   9.075   5.727   3.326
 3155SOL    HW221120   8.936   5.679   3.397
 3156SOL     OW21121   7.656   8.510   4.613
 3156SOL    HW121122   7.649   8.468   4.703
 3156SOL    HW221123   7.673   8.608   4.623
 3157SOL     OW21124   3.244   8.224   2.430
 3157SOL    HW121125   3.254   8.199   2.334
 3157SOL    HW221126   3.252   8.323   2.440
 3158SOL     OW21127   7.968   6.266   6.521
 3158SOL    HW121128   7.953   6.362   6.543
 3158SOL    HW221129   7.881   6.217   6.524
 3159SOL     OW21130   4.237   2.918   6.033
 3159SOL    HW121131   4.275   2.874   5.951
 3159SOL    HW221132   4.137   2.923   6.024
 3160SOL     OW21133   3.679   2.831   3.552
 3160SOL    HW121134   3.642   2.912   3.597
 3160SOL    HW221135   3.648   2.829   3.457
 3161SOL     OW21136   0.017   9.579   3.669
 3161SOL    HW121137   9.918   9.578   3.657
 3161SOL    HW221138   0.039   9.591   3.766
 3162SOL     OW21139   5.747   9.720   2.033
 3162SOL    HW121140   5.766   9.634   2.079
 3162SOL    HW221141   5.703   9.701   1.945
 3163SOL     OW21142   2.362   3.515   1.667
 3163SOL    HW121143   2.415   3.491   1.585
 3163SOL    HW221144   2.328   3.431   1.709
 3164SOL     OW21145   0.086   7.505   1.782
 3164SOL    HW121146   0.104   7.493   1.880
 3164SOL    HW221147   0.080   7.415   1.739
 3165SOL     OW21148   6.396   9.907   2.476
 3165SOL    HW121149   6.378   0.005   2.462
 3165SOL    HW221150   6.485   9.897   2.520
 3166SOL     OW21151   1.350   3.746   7.713
 3166SOL    HW121152   1.253   3.768   7.704
 3166SOL    HW221153   1.385   3.713   7.626
 3167SOL     OW21154   9.938   9.937   0.267
 3167SOL    HW121155   9.863   9.985   0.220
 3167SOL    HW221156   9.995   0.003   0.315
 3168SOL     OW21157   6.430   6.220   0.755
 3168SOL    HW121158   6.459   6.182   0.667
 3168SOL    HW221159   6.426   6.320   0.748
 3169SOL     OW21160   1.485   3.809   0.694
 3169SOL    HW121161   1.475   3.749   0.773
 3169SOL    HW221162   1.449   3.764   0.613
 3170SOL     OW21163   3.420   0.648   4.563
 3170SOL    HW121164   3.433   0.645   4.663
 3170SOL    HW221165   3.507   0.631   4.518
 3171SOL     OW21166   5.951   7.656   3.271
 3171SOL    HW121167   5.996   7.745   3.283
 3171SOL    HW221168   5.968   7.622   3.179
 3172SOL     OW21169   5.293   2.695   7.665
 3172SOL    HW121170   5.228   2.769   7.684
 3172SOL    HW221171   5.360   2.726   7.597
 3173SOL     OW21172   8.088   5.860   6.647
 3173SOL    HW121173   8.063   5.791   6.580
 3173SOL    HW221174   8.006   5.909   6.677
 3174SOL     OW21175   1.499   9.923   3.417
 3174SOL    HW121176   1.422   9.878   3.371
 3174SOL    HW221177   1.469   0.013   3.450
 3175SOL     OW21178   3.032   8.218   6.064
 3175SOL    HW121179   3.120   8.265   6.062
 3175SOL    HW221180   3.034   8.144   6.131
 3176SOL     OW21181   5.651   9.476   3.871
 3176SOL    HW121182   5.607   9.405   3.816
 3176SOL    HW221183   5.678   9.438   3.959
 3177SOL     OW21184   1.822   3.504   2.718
 3177SOL    HW121185   1.892   3.572   2.738
 3177SOL    HW221186   1.796   3.511   2.621
 3178SOL     OW21187   0.962   8.411   1.333
 3178SOL    HW121188   0.959   8.325   1.384
 3178SOL    HW221189   0.886   8.414   1.268
 3179SOL     OW21190   0.807   3.272   5.588
 3179SOL    HW121191   0.712   3.293   5.610
 3179SOL    HW221192   0.847   3.216   5.661
 3180SOL     OW21193   7.139   2.104   0.885
 3180SOL    HW121194   7.099   2.080   0.797
 3180SOL    HW221195   7.081   2.071   0.959
 3181SOL     OW21196   3.738   3.482   1.249
 3181SOL    HW121197   3.814   3.429   1.287
 3181SOL    HW221198   3.653   3.456   1.295
 3182SOL     OW21199   4.912   9.407   3.559
 3182SOL    HW121200   4.816   9.393   3.535
 3182SOL    HW221201   4.968   9.404   3.476
 3183SOL     OW21202   9.274   1.751   6.505
 3183SOL    HW121203   9.262   1.661   6.545
 3183SOL    HW221204   9.188   1.782   6.464
 3184SOL     OW21205   3.494   8.396   5.032
 3184SOL    HW121206   3.409   8.448   5.020
 3184SOL    HW221207   3.522   8.357   4.944
 3185SOL     OW21208   1.855   3.391   6.748
 3185SOL    HW121209   1.860   3.432   6.840
 3185SOL    HW221210   1.926   3.321   6.739
 3186SOL     OW21211   9.952   8.402   1.648
 3186SOL    HW121212   9.976   8.346   1.727
 3186SOL    HW221213   9.899   8.481   1.678
 3187SOL     OW21214   9.797   1.826   5.628
 3187SOL    HW121215   9.798   1.913   5.677
 3187SOL    HW221216   9.761   1.754   5.687
 3188SOL     OW21217   0.045   6.738   3.586
 3188SOL    HW121218   0.106   6.660   3.571
 3188SOL    HW221219   0.079   6.818   3.536
 3189SOL     OW21220   1.782   1.505   5.424
 3189SOL    HW121221   1.809   1.420   5.379
 3189SOL    HW221222   1.863   1.550   5.462
 3190SOL     OW21223   3.802   9.656   0.744
 3190SOL    HW121224   3.875   9.676   0.809
 3190SOL    HW221225   3.833   9.586   0.679
 3191SOL     OW21226   8.407   8.617   4.189
 3191SOL    HW121227   8.480   8.570   4.140
 3191SOL    HW221228   8.318   8.586   4.153
 3192SOL     OW21229   8.077   2.522   5.551
 3192SOL    HW121230   8.034   2.568   5.474
 3192SOL    HW221231   8.094   2.426   5.528
 3193SOL     OW21232   2.084   6.064   6.999
 3193SOL    HW121233   2.171   6.018   7.016
 3193SOL    HW221234   2.022   6.050   7.076
 3194SOL     OW21235   7.647   0.304   2.320
 3194SOL    HW121236   7.727   0.270   2.271
 3194SOL    HW221237   7.580   0.231   2.331
 3195SOL     OW21238   5.819   3.834   0.149
 3195SOL    HW121239   5.809   3.836   0.248
 3195SOL    HW221240   5.773   3.913   0.109
 3196SOL     OW21241   3.331   8.788   6.287
 3196SOL    HW121242   3.301   8.693   6.278
 3196SOL    HW221243   3.311   8.820   6.380
 3197SOL     OW21244   1.529   4.401   5.318
 3197SOL    HW121245   1.558   4.386   5.413
 3197SOL    HW221246   1.430   4.395   5.312
 3198SOL     OW21247   0.118   2.734   6.507
 3198SOL    HW121248   0.099   2.693   6.417
 3198SOL    HW221249   0.114   2.663   6.577
 3199SOL     OW21250   3.109   8.121   5.306
 3199SOL    HW121251   3.010   8.125   5.292
 3199SOL    HW221252   3.143   8.213   5.328
 3200SOL     OW21253   1.058   7.583   5.243
 3200SOL    HW121254   1.021   7.662   5.195
 3200SOL    HW221255   1.096   7.612   5.331
 3201SOL     OW21256   7.296   9.190   7.796
 3201SOL    HW121257   7.308   9.125   7.721
 3201SOL    HW221258   7.326   9.148   7.881
 3202SOL     OW21259   4.257   4.602   1.022
 3202SOL    HW121260   4.273   4.656   1.105
 3202SOL    HW221261   4.328   4.532   1.014
 3203SOL     OW21262   1.732   3.971   3.209
 3203SOL    HW121263   1.697   3.970   3.302
 3203SOL    HW221264   1.658   3.952   3.144
 3204SOL     OW21265   1.238   7.011   2.643
 3204SOL    HW121266   1.208   6.935   2.586
 3204SOL    HW221267   1.255   6.978   2.736
 3205SOL     OW21268   2.931   6.627   7.018
 3205SOL    HW121269   2.942   6.639   7.117
 3205SOL    HW221270   2.836   6.600   6.998
 3206SOL     OW21271   3.013   4.619   6.115
 3206SOL    HW121272   2.921   4.656   6.124
 3206SOL    HW221273   3.015   4.526   6.152
 3207SOL     OW21274   2.229   9.469   5.840
 3207SOL    HW121275   2.292   9.538   5.804
 3207SOL    HW221276   2.187   9.504   5.924
 3208SOL     OW21277   1.998   7.732   1.300
 3208SOL    HW121278   1.901   7.757   1.306
 3208SOL    HW221279   2.026   7.686   1.385
 3209SOL     OW21280   9.737   7.948   0.222
 3209SOL    HW121281   9.834   7.926   0.210
 3209SOL    HW221282   9.719   8.040   0.186
 3210SOL     OW21283   8.713   6.959   7.643
 3210SOL    HW121284   8.635   7.013   7.675
 3210SOL    HW221285   8.790   7.020   7.622
 3211SOL     OW21286   0.139   0.949   3.754
 3211SOL    HW121287   0.213   1.003   3.714
 3211SOL    HW221288   0.100   0.999   3.832
 3212SOL     OW21289   9.448   8.813   6.608
 3212SOL    HW121290   9.544   8.831   6.627
 3212SOL    HW221291   9.391   8.884   6.650
 3213SOL     OW21292   8.216   5.925   5.054
 3213SOL    HW121293   8.121   5.932   5.022
 3213SOL    HW221294   8.223   5.852   5.121
 3214SOL     OW21295   2.735   5.382   5.554
 3214SOL    HW121296   2.721   5.442   5.475
 3214SOL    HW221297   2.648   5.371   5.603
 3215SOL     OW21298   7.071   3.216   0.868
 3215SOL    HW121299   7.022   3.239   0.953
 3215SOL    HW221300   7.087   3.300   0.816
 3216SOL     OW21301   9.610   8.577   1.096
 3216SOL    HW121302   9.580   8.522   1.018
 3216SOL    HW221303   9.696   8.540   1.132
 3217SOL     OW21304   3.354   9.610   0.825
 3217SOL    HW121305   3.290   9.679   0.859
 3217SOL    HW221306   3.331   9.585   0.731
 3218SOL     OW21307   4.142   9.210   5.263
 3218SOL    HW121308   4.097   9.220   5.352
 3218SOL    HW221309   4.241   9.212   5.276
 3219SOL     OW21310   4.500   2.939   6.593
 3219SOL    HW121311   4.470   2.844   6.606
 3219SOL    HW221312   4.466   2.973   6.505
 3220SOL     OW21313   8.912   0.154   7.770
 3220SOL    HW121314   8.953   0.236   7.810
 3220SOL    HW221315   8.983   0.099   7.727
 3221SOL     OW21316   7.060   1.399   4.543
 3221SOL    HW121317   7.078   1.303   4.520
 3221SOL    HW221318   6.966   1.422   4.516
 3222SOL     OW21319   0.644   1.711   5.398
 3222SOL    HW121320   0.649   1.612   5.408
 3222SOL    HW221321   0.736   1.750   5.410
 3223SOL     OW21322   5.453   8.315   3.230
 3223SOL    HW121323   5.409   8.362   3.306
 3223SOL    HW221324   5.527   8.372   3.193
 3224SOL     OW21325   3.772   4.369   5.906
 3224SOL    HW121326   3.786   4.280   5.949
 3224SOL    HW221327   3.799   4.366   5.810
 3225SOL     OW21328   7.486   0.915   0.983
 3225SOL    HW121329   7.485   0.995   1.043
 3225SOL    HW221330   7.571   0.865   0.995
 3226SOL     OW21331   7.254   6.002   7.083
 3226SOL    HW121332   7.174   5.956   7.046
 3226SOL    HW221333   7.283   6.075   7.021
 3227SOL     OW21334   0.562   2.602   6.471
 3227SOL    HW121335   0.586   2.528   6.533
 3227SOL    HW221336   0.509   2.671   6.521
 3228SOL     OW21337   1.552   9.963   5.622
 3228SOL    HW121338   1.474   9.907   5.652
 3228SOL    HW221339   1.519   0.050   5.585
 3229SOL     OW21340   3.853   6.531   0.567
 3229SOL    HW121341   3.813   6.480   0.644
 3229SOL    HW221342   3.916   6.473   0.517
 3230SOL     OW21343   2.718   9.953   7.095
 3230SOL    HW121344   2.709   9.882   7.164
 3230SOL    HW221345   2.804   0.003   7.110
 3231SOL     OW21346   2.115   3.639   1.711
 3231SOL    HW121347   2.204   3.601   1.687
 3231SOL    HW221348   2.120   3.683   1.800
 3232SOL     OW21349   0.306   2.156   5.468
 3232SOL    HW121350   0.209   2.153   5.443
 3232SOL    HW221351   0.326   2.242   5.516
 3233SOL     OW21352   9.354   5.009   5.137
 3233SOL    HW121353   9.394   4.965   5.218
 3233SOL    HW221354   9.425   5.026   5.070
 3234SOL     OW21355   0.180   7.112   1.891
 3234SOL    HW121356   0.144   7.180   1.827
 3234SOL    HW221357   0.212   7.032   1.839
 3235SOL     OW21358   0.182   4.475   7.630
 3235SOL    HW121359   0.215   4.382   7.649
 3235SOL    HW221360   0.222   4.508   7.544
 3236SOL     OW21361   1.866   3.409   3.152
 3236SOL    HW121362   1.853   3.453   3.241
 3236SOL    HW221363   1.777   3.378   3.118
 3237SOL     OW21364   0.650   6.371   2.303
 3237SOL    HW121365   0.721   6.410   2.361
 3237SOL    HW221366   0.650   6.417   2.214
 3238SOL     OW21367   9.290   2.223   6.636
 3238SOL    HW121368   9.355   2.173   6.578
 3238SOL    HW221369   9.249   2.160   6.702
 3239SOL     OW21370   9.300   2.349   5.959
 3239SOL    HW121371   9.396   2.337   5.932
 3239SOL    HW221372   9.250   2.396   5.887
 3240SOL     OW21373   2.848   7.915   6.666
 3240SOL    HW121374   2.757   7.920   6.625
 3240SOL    HW221375   2.914   7.962   6.607
 3241SOL     OW21376   6.429   7.638   2.845
 3241SOL    HW121377   6.481   7.660   2.927
 3241SOL    HW221378   6.490   7.601   2.775
 3242SOL     OW21379   0.065   1.483   1.097
 3242SOL    HW121380   0.098   1.519   1.009
 3242SOL    HW221381   0.144   1.459   1.154
 3243SOL     OW21382   2.710   4.322   1.120
 3243SOL    HW121383   2.769   4.329   1.200
 3243SOL    HW221384   2.659   4.236   1.123
 3244SOL     OW21385   3.080   1.928   4.268
 3244SOL    HW121386   3.007   1.996   4.263
 3244SOL    HW221387   3.133   1.928   4.183
 3245SOL     OW21388   6.391   3.301   1.403
 3245SOL    HW121389   6.424   3.393   1.423
 3245SOL    HW221390   6.294   3.305   1.377
 3246SOL     OW21391   1.733   4.473   1.980
 3246SOL    HW121392   1.695   4.512   1.896
 3246SOL    HW221393   1.776   4.546   2.034
 3247SOL     OW21394   7.735   7.888   2.173
 3247SOL    HW121395   7.829   7.901   2.142
 3247SOL    HW221396   7.701   7.973   2.214
 3248SOL     OW21397   9.451   1.688   4.907
 3248SOL    HW121398   9.518   1.717   4.838
 3248SOL    HW221399   9.362   1.677   4.863
 3249SOL     OW21400   7.986   9.804   2.104
 3249SOL    HW121401   7.944   9.845   2.023
 3249SOL    HW221402   7.917   9.753   2.156
 3250SOL     OW21403   6.854   5.137   0.440
 3250SOL    HW121404   6.795   5.214   0.413
 3250SOL    HW221405   6.797   5.057   0.459
 3251SOL     OW21406   6.772   3.386   0.642
 3251SOL    HW121407   6.680   3.424   0.635
 3251SOL    HW221408   6.839   3.459   0.626
 3252SOL     OW21409   8.440   8.699   1.664
 3252SOL    HW121410   8.406   8.780   1.711
 3252SOL    HW221411   8.397   8.618   1.702
 3253SOL     OW21412   0.717   8.454   6.315
 3253SOL    HW121413   0.727   8.536   6.370
 3253SOL    HW221414   0.644   8.397   6.354
 3254SOL     OW21415   1.387   6.542   6.250
 3254SOL    HW121416   1.363   6.461   6.198
 3254SOL    HW221417   1.482   6.568   6.230
 3255SOL     OW21418   2.213   9.824   1.364
 3255SOL    HW121419   2.161   9.756   1.415
 3255SOL    HW221420   2.235   9.788   1.273
 3256SOL     OW21421   3.493   2.679   4.373
 3256SOL    HW121422   3.486   2.641   4.280
 3256SOL    HW221423   3.585   2.663   4.408
 3257SOL     OW21424   2.964   7.254   7.150
 3257SOL    HW121425   2.989   7.158   7.140
 3257SOL    HW221426   2.879   7.261   7.203
 3258SOL     OW21427   9.395   3.967   5.645
 3258SOL    HW121428   9.363   4.025   5.720
 3258SOL    HW221429   9.483   3.926   5.670
 3259SOL     OW21430   3.406   4.482   1.041
 3259SOL    HW121431   3.318   4.500   0.997
 3259SOL    HW221432   3.391   4.449   1.134
 3260SOL     OW21433   4.755   5.516   7.424
 3260SOL    HW121434   4.841   5.492   7.380
 3260SOL    HW221435   4.753   5.476   7.516
 3261SOL     OW21436   9.148   4.261   7.798
 3261SOL    HW121437   9.056   4.225   7.782
 3261SOL    HW221438   9.205   4.189   7.837
 3262SOL     OW21439   8.120   7.529   5.069
 3262SOL    HW121440   8.100   7.498   4.976
 3262SOL    HW221441   8.091   7.459   5.134
 3263SOL     OW21442   7.826   5.875   7.528
 3263SOL    HW121443   7.864   5.965   7.505
 3263SOL    HW221444   7.886   5.830   7.595
 3264SOL     OW21445   8.691   1.294   5.652
 3264SOL    HW121446   8.674   1.218   5.589
 3264SOL    HW221447   8.635   1.282   5.734
 3265SOL     OW21448   0.981   6.330   2.192
 3265SOL    HW121449   0.947   6.265   2.259
 3265SOL    HW221450   0.980   6.288   2.101
 3266SOL     OW21451   3.430   7.945   1.251
 3266SOL    HW121452   3.379   7.873   1.299
 3266SOL    HW221453   3.516   7.907   1.216
 3267SOL     OW21454   1.704   5.404   5.655
 3267SOL    HW121455   1.660   5.350   5.584
 3267SOL    HW221456   1.791   5.362   5.680
 3268SOL     OW21457   3.863   4.618   0.465
 3268SOL    HW121458   3.925   4.597   0.541
 3268SOL    HW221459   3.793   4.546   0.458
 3269SOL     OW21460   4.204   9.955   4.756
 3269SOL    HW121461   4.288   0.008   4.764
 3269SOL    HW221462   4.189   9.904   4.840
 3270SOL     OW21463   0.874   6.804   1.641
 3270SOL    HW121464   0.887   6.862   1.560
 3270SOL    HW221465   0.845   6.861   1.718
 3271SOL     OW21466   1.596   8.969   2.106
 3271SOL    HW121467   1.595   9.036   2.032
 3271SOL    HW221468   1.583   9.016   2.194
 3272SOL     OW21469   0.322   1.550   2.586
 3272SOL    HW121470   0.361   1.572   2.497
 3272SOL    HW221471   0.223   1.558   2.583
 3273SOL     OW21472   2.276   1.727   4.539
 3273SOL    HW121473   2.224   1.803   4.501
 3273SOL    HW221474   2.312   1.670   4.465
 3274SOL     OW21475   7.422   5.213   6.776
 3274SOL    HW121476   7.405   5.310   6.763
 3274SOL    HW221477   7.335   5.164   6.780
 3275SOL     OW21478   7.501   8.832   1.671
 3275SOL    HW121479   7.478   8.780   1.589
 3275SOL    HW221480   7.530   8.770   1.743
 3276SOL     OW21481   8.974   3.135   7.191
 3276SOL    HW121482   8.898   3.198   7.205
 3276SOL    HW221483   8.939   3.045   7.163
 3277SOL     OW21484   0.089   0.514   6.997
 3277SOL    HW121485   0.088   0.428   6.946
 3277SOL    HW221486   0.126   0.586   6.939
 3278SOL     OW21487   9.827   7.868   6.867
 3278SOL    HW121488   9.793   7.796   6.927
 3278SOL    HW221489   9.867   7.942   6.922
 3279SOL     OW21490   9.898   8.303   5.793
 3279SOL    HW121491   9.801   8.329   5.789
 3279SOL    HW221492   9.909   8.210   5.757
 3280SOL     OW21493   5.234   0.157   6.955
 3280SOL    HW121494   5.233   0.257   6.959
 3280SOL    HW221495   5.194   0.126   6.868
 3281SOL     OW21496   8.501   2.519   1.854
 3281SOL    HW121497   8.498   2.616   1.829
 3281SOL    HW221498   8.494   2.464   1.771
 3282SOL     OW21499   4.983   2.353   5.703
 3282SOL    HW121500   5.046   2.276   5.697
 3282SOL    HW221501   4.916   2.336   5.776
 3283SOL     OW21502   2.274   7.630   0.204
 3283SOL    HW121503   2.334   7.553   0.183
 3283SOL    HW221504   2.200   7.599   0.264
 3284SOL     OW21505   4.861   2.815   0.845
 3284SOL    HW121506   4.833   2.743   0.780
 3284SOL    HW221507   4.881   2.773   0.934
 3285SOL     OW21508   0.338   6.088   3.058
 3285SOL    HW121509   0.353   6.104   2.960
 3285SOL    HW221510   0.425   6.097   3.106
 3286SOL     OW21511   0.813   7.975   6.088
 3286SOL    HW121512   0.828   8.062   6.135
 3286SOL    HW221513   0.861   7.902   6.136
 3287SOL     OW21514   3.828   8.235   2.968
 3287SOL    HW121515   3.798   8.330   2.981
 3287SOL    HW221516   3.918   8.223   3.009
 3288SOL     OW21517   9.621   1.538   7.744
 3288SOL    HW121518   9.632   1.460   7.807
 3288SOL    HW221519   9.524   1.562   7.739
 3289SOL     OW21520   4.922   0.219   1.598
 3289SOL    HW121521   5.021   0.209   1.585
 3289SOL    HW221522   4.877   0.217   1.509
 3290SOL     OW21523   6.664   5.308   6.933
 3290SOL    HW121524   6.725   5.287   6.857
 3290SOL    HW221525   6.573   5.329   6.898
 3291SOL     OW21526   0.072   4.166   1.642
 3291SOL    HW121527   0.154   4.147   1.696
 3291SOL    HW221528   0.098   4.193   1.549
 3292SOL     OW21529   4.207   2.529   6.728
 3292SOL    HW121530   4.183   2.578   6.812
 3292SOL    HW221531   4.272   2.583   6.674
 3293SOL     OW21532   3.917   1.948   4.761
 3293SOL    HW121533   3.836   1.890   4.756
 3293SOL    HW221534   3.926   1.987   4.853
 3294SOL     OW21535   2.071   9.096   6.799
 3294SOL    HW121536   1.993   9.120   6.856
 3294SOL    HW221537   2.105   9.006   6.825
 3295SOL     OW21538   8.254   7.149   5.670
 3295SOL    HW121539   8.289   7.235   5.632
 3295SOL    HW221540   8.321   7.111   5.733
 3296SOL     OW21541   3.073   1.670   3.952
 3296SOL    HW121542   3.102   1.590   4.005
 3296SOL    HW221543   3.134   1.683   3.874
 3297SOL     OW21544   4.381   7.879   3.905
 3297SOL    HW121545   4.448   7.944   3.868
 3297SOL    HW221546   4.427   7.794   3.928
 3298SOL     OW21547   9.264   7.355   6.792
 3298SOL    HW121548   9.301   7.415   6.863
 3298SOL    HW221549   9.255   7.262   6.829
 3299SOL     OW21550   3.433   4.380   7.314
 3299SOL    HW121551   3.505   4.399   7.381
 3299SOL    HW221552   3.475   4.363   7.225
 3300SOL     OW21553   5.190   2.161   5.698
 3300SOL    HW121554   5.249   2.233   5.735
 3300SOL    HW221555   5.209   2.076   5.746
 3301SOL     OW21556   6.732   2.110   2.650
 3301SOL    HW121557   6.656   2.140   2.591
 3301SOL    HW221558   6.695   2.071   2.734
 3302SOL     OW21559   7.217   9.235   7.228
 3302SOL    HW121560   7.316   9.222   7.232
 3302SOL    HW221561   7.172   9.147   7.214
 3303SOL     OW21562   2.805   4.338   5.720
 3303SOL    HW121563   2.851   4.404   5.778
 3303SOL    HW221564   2.870   4.299   5.655
 3304SOL     OW21565   8.809   4.140   0.242
 3304SOL    HW121566   8.900   4.182   0.246
 3304SOL    HW221567   8.787   4.101   0.331
 3305SOL     OW21568   9.736   4.709   2.175
 3305SOL    HW121569   9.827   4.676   2.151
 3305SOL    HW221570   9.677   4.631   2.195
 3306SOL     OW21571   6.049   8.687   5.797
 3306SOL    HW121572   6.022   8.599   5.759
 3306SOL    HW221573   6.137   8.678   5.842
 3307SOL     OW21574   4.379   6.105   3.549
 3307SOL    HW121575   4.477   6.125   3.546
 3307SOL    HW221576   4.328   6.190   3.541
 3308SOL     OW21577   3.609   9.564   3.043
 3308SOL    HW121578   3.524   9.565   2.990
 3308SOL    HW221579   3.670   9.636   3.010
 3309SOL     OW21580   1.655   6.744   2.306
 3309SOL    HW121581   1.621   6.754   2.400
 3309SOL    HW221582   1.755   6.744   2.306
 3310SOL     OW21583   5.203   2.877   6.583
 3310SOL    HW121584   5.215   2.840   6.491
 3310SOL    HW221585   5.274   2.944   6.602
 3311SOL     OW21586   0.764   2.244   3.784
 3311SOL    HW121587   0.815   2.262   3.868
 3311SOL    HW221588   0.797   2.303   3.710
 3312SOL     OW21589   3.512   5.048   1.585
 3312SOL    HW121590   3.595   5.104   1.581
 3312SOL    HW221591   3.529   4.967   1.642
 3313SOL     OW21592   7.231   7.979   6.127
 3313SOL    HW121593   7.212   8.043   6.053
 3313SOL    HW221594   7.196   7.888   6.104
 3314SOL     OW21595   9.794   0.793   1.299
 3314SOL    HW121596   9.767   0.740   1.219
 3314SOL    HW221597   9.887   0.768   1.326
 3315SOL     OW21598   7.205   0.240   7.512
 3315SOL    HW121599   7.285   0.181   7.520
 3315SOL    HW221600   7.171   0.238   7.418
 3316SOL     OW21601   9.972   1.360   2.159
 3316SOL    HW121602   9.992   1.347   2.256
 3316SOL    HW221603   0.050   1.328   2.105
 3317SOL     OW21604   4.178   5.936   1.582
 3317SOL    HW121605   4.098   5.911   1.637
 3317SOL    HW221606   4.198   5.862   1.518
 3318SOL     OW21607   9.982   2.680   4.130
 3318SOL    HW121608   0.000   2.749   4.061
 3318SOL    HW221609   9.894   2.698   4.173
 3319SOL     OW21610   9.622   8.330   3.665
 3319SOL    HW121611   9.655   8.275   3.588
 3319SOL    HW221612   9.642   8.283   3.751
 3320SOL     OW21613   4.477   7.633   4.004
 3320SOL    HW121614   4.441   7.626   4.097
 3320SOL    HW221615   4.571   7.599   4.002
 3321SOL     OW21616   4.245   0.386   2.448
 3321SOL    HW121617   4.161   0.419   2.490
 3321SOL    HW221618   4.223   0.321   2.375
 3322SOL     OW21619   6.593   2.649   2.398
 3322SOL    HW121620   6.615   2.565   2.447
 3322SOL    HW221621   6.678   2.698   2.377
 3323SOL     OW21622   1.864   2.038   0.349
 3323SOL    HW121623   1.964   2.040   0.351
 3323SOL    HW221624   1.834   1.945   0.328
 3324SOL     OW21625   3.573   9.154   4.841
 3324SOL    HW121626   3.593   9.232   4.901
 3324SOL    HW221627   3.593   9.179   4.746
 3325SOL     OW21628   7.923   7.708   1.944
 3325SOL    HW121629   7.971   7.650   1.877
 3325SOL    HW221630   7.890   7.651   2.019
 3326SOL     OW21631   2.714   2.000   5.921
 3326SOL    HW121632   2.659   1.959   5.993
 3326SOL    HW221633   2.678   1.973   5.831
 3327SOL     OW21634   9.992   2.888   1.225
 3327SOL    HW121635   9.932   2.851   1.296
 3327SOL    HW221636   0.074   2.926   1.268
 3328SOL     OW21637   2.796   5.109   7.871
 3328SOL    HW121638   2.719   5.153   7.825
 3328SOL    HW221639   2.801   5.013   7.843
 3329SOL     OW21640   7.577   9.812   6.764
 3329SOL    HW121641   7.581   9.838   6.860
 3329SOL    HW221642   7.534   9.722   6.756
 3330SOL     OW21643   3.127   3.670   4.317
 3330SOL    HW121644   3.096   3.602   4.384
 3330SOL    HW221645   3.170   3.624   4.240
 3331SOL     OW21646   3.677   5.327   6.137
 3331SOL    HW121647   3.669   5.411   6.085
 3331SOL    HW221648   3.725   5.258   6.083
 3332SOL     OW21649   3.524   8.688   6.104
 3332SOL    HW121650   3.447   8.739   6.143
 3332SOL    HW221651   3.545   8.610   6.162
 3333SOL     OW21652   5.170   1.961   7.283
 3333SOL    HW121653   5.241   1.961   7.354
 3333SOL    HW221654   5.211   1.937   7.195
 3334SOL     OW21655   9.813   4.793   1.526
 3334SOL    HW121656   9.896   4.736   1.524
 3334SOL    HW221657   9.754   4.768   1.449
 3335SOL     OW21658   0.909   9.812   2.389
 3335SOL    HW121659   0.816   9.776   2.388
 3335SOL    HW221660   0.939   9.829   2.294
 3336SOL     OW21661   3.129   2.075   1.731
 3336SOL    HW121662   3.223   2.080   1.767
 3336SOL    HW221663   3.091   2.167   1.723
 3337SOL     OW21664   2.575   6.773   6.875
 3337SOL    HW121665   2.635   6.800   6.800
 3337SOL    HW221666   2.619   6.703   6.930
 3338SOL     OW21667   2.484   6.300   4.729
 3338SOL    HW121668   2.491   6.206   4.762
 3338SOL    HW221669   2.415   6.349   4.782
 3339SOL     OW21670   8.718   5.581   0.123
 3339SOL    HW121671   8.731   5.634   0.039
 3339SOL    HW221672   8.736   5.639   0.202
 3340SOL     OW21673   6.659   2.791   2.912
 3340SOL    HW121674   6.672   2.692   2.924
 3340SOL    HW221675   6.718   2.823   2.837
 3341SOL     OW21676   3.577   4.041   6.123
 3341SOL    HW121677   3.545   4.120   6.071
 3341SOL    HW221678   3.616   3.974   6.061
 3342SOL     OW21679   4.237   9.688   0.360
 3342SOL    HW121680   4.149   9.728   0.384
 3342SOL    HW221681   4.279   9.649   0.442
 3343SOL     OW21682   9.521   8.348   7.156
 3343SOL    HW121683   9.474   8.405   7.224
 3343SOL    HW221684   9.598   8.302   7.199
 3344SOL     OW21685   1.182   2.248   6.869
 3344SOL    HW121686   1.184   2.295   6.781
 3344SOL    HW221687   1.163   2.314   6.941
 3345SOL     OW21688   1.539   5.079   5.735
 3345SOL    HW121689   1.519   4.998   5.680
 3345SOL    HW221690   1.554   5.157   5.675
 3346SOL     OW21691   9.267   1.666   1.553
 3346SOL    HW121692   9.214   1.700   1.475
 3346SOL    HW221693   9.302   1.744   1.605
 3347SOL     OW21694   2.307   0.630   4.632
 3347SOL    HW121695   2.291   0.578   4.716
 3347SOL    HW221696   2.336   0.723   4.655
 3348SOL     OW21697   9.478   9.313   2.695
 3348SOL    HW121698   9.485   9.315   2.595
 3348SOL    HW221699   9.394   9.360   2.723
 3349SOL     OW21700   1.098   0.442   4.681
 3349SOL    HW121701   1.068   0.392   4.762
 3349SOL    HW221702   1.020   0.463   4.623
 3350SOL     OW21703   0.258   7.402   3.373
 3350SOL    HW121704   0.167   7.364   3.388
 3350SOL    HW221705   0.326   7.346   3.419
 3351SOL     OW21706   1.827   2.755   0.543
 3351SOL    HW121707   1.918   2.791   0.525
 3351SOL    HW221708   1.779   2.740   0.457
 3352SOL     OW21709   2.546   6.826   5.485
 3352SOL    HW121710   2.552   6.861   5.579
 3352SOL    HW221711   2.638   6.821   5.446
 3353SOL     OW21712   0.305   7.768   6.415
 3353SOL    HW121713   0.229   7.818   6.372
 3353SOL    HW221714   0.391   7.812   6.390
 3354SOL     OW21715   4.336   6.651   4.533
 3354SOL    HW121716   4.405   6.586   4.501
 3354SOL    HW221717   4.291   6.693   4.454
 3355SOL     OW21718   0.598   3.741   4.887
 3355SOL    HW121719   0.500   3.755   4.877
 3355SOL    HW221720   0.615   3.652   4.930
 3356SOL     OW21721   4.717   8.328   3.660
 3356SOL    HW121722   4.743   8.385   3.583
 3356SOL    HW221723   4.784   8.336   3.733
 3357SOL     OW21724   0.024   5.958   7.069
 3357SOL    HW121725   0.016   5.868   7.112
 3357SOL    HW221726   9.932   5.997   7.056
 3358SOL     OW21727   5.544   9.974   4.561
 3358SOL    HW121728   5.587   9.896   4.516
 3358SOL    HW221729   5.567   9.974   4.658
 3359SOL     OW21730   1.618   0.999   7.635
 3359SOL    HW121731   1.601   0.995   7.733
 3359SOL    HW221732   1.552   0.941   7.587
 3360SOL     OW21733   1.862   9.250   1.950
 3360SOL    HW121734   1.913   9.291   1.875
 3360SOL    HW221735   1.771   9.224   1.918
 3361SOL     OW21736   1.594   0.532   1.538
 3361SOL    HW121737   1.544   0.604   1.586
 3361SOL    HW221738   1.691   0.538   1.562
 3362SOL     OW21739   9.649   6.967   2.860
 3362SOL    HW121740   9.556   6.932   2.867
 3362SOL    HW221741   9.713   6.890   2.853
 3363SOL     OW21742   0.013   9.921   6.995
 3363SOL    HW121743   0.088   9.865   6.960
 3363SOL    HW221744   9.961   9.959   6.919
 3364SOL     OW21745   9.285   6.399   1.493
 3364SOL    HW121746   9.261   6.390   1.397
 3364SOL    HW221747   9.299   6.308   1.532
 3365SOL     OW21748   9.085   5.396   1.639
 3365SOL    HW121749   9.088   5.404   1.739
 3365SOL    HW221750   9.069   5.301   1.613
 3366SOL     OW21751   3.350   4.466   0.647
 3366SOL    HW121752   3.348   4.520   0.562
 3366SOL    HW221753   3.319   4.373   0.627
 3367SOL     OW21754   1.648   3.221   2.224
 3367SOL    HW121755   1.737   3.207   2.268
 3367SOL    HW221756   1.651   3.185   2.131
 3368SOL     OW21757   5.061   8.533   4.772
 3368SOL    HW121758   5.152   8.496   4.751
 3368SOL    HW221759   5.036   8.600   4.703
 3369SOL     OW21760   3.066   7.155   4.777
 3369SOL    HW121761   2.989   7.190   4.831
 3369SOL    HW221762   3.093   7.065   4.812
 3370SOL     OW21763   6.319   2.030   2.938
 3370SOL    HW121764   6.272   2.056   3.022
 3370SOL    HW221765   6.325   1.930   2.933
 3371SOL     OW21766   9.717   8.246   7.333
 3371SOL    HW121767   9.748   8.151   7.333
 3371SOL    HW221768   9.796   8.307   7.341
 3372SOL     OW21769   4.323   0.632   2.753
 3372SOL    HW121770   4.236   0.585   2.769
 3372SOL    HW221771   4.343   0.634   2.655
 3373SOL     OW21772   2.381   1.939   3.602
 3373SOL    HW121773   2.465   1.889   3.623
 3373SOL    HW221774   2.303   1.886   3.634
 3374SOL     OW21775   0.969   0.536   2.634
 3374SOL    HW121776   0.929   0.559   2.545
 3374SOL    HW221777   0.945   0.442   2.658
 3375SOL     OW21778   3.848   9.966   6.362
 3375SOL    HW121779   3.833   0.061   6.389
 3375SOL    HW221780   3.943   9.953   6.335
 3376SOL     OW21781   7.644   3.740   3.266
 3376SOL    HW121782   7.578   3.702   3.201
 3376SOL    HW221783   7.719   3.675   3.278
 3377SOL     OW21784   9.345   8.836   2.029
 3377SOL    HW121785   9.352   8.789   1.941
 3377SOL    HW221786   9.414   8.908   2.033
 3378SOL     OW21787   3.697   7.843   2.985
 3378SOL    HW121788   3.703   7.914   2.915
 3378SOL    HW221789   3.602   7.835   3.016
 3379SOL     OW21790   0.769   8.326   3.913
 3379SOL    HW121791   0.773   8.411   3.965
 3379SOL    HW221792   0.862   8.289   3.902
 3380SOL     OW21793   7.842   9.486   7.476
 3380SOL    HW121794   7.859   9.576   7.517
 3380SOL    HW221795   7.800   9.426   7.543
 3381SOL     OW21796   6.267   2.592   0.585
 3381SOL    HW121797   6.176   2.552   0.576
 3381SOL    HW221798   6.293   2.635   0.499
 3382SOL     OW21799   7.406   3.339   0.737
 3382SOL    HW121800   7.384   3.307   0.645
 3382SOL    HW221801   7.451   3.265   0.788
 3383SOL     OW21802   7.276   5.363   1.128
 3383SOL    HW121803   7.273   5.356   1.228
 3383SOL    HW221804   7.276   5.272   1.088
 3384SOL     OW21805   2.256   7.375   1.096
 3384SOL    HW121806   2.163   7.395   1.066
 3384SOL    HW221807   2.278   7.429   1.177
 3385SOL     OW21808   4.306   6.411   2.960
 3385SOL    HW121809   4.334   6.355   3.039
 3385SOL    HW221810   4.272   6.500   2.993
 3386SOL     OW21811   0.368   6.757   6.079
 3386SOL    HW121812   0.335   6.714   6.163
 3386SOL    HW221813   0.401   6.849   6.100
 3387SOL     OW21814   1.521   2.215   1.735
 3387SOL    HW121815   1.604   2.180   1.692
 3387SOL    HW221816   1.545   2.287   1.801
 3388SOL     OW21817   6.469   7.278   3.689
 3388SOL    HW121818   6.425   7.266   3.778
 3388SOL    HW221819   6.401   7.307   3.622
 3389SOL     OW21820   2.697   9.447   4.716
 3389SOL    HW121821   2.647   9.471   4.633
 3389SOL    HW221822   2.782   9.401   4.692
 3390SOL     OW21823   0.915   1.891   4.416
 3390SOL    HW121824   0.836   1.949   4.397
 3390SOL    HW221825   0.891   1.795   4.401
 3391SOL     OW21826   1.787   4.541   7.321
 3391SOL    HW121827   1.745   4.482   7.390
 3391SOL    HW221828   1.720   4.609   7.291
 3392SOL     OW21829   1.624   5.773   0.607
 3392SOL    HW121830   1.559   5.762   0.531
 3392SOL    HW221831   1.604   5.705   0.677
 3393SOL     OW21832   5.155   6.980   2.316
 3393SOL    HW121833   5.240   7.030   2.303
 3393SOL    HW221834   5.167   6.885   2.287
 3394SOL     OW21835   4.163   0.729   1.251
 3394SOL    HW121836   4.254   0.687   1.247
 3394SOL    HW221837   4.128   0.724   1.344
 3395SOL     OW21838   5.870   9.323   6.746
 3395SOL    HW121839   5.870   9.339   6.845
 3395SOL    HW221840   5.790   9.267   6.722
 3396SOL     OW21841   5.052   2.611   4.855
 3396SOL    HW121842   5.071   2.534   4.794
 3396SOL    HW221843   4.972   2.591   4.911
 3397SOL     OW21844   0.887   9.340   2.510
 3397SOL    HW121845   0.965   9.324   2.571
 3397SOL    HW221846   0.920   9.348   2.416
 3398SOL     OW21847   7.645   5.901   2.681
 3398SOL    HW121848   7.687   5.987   2.652
 3398SOL    HW221849   7.681   5.874   2.770
 3399SOL     OW21850   4.615   3.519   1.298
 3399SOL    HW121851   4.521   3.541   1.270
 3399SOL    HW221852   4.664   3.478   1.221
 3400SOL     OW21853   5.558   8.946   6.881
 3400SOL    HW121854   5.556   8.851   6.849
 3400SOL    HW221855   5.464   8.980   6.892
 3401SOL     OW21856   6.211   2.002   3.403
 3401SOL    HW121857   6.244   1.908   3.409
 3401SOL    HW221858   6.210   2.043   3.494
 3402SOL     OW21859   2.249   4.428   7.650
 3402SOL    HW121860   2.272   4.338   7.686
 3402SOL    HW221861   2.201   4.419   7.563
 3403SOL     OW21862   1.288   1.828   0.595
 3403SOL    HW121863   1.190   1.813   0.605
 3403SOL    HW221864   1.330   1.747   0.554
 3404SOL     OW21865   9.483   8.951   3.723
 3404SOL    HW121866   9.402   8.992   3.682
 3404SOL    HW221867   9.473   8.949   3.823
 3405SOL     OW21868   1.428   4.591   0.145
 3405SOL    HW121869   1.373   4.636   0.074
 3405SOL    HW221870   1.371   4.577   0.226
 3406SOL     OW21871   3.133   2.313   0.342
 3406SOL    HW121872   3.197   2.321   0.266
 3406SOL    HW221873   3.087   2.223   0.338
 3407SOL     OW21874   0.222   5.838   6.781
 3407SOL    HW121875   0.290   5.859   6.711
 3407SOL    HW221876   0.202   5.921   6.833
 3408SOL     OW21877   4.858   0.585   3.216
 3408SOL    HW121878   4.832   0.631   3.301
 3408SOL    HW221879   4.928   0.517   3.235
 3409SOL     OW21880   2.026   2.764   3.533
 3409SOL    HW121881   1.969   2.833   3.579
 3409SOL    HW221882   2.059   2.698   3.600
 3410SOL     OW21883   3.833   9.468   7.725
 3410SOL    HW121884   3.771   9.468   7.646
 3410SOL    HW221885   3.924   9.497   7.695
 3411SOL     OW21886   7.910   1.912   0.547
 3411SOL    HW121887   7.922   1.816   0.521
 3411SOL    HW221888   7.912   1.919   0.647
 3412SOL     OW21889   0.757   5.568   2.081
 3412SOL    HW121890   0.676   5.612   2.044
 3412SOL    HW221891   0.739   5.471   2.095
 3413SOL     OW21892   1.072   4.470   1.225
 3413SOL    HW121893   1.154   4.519   1.255
 3413SOL    HW221894   1.074   4.377   1.261
 3414SOL     OW21895   8.569   6.007   0.558
 3414SOL    HW121896   8.515   6.082   0.597
 3414SOL    HW221897   8.666   6.032   0.559
 3415SOL     OW21898   8.251   7.503   1.992
 3415SOL    HW121899   8.178   7.515   1.925
 3415SOL    HW221900   8.337   7.539   1.954
 3416SOL     OW21901   9.739   3.813   7.277
 3416SOL    HW121902   9.799   3.825   7.355
 3416SOL    HW221903   9.653   3.772   7.307
 3417SOL     OW21904   7.261   1.547   3.238
 3417SOL    HW121905   7.179   1.604   3.238
 3417SOL    HW221906   7.317   1.569   3.158
 3418SOL     OW21907   8.229   6.311   2.674
 3418SOL    HW121908   8.160   6.379   2.650
 3418SOL    HW221909   8.285   6.346   2.750
 3419SOL     OW21910   3.558   6.640   6.870
 3419SOL    HW121911   3.523   6.612   6.959
 3419SOL    HW221912   3.623   6.715   6.882
 3420SOL     OW21913   0.245   3.249   3.553
 3420SOL    HW121914   0.331   3.236   3.503
 3420SOL    HW221915   0.264   3.287   3.644
 3421SOL     OW21916   7.523   4.868   3.836
 3421SOL    HW121917   7.548   4.897   3.928
 3421SOL    HW221918   7.497   4.771   3.838
 3422SOL     OW21919   9.425   2.655   1.466
 3422SOL    HW121920   9.456   2.612   1.551
 3422SOL    HW221921   9.329   2.680   1.474
 3423SOL     OW21922   4.546   0.726   0.409
 3423SOL    HW121923   4.501   0.739   0.321
 3423SOL    HW221924   4.487   0.762   0.482
 3424SOL     OW21925   8.125   0.999   2.994
 3424SOL    HW121926   8.104   0.939   3.071
 3424SOL    HW221927   8.119   1.095   3.024
 3425SOL     OW21928   3.079   4.434   1.263
 3425SOL    HW121929   3.108   4.388   1.179
 3425SOL    HW221930   3.007   4.380   1.306
 3426SOL     OW21931   9.468   9.202   0.662
 3426SOL    HW121932   9.550   9.157   0.698
 3426SOL    HW221933   9.489   9.297   0.639
 3427SOL     OW21934   9.906   8.841   2.154
 3427SOL    HW121935   9.864   8.929   2.173
 3427SOL    HW221936   9.835   8.772   2.144
 3428SOL     OW21937   0.647   0.088   1.967
 3428SOL    HW121938   0.718   0.124   2.028
 3428SOL    HW221939   0.586   0.162   1.940
 3429SOL     OW21940   4.102   1.830   5.673
 3429SOL    HW121941   4.116   1.761   5.601
 3429SOL    HW221942   4.190   1.874   5.693
 3430SOL     OW21943   5.163   6.105   0.754
 3430SOL    HW121944   5.164   6.180   0.820
 3430SOL    HW221945   5.242   6.113   0.692
 3431SOL     OW21946   0.313   8.833   7.309
 3431SOL    HW121947   0.322   8.737   7.335
 3431SOL    HW221948   0.316   8.890   7.391
 3432SOL     OW21949   1.991   3.852   1.026
 3432SOL    HW121950   1.908   3.908   1.023
 3432SOL    HW221951   2.035   3.863   1.115
 3433SOL     OW21952   8.527   1.155   2.809
 3433SOL    HW121953   8.565   1.204   2.730
 3433SOL    HW221954   8.479   1.220   2.867
 3434SOL     OW21955   2.980   9.972   5.041
 3434SOL    HW121956   2.886   9.980   5.008
 3434SOL    HW221957   3.004   0.054   5.093
 3435SOL     OW21958   2.409   6.284   5.342
 3435SOL    HW121959   2.503   6.315   5.326
 3435SOL    HW221960   2.363   6.348   5.404
 3436SOL     OW21961   6.978   8.669   4.317
 3436SOL    HW121962   6.983   8.674   4.217
 3436SOL    HW221963   6.932   8.585   4.344
 3437SOL     OW21964   4.649   5.607   4.556
 3437SOL    HW121965   4.561   5.650   4.576
 3437SOL    HW221966   4.699   5.591   4.641
 3438SOL     OW21967   1.571   5.094   0.881
 3438SOL    HW121968   1.596   5.044   0.798
 3438SOL    HW221969   1.580   5.034   0.960
 3439SOL     OW21970   3.352   6.939   3.227
 3439SOL    HW121971   3.437   6.987   3.208
 3439SOL    HW221972   3.354   6.849   3.183
 3440SOL     OW21973   7.743   4.586   2.558
 3440SOL    HW121974   7.781   4.636   2.636
 3440SOL    HW221975   7.811   4.521   2.524
 3441SOL     OW21976   0.751   0.148   0.487
 3441SOL    HW121977   0.838   0.197   0.486
 3441SOL    HW221978   0.676   0.213   0.503
 3442SOL     OW21979   6.050   9.772   1.599
 3442SOL    HW121980   5.968   9.719   1.621
 3442SOL    HW221981   6.067   9.839   1.672
 3443SOL     OW21982   7.994   8.992   4.284
 3443SOL    HW121983   8.006   8.941   4.370
 3443SOL    HW221984   7.967   8.929   4.212
 3444SOL     OW21985   4.854   5.287   0.083
 3444SOL    HW121986   4.934   5.311   0.137
 3444SOL    HW221987   4.877   5.288  10.067
 3445SOL     OW21988   0.852   5.711   3.460
 3445SOL    HW121989   0.874   5.672   3.370
 3445SOL    HW221990   0.869   5.809   3.459
 3446SOL     OW21991   6.486   0.990   5.746
 3446SOL    HW121992   6.404   0.956   5.701
 3446SOL    HW221993   6.465   1.075   5.794
 3447SOL     OW21994   3.668   9.447   6.297
 3447SOL    HW121995   3.709   9.402   6.218
 3447SOL    HW221996   3.586   9.496   6.269
 3448SOL     OW21997   0.853   0.036   3.986
 3448SOL    HW121998   0.926   0.025   4.054
 3448SOL    HW221999   0.862   0.125   3.941
 3449SOL     OW22000   0.219   7.229   0.967
 3449SOL    HW122001   0.311   7.265   0.982
 3449SOL    HW222002   0.212   7.137   1.007
 3450SOL     OW22003   7.391   5.269   2.435
 3450SOL    HW122004   7.357   5.317   2.354
 3450SOL    HW222005   7.429   5.180   2.407
 3451SOL     OW22006   5.324   8.727   6.966
 3451SOL    HW122007   5.409   8.715   6.916
 3451SOL    HW222008   5.343   8.729   7.064
 3452SOL     OW22009   0.370   0.539   7.336
 3452SOL    HW122010   0.284   0.499   7.305
 3452SOL    HW222011   0.364   0.560   7.433
 3453SOL     OW22012   9.122   0.307   1.819
 3453SOL    HW122013   9.137   0.406   1.824
 3453SOL    HW222014   9.154   0.264   1.903
 3454SOL     OW22015   1.117   1.744   1.815
 3454SOL    HW122016   1.070   1.783   1.736
 3454SOL    HW222017   1.208   1.712   1.788
 3455SOL     OW22018   6.253   2.634   2.952
 3455SOL    HW122019   6.293   2.716   2.910
 3455SOL    HW222020   6.202   2.661   3.034
 3456SOL     OW22021   4.449   4.619   2.322
 3456SOL    HW122022   4.393   4.699   2.343
 3456SOL    HW222023   4.468   4.569   2.406
 3457SOL     OW22024   4.753   9.338   5.323
 3457SOL    HW122025   4.710   9.321   5.412
 3457SOL    HW222026   4.794   9.253   5.289
 3458SOL     OW22027   2.483   3.482   6.764
 3458SOL    HW122028   2.388   3.509   6.752
 3458SOL    HW222029   2.505   3.409   6.699
 3459SOL     OW22030   8.126   6.334   7.739
 3459SOL    HW122031   8.048   6.276   7.763
 3459SOL    HW222032   8.211   6.282   7.748
 3460SOL     OW22033   7.940   2.663   5.357
 3460SOL    HW122034   8.014   2.701   5.300
 3460SOL    HW222035   7.854   2.667   5.306
 3461SOL     OW22036   9.839   5.310   0.080
 3461SOL    HW122037   9.916   5.251   0.057
 3461SOL    HW222038   9.872   5.402   0.103
 3462SOL     OW22039   3.091   0.469   7.739
 3462SOL    HW122040   3.027   0.494   7.667
 3462SOL    HW222041   3.119   0.373   7.727
 3463SOL     OW22042   0.626   1.727   6.389
 3463SOL    HW122043   0.639   1.713   6.487
 3463SOL    HW222044   0.612   1.824   6.370
 3464SOL     OW22045   2.319   7.882   7.523
 3464SOL    HW122046   2.351   7.963   7.573
 3464SOL    HW222047   2.225   7.861   7.550
 3465SOL     OW22048   9.643   5.707   4.741
 3465SOL    HW122049   9.625   5.641   4.814
 3465SOL    HW222050   9.635   5.662   4.652
 3466SOL     OW22051   9.416   9.817   2.143
 3466SOL    HW122052   9.368   9.869   2.072
 3466SOL    HW222053   9.349   9.774   2.204
 3467SOL     OW22054   2.460   6.267   0.109
 3467SOL    HW122055   2.516   6.228   0.035
 3467SOL    HW222056   2.496   6.236   0.197
 3468SOL     OW22057   5.489   9.316   2.155
 3468SOL    HW122058   5.503   9.290   2.250
 3468SOL    HW222059   5.448   9.407   2.150
 3469SOL     OW22060   9.150   5.693   3.574
 3469SOL    HW122061   9.184   5.712   3.666
 3469SOL    HW222062   9.050   5.689   3.576
 3470SOL     OW22063   8.846   3.318   2.190
 3470SOL    HW122064   8.907   3.343   2.115
 3470SOL    HW222065   8.751   3.333   2.162
 3471SOL     OW22066   2.606   9.316   7.324
 3471SOL    HW122067   2.555   9.274   7.249
 3471SOL    HW222068   2.629   9.245   7.392
 3472SOL     OW22069   3.450   7.730   1.930
 3472SOL    HW122070   3.457   7.772   1.839
 3472SOL    HW222071   3.425   7.634   1.921
 3473SOL     OW22072   1.734   7.444   0.931
 3473SOL    HW122073   1.720   7.348   0.953
 3473SOL    HW222074   1.672   7.471   0.858
 3474SOL     OW22075   3.799   7.084   2.240
 3474SOL    HW122076   3.884   7.043   2.272
 3474SOL    HW222077   3.801   7.091   2.140
 3475SOL     OW22078   8.309   0.831   4.338
 3475SOL    HW122079   8.279   0.881   4.419
 3475SOL    HW222080   8.407   0.847   4.323
 3476SOL     OW22081   0.306   5.719   3.424
 3476SOL    HW122082   0.245   5.738   3.501
 3476SOL    HW222083   0.269   5.761   3.341
 3477SOL     OW22084   2.994   5.318   4.673
 3477SOL    HW122085   2.925   5.280   4.611
 3477SOL    HW222086   2.985   5.418   4.675
 3478SOL     OW22087   0.767   6.215   6.380
 3478SOL    HW122088   0.728   6.271   6.306
 3478SOL    HW222089   0.761   6.119   6.356
 3479SOL     OW22090   8.125   2.783   5.192
 3479SOL    HW122091   8.067   2.843   5.137
 3479SOL    HW222092   8.189   2.838   5.245
 3480SOL     OW22093   4.055   3.129   3.701
 3480SOL    HW122094   4.048   3.110   3.603
 3480SOL    HW222095   3.964   3.143   3.739
 3481SOL     OW22096   2.270   0.738   1.811
 3481SOL    HW122097   2.171   0.752   1.807
 3481SOL    HW222098   2.298   0.724   1.906
 3482SOL     OW22099   4.726   9.737   4.770
 3482SOL    HW122100   4.808   9.759   4.824
 3482SOL    HW222101   4.692   9.647   4.797
 3483SOL     OW22102   1.641   8.336   3.891
 3483SOL    HW122103   1.602   8.252   3.853
 3483SOL    HW222104   1.673   8.394   3.816
 3484SOL     OW22105   8.030   8.347   7.110
 3484SOL    HW122106   8.086   8.266   7.125
 3484SOL    HW222107   8.087   8.420   7.072
 3485SOL     OW22108   8.352   1.109   6.519
 3485SOL    HW122109   8.331   1.207   6.518
 3485SOL    HW222110   8.277   1.060   6.564
 3486SOL     OW22111   7.457   0.683   1.263
 3486SOL    HW122112   7.360   0.670   1.283
 3486SOL    HW222113   7.492   0.759   1.318
 3487SOL     OW22114   5.275   9.106   4.370
 3487SOL    HW122115   5.207   9.054   4.319
 3487SOL    HW222116   5.232   9.188   4.410
 3488SOL     OW22117   5.359   9.534   2.885
 3488SOL    HW122118   5.392   9.445   2.917
 3488SOL    HW222119   5.350   9.596   2.963
 3489SOL     OW22120   0.059   9.294   1.763
 3489SOL    HW122121   0.080   9.390   1.747
 3489SOL    HW222122   0.111   9.261   1.841
 3490SOL     OW22123   0.764   4.375   0.839
 3490SOL    HW122124   0.856   4.384   0.876
 3490SOL    HW222125   0.767   4.325   0.753
 3491SOL     OW22126   4.351   8.467   2.130
 3491SOL    HW122127   4.252   8.474   2.141
 3491SOL    HW222128   4.392   8.557   2.148
 3492SOL     OW22129   0.166   9.860   0.791
 3492SOL    HW122130   0.184   9.764   0.815
 3492SOL    HW222131   0.140   9.911   0.872
 3493SOL     OW22132   0.708   5.424   5.610
 3493SOL    HW122133   0.762   5.417   5.694
 3493SOL    HW222134   0.756   5.483   5.545
 3494SOL     OW22135   7.758   1.285   0.753
 3494SOL    HW122136   7.767   1.194   0.793
 3494SOL    HW222137   7.809   1.290   0.667
 3495SOL     OW22138   5.970   8.908   4.569
 3495SOL    HW122139   6.047   8.849   4.542
 3495SOL    HW222140   5.958   8.979   4.499
 3496SOL     OW22141   2.232   9.333   4.399
 3496SOL    HW122142   2.232   9.402   4.327
 3496SOL    HW222143   2.322   9.290   4.405
 3497SOL     OW22144   1.005   9.459   3.199
 3497SOL    HW122145   1.081   9.518   3.171
 3497SOL    HW222146   0.930   9.467   3.133
 3498SOL     OW22147   0.134   8.922   3.654
 3498SOL    HW122148   0.061   8.858   3.628
 3498SOL    HW222149   0.127   8.943   3.751
 3499SOL     OW22150   4.127   3.345   7.579
 3499SOL    HW122151   4.071   3.340   7.496
 3499SOL    HW222152   4.088   3.412   7.642
 3500SOL     OW22153   3.646   4.874   5.265
 3500SOL    HW122154   3.570   4.936   5.283
 3500SOL    HW222155   3.643   4.843   5.170
 3501SOL     OW22156   0.747   7.705   5.268
 3501SOL    HW122157   0.812   7.719   5.193
 3501SOL    HW222158   0.703   7.616   5.257
 3502SOL     OW22159   2.193   8.102   5.036
 3502SOL    HW122160   2.236   8.181   4.993
 3502SOL    HW222161   2.116   8.072   4.979
 3503SOL     OW22162   9.323   9.575   0.629
 3503SOL    HW122163   9.418   9.544   0.629
 3503SOL    HW222164   9.275   9.534   0.707
 3504SOL     OW22165   7.116   1.662   4.592
 3504SOL    HW122166   7.133   1.695   4.500
 3504SOL    HW222167   7.097   1.563   4.589
 3505SOL     OW22168   1.231   3.220   0.259
 3505SOL    HW122169   1.321   3.262   0.271
 3505SOL    HW222170   1.164   3.290   0.236
 3506SOL     OW22171   0.107   6.572   0.737
 3506SOL    HW122172   0.024   6.568   0.791
 3506SOL    HW222173   0.095   6.636   0.661
 3507SOL     OW22174   9.077   0.816   7.332
 3507SOL    HW122175   9.139   0.893   7.315
 3507SOL    HW222176   9.005   0.814   7.262
 3508SOL     OW22177   8.625   1.205   3.309
 3508SOL    HW122178   8.634   1.142   3.387
 3508SOL    HW222179   8.644   1.156   3.224
 3509SOL     OW22180   6.007   3.794   1.308
 3509SOL    HW122181   6.034   3.873   1.253
 3509SOL    HW222182   6.071   3.783   1.384
 3510SOL     OW22183   9.123   6.883   4.526
 3510SOL    HW122184   9.167   6.953   4.469
 3510SOL    HW222185   9.026   6.881   4.506
 3511SOL     OW22186   3.003   9.481   5.265
 3511SOL    HW122187   2.904   9.480   5.251
 3511SOL    HW222188   3.031   9.573   5.291
 3512SOL     OW22189   3.126   5.086   4.613
 3512SOL    HW122190   3.061   5.014   4.638
 3512SOL    HW222191   3.088   5.175   4.639
 3513SOL     OW22192   6.426   8.499   5.772
 3513SOL    HW122193   6.521   8.501   5.801
 3513SOL    HW222194   6.369   8.541   5.842
 3514SOL     OW22195   1.388   9.561   6.654
 3514SOL    HW122196   1.320   9.583   6.724
 3514SOL    HW222197   1.364   9.475   6.610
 3515SOL     OW22198   3.641   0.528   3.020
 3515SOL    HW122199   3.720   0.497   2.967
 3515SOL    HW222200   3.614   0.456   3.085
 3516SOL     OW22201   2.555   1.271   1.477
 3516SOL    HW122202   2.552   1.208   1.555
 3516SOL    HW222203   2.641   1.323   1.480
 3517SOL     OW22204   1.784   1.791   0.968
 3517SOL    HW122205   1.857   1.858   0.977
 3517SOL    HW222206   1.701   1.827   1.011
 3518SOL     OW22207   3.025   2.954   2.882
 3518SOL    HW122208   3.055   3.029   2.822
 3518SOL    HW222209   3.043   2.866   2.837
 3519SOL     OW22210   2.908   8.037   4.903
 3519SOL    HW122211   2.962   7.960   4.938
 3519SOL    HW222212   2.969   8.111   4.876
 3520SOL     OW22213   6.287   2.707   1.370
 3520SOL    HW122214   6.377   2.724   1.331
 3520SOL    HW222215   6.225   2.675   1.298
 3521SOL     OW22216   3.635   1.250   2.185
 3521SOL    HW122217   3.668   1.331   2.136
 3521SOL    HW222218   3.633   1.269   2.283
 3522SOL     OW22219   6.968   9.083   3.433
 3522SOL    HW122220   7.049   9.043   3.389
 3522SOL    HW222221   6.997   9.153   3.498
 3523SOL     OW22222   0.506   4.365   1.525
 3523SOL    HW122223   0.576   4.393   1.591
 3523SOL    HW222224   0.423   4.418   1.540
 3524SOL     OW22225   8.695   6.769   6.826
 3524SOL    HW122226   8.721   6.681   6.788
 3524SOL    HW222227   8.766   6.800   6.889
 3525SOL     OW22228   2.289   6.409   4.885
 3525SOL    HW122229   2.323   6.503   4.876
 3525SOL    HW222230   2.261   6.392   4.979
 3526SOL     OW22231   8.701   4.144   4.883
 3526SOL    HW122232   8.669   4.167   4.792
 3526SOL    HW222233   8.680   4.048   4.903
 3527SOL     OW22234   0.143   6.948   3.440
 3527SOL    HW122235   0.074   6.967   3.370
 3527SOL    HW222236   0.224   6.908   3.398
 3528SOL     OW22237   6.333   4.959   0.906
 3528SOL    HW122238   6.292   5.049   0.921
 3528SOL    HW222239   6.264   4.888   0.918
 3529SOL     OW22240   9.784   1.739   7.353
 3529SOL    HW122241   9.882   1.736   7.329
 3529SOL    HW222242   9.738   1.804   7.294
 3530SOL     OW22243   3.314   0.384   3.087
 3530SOL    HW122244   3.305   0.481   3.068
 3530SOL    HW222245   3.404   0.365   3.125
 3531SOL     OW22246   0.982   1.224   3.807
 3531SOL    HW122247   1.037   1.304   3.829
 3531SOL    HW222248   0.904   1.219   3.870
 3532SOL     OW22249   3.338   6.663   6.708
 3532SOL    HW122250   3.419   6.664   6.767
 3532SOL    HW222251   3.258   6.639   6.762
 3533SOL     OW22252   8.469   3.696   6.766
 3533SOL    HW122253   8.429   3.610   6.796
 3533SOL    HW222254   8.568   3.688   6.765
 3534SOL     OW22255   8.782   1.609   3.895
 3534SOL    HW122256   8.740   1.614   3.804
 3534SOL    HW222257   8.878   1.639   3.889
 3535SOL     OW22258   8.772   4.852   6.683
 3535SOL    HW122259   8.842   4.911   6.722
 3535SOL    HW222260   8.690   4.905   6.663
 3536SOL     OW22261   8.073   4.213   4.487
 3536SOL    HW122262   8.043   4.117   4.488
 3536SOL    HW222263   8.027   4.261   4.412
 3537SOL     OW22264   9.984   1.089   0.048
 3537SOL    HW122265   9.999   1.159  10.059
 3537SOL    HW222266   9.887   1.086   0.071
 3538SOL     OW22267   8.508   9.746   6.596
 3538SOL    HW122268   8.439   9.697   6.650
 3538SOL    HW222269   8.463   9.796   6.522
 3539SOL     OW22270   3.191   9.053   7.117
 3539SOL    HW122271   3.153   9.104   7.194
 3539SOL    HW222272   3.150   8.961   7.114
 3540SOL     OW22273   6.093   8.449   2.213
 3540SOL    HW122274   6.166   8.439   2.281
 3540SOL    HW222275   6.130   8.433   2.122
 3541SOL     OW22276   2.614   8.386   3.219
 3541SOL    HW122277   2.548   8.328   3.172
 3541SOL    HW222278   2.679   8.423   3.153
 3542SOL     OW22279   0.859   2.703   5.238
 3542SOL    HW122280   0.906   2.786   5.267
 3542SOL    HW222281   0.812   2.720   5.152
 3543SOL     OW22282   7.217   3.889   3.639
 3543SOL    HW122283   7.159   3.868   3.560
 3543SOL    HW222284   7.260   3.978   3.625
 3544SOL     OW22285   9.282   4.534   7.501
 3544SOL    HW122286   9.281   4.508   7.404
 3544SOL    HW222287   9.309   4.630   7.509
 3545SOL     OW22288   8.392   3.326   3.293
 3545SOL    HW122289   8.450   3.247   3.274
 3545SOL    HW222290   8.366   3.370   3.207
 3546SOL     OW22291   1.657   9.006   6.533
 3546SOL    HW122292   1.651   9.102   6.505
 3546SOL    HW222293   1.752   8.984   6.555
 3547SOL     OW22294   7.136   0.820   4.780
 3547SOL    HW122295   7.061   0.860   4.832
 3547SOL    HW222296   7.100   0.751   4.717
 3548SOL     OW22297   6.205   8.803   7.535
 3548SOL    HW122298   6.172   8.894   7.560
 3548SOL    HW222299   6.131   8.751   7.493
 3549SOL     OW22300   0.928   7.915   1.312
 3549SOL    HW122301   0.968   7.957   1.231
 3549SOL    HW222302   1.000   7.870   1.366
 3550SOL     OW22303   8.326   5.104   4.893
 3550SOL    HW122304   8.380   5.074   4.815
 3550SOL    HW222305   8.276   5.026   4.930
 3551SOL     OW22306   7.493   1.096   2.090
 3551SOL    HW122307   7.552   1.129   2.017
 3551SOL    HW222308   7.546   1.041   2.154
 3552SOL     OW22309   0.301   0.141   2.931
 3552SOL    HW122310   0.235   0.068   2.946
 3552SOL    HW222311   0.254   0.229   2.928
 3553SOL     OW22312   8.908   6.382   1.825
 3553SOL    HW122313   8.942   6.388   1.919
 3553SOL    HW222314   8.808   6.376   1.826
 3554SOL     OW22315   4.681   9.023   0.548
 3554SOL    HW122316   4.780   9.027   0.562
 3554SOL    HW222317   4.659   9.056   0.456
 3555SOL     OW22318   0.159   6.746   1.588
 3555SOL    HW122319   0.160   6.728   1.489
 3555SOL    HW222320   0.179   6.660   1.637
 3556SOL     OW22321   7.501   4.483   2.448
 3556SOL    HW122322   7.424   4.469   2.509
 3556SOL    HW222323   7.578   4.521   2.499
 3557SOL     OW22324   4.557   0.733   2.157
 3557SOL    HW122325   4.541   0.662   2.089
 3557SOL    HW222326   4.644   0.779   2.136
 3558SOL     OW22327   1.890   0.430   6.211
 3558SOL    HW122328   1.953   0.467   6.142
 3558SOL    HW222329   1.920   0.459   6.302
 3559SOL     OW22330   9.443   2.099   6.302
 3559SOL    HW122331   9.442   2.196   6.326
 3559SOL    HW222332   9.385   2.083   6.222
 3560SOL     OW22333   0.706   1.060   2.549
 3560SOL    HW122334   0.623   1.049   2.603
 3560SOL    HW222335   0.710   1.154   2.514
 3561SOL     OW22336   1.065   0.010   4.179
 3561SOL    HW122337   1.147   9.958   4.154
 3561SOL    HW222338   1.024   9.970   4.261
 3562SOL     OW22339   9.273   3.561   7.793
 3562SOL    HW122340   9.256   3.589   7.699
 3562SOL    HW222341   9.279   3.461   7.797
 3563SOL     OW22342   2.516   3.044   5.664
 3563SOL    HW122343   2.507   3.140   5.638
 3563SOL    HW222344   2.604   3.029   5.708
 3564SOL     OW22345   8.088   8.518   1.667
 3564SOL    HW122346   8.031   8.511   1.749
 3564SOL    HW222347   8.184   8.500   1.691
 3565SOL     OW22348   2.570   8.439   2.035
 3565SOL    HW122349   2.576   8.424   1.936
 3565SOL    HW222350   2.613   8.527   2.058
 3566SOL     OW22351   0.190   8.737   5.681
 3566SOL    HW122352   0.112   8.796   5.665
 3566SOL    HW222353   0.178   8.687   5.767
 3567SOL     OW22354   9.269   5.893   1.570
 3567SOL    HW122355   9.357   5.863   1.534
 3567SOL    HW222356   9.195   5.847   1.520
 3568SOL     OW22357   2.825   3.998   7.219
 3568SOL    HW122358   2.775   3.993   7.306
 3568SOL    HW222359   2.888   4.075   7.222
 3569SOL     OW22360   9.996   4.718   5.492
 3569SOL    HW122361   9.921   4.699   5.428
 3569SOL    HW222362   0.012   4.816   5.496
 3570SOL     OW22363   8.279   7.469   6.570
 3570SOL    HW122364   8.361   7.413   6.561
 3570SOL    HW222365   8.240   7.457   6.662
 3571SOL     OW22366   0.538   8.880   6.678
 3571SOL    HW122367   0.475   8.839   6.744
 3571SOL    HW222368   0.569   8.810   6.614
 3572SOL     OW22369   9.991   6.181   7.896
 3572SOL    HW122370   0.070   6.174   7.835
 3572SOL    HW222371   0.023   6.179   7.991
 3573SOL     OW22372   3.706   7.645   1.983
 3573SOL    HW122373   3.762   7.723   2.011
 3573SOL    HW222374   3.610   7.674   1.979
 3574SOL     OW22375   2.340   0.681   2.073
 3574SOL    HW122376   2.425   0.629   2.067
 3574SOL    HW222377   2.276   0.634   2.133
 3575SOL     OW22378   1.875   5.236   6.455
 3575SOL    HW122379   1.970   5.208   6.473
 3575SOL    HW222380   1.812   5.172   6.499
 3576SOL     OW22381   1.045   0.090   5.416
 3576SOL    HW122382   1.014   0.171   5.365
 3576SOL    HW222383   1.094   0.029   5.354
 3577SOL     OW22384   4.197   0.476   0.526
 3577SOL    HW122385   4.258   0.511   0.597
 3577SOL    HW222386   4.212   0.377   0.515
 3578SOL     OW22387   4.250   7.727   0.050
 3578SOL    HW122388   4.152   7.746   0.056
 3578SOL    HW222389   4.276   7.717  10.036
 3579SOL     OW22390   7.529   7.828   4.526
 3579SOL    HW122391   7.458   7.836   4.596
 3579SOL    HW222392   7.494   7.858   4.438
 3580SOL     OW22393   6.078   0.063   5.735
 3580SOL    HW122394   5.982   0.070   5.707
 3580SOL    HW222395   6.087   9.993   5.805
 3581SOL     OW22396   1.032   1.060   0.784
 3581SOL    HW122397   1.110   1.097   0.835
 3581SOL    HW222398   1.046   1.075   0.686
 3582SOL     OW22399   4.461   3.556   1.914
 3582SOL    HW122400   4.364   3.549   1.889
 3582SOL    HW222401   4.504   3.629   1.860
 3583SOL     OW22402   5.940   0.325   4.921
 3583SOL    HW122403   5.934   0.290   4.828
 3583SOL    HW222404   5.991   0.411   4.922
 3584SOL     OW22405   1.693   3.728   1.303
 3584SOL    HW122406   1.773   3.688   1.347
 3584SOL    HW222407   1.644   3.785   1.369
 3585SOL     OW22408   8.310   8.847   1.374
 3585SOL    HW122409   8.236   8.812   1.432
 3585SOL    HW222410   8.397   8.810   1.406
 3586SOL     OW22411   4.020   5.144   3.954
 3586SOL    HW122412   3.997   5.046   3.954
 3586SOL    HW222413   4.092   5.161   4.020
 3587SOL     OW22414   9.682   2.801   5.243
 3587SOL    HW122415   9.732   2.744   5.178
 3587SOL    HW222416   9.745   2.863   5.289
 3588SOL     OW22417   2.870   1.304   5.933
 3588SOL    HW122418   2.830   1.373   5.874
 3588SOL    HW222419   2.918   1.236   5.878
 3589SOL     OW22420   9.718   4.818   3.137
 3589SOL    HW122421   9.628   4.848   3.169
 3589SOL    HW222422   9.770   4.898   3.105
 3590SOL     OW22423   9.763   7.662   2.048
 3590SOL    HW122424   9.685   7.674   2.109
 3590SOL    HW222425   9.759   7.571   2.006
 3591SOL     OW22426   6.884   0.417   5.908
 3591SOL    HW122427   6.932   0.487   5.961
 3591SOL    HW222428   6.872   0.449   5.815
 3592SOL     OW22429   7.205   1.705   1.877
 3592SOL    HW122430   7.196   1.622   1.932
 3592SOL    HW222431   7.225   1.680   1.782
 3593SOL     OW22432   5.173   7.354   2.373
 3593SOL    HW122433   5.150   7.398   2.286
 3593SOL    HW222434   5.232   7.275   2.355
 3594SOL     OW22435   0.405   3.352   5.032
 3594SOL    HW122436   0.364   3.273   5.078
 3594SOL    HW222437   0.347   3.432   5.045
 3595SOL     OW22438   9.012   7.422   2.069
 3595SOL    HW122439   8.979   7.428   1.975
 3595SOL    HW222440   9.087   7.356   2.073
 3596SOL     OW22441   2.648   5.095   1.997
 3596SOL    HW122442   2.670   5.181   1.950
 3596SOL    HW222443   2.573   5.050   1.949
 3597SOL     OW22444   9.077   0.234   6.671
 3597SOL    HW122445   9.029   0.219   6.757
 3597SOL    HW222446   9.158   0.174   6.667
 3598SOL     OW22447   9.389   8.432   3.550
 3598SOL    HW122448   9.409   8.529   3.537
 3598SOL    HW222449   9.468   8.388   3.594
 3599SOL     OW22450   0.931   6.814   7.007
 3599SOL    HW122451   0.874   6.896   7.006
 3599SOL    HW222452   0.943   6.781   6.914
 3600SOL     OW22453   9.247   8.688   4.278
 3600SOL    HW122454   9.244   8.617   4.348
 3600SOL    HW222455   9.231   8.647   4.188
 3601SOL     OW22456   8.438   8.798   0.560
 3601SOL    HW122457   8.417   8.829   0.467
 3601SOL    HW222458   8.367   8.830   0.623
 3602SOL     OW22459   5.677   9.860   5.602
 3602SOL    HW122460   5.725   9.945   5.625
 3602SOL    HW222461   5.717   9.820   5.520
 3603SOL     OW22462   3.614   6.962   7.749
 3603SOL    HW122463   3.665   7.003   7.674
 3603SOL    HW222464   3.664   6.883   7.785
 3604SOL     OW22465   9.508   8.108   5.380
 3604SOL    HW122466   9.412   8.086   5.362
 3604SOL    HW222467   9.566   8.038   5.340
 3605SOL     OW22468   6.557   1.457   5.190
 3605SOL    HW122469   6.574   1.411   5.277
 3605SOL    HW222470   6.470   1.426   5.152
 3606SOL     OW22471   0.978   3.026   1.189
 3606SOL    HW122472   1.068   3.044   1.230
 3606SOL    HW222473   0.972   3.069   1.099
 3607SOL     OW22474   8.543   5.008   6.627
 3607SOL    HW122475   8.460   4.968   6.588
 3607SOL    HW222476   8.520   5.066   6.704
 3608SOL     OW22477   3.388   4.704   7.555
 3608SOL    HW122478   3.391   4.799   7.526
 3608SOL    HW222479   3.467   4.683   7.613
 3609SOL     OW22480   9.651   0.580   6.536
 3609SOL    HW122481   9.664   0.616   6.629
 3609SOL    HW222482   9.576   0.514   6.536
 3610SOL     OW22483   6.492   8.343   5.347
 3610SOL    HW122484   6.497   8.264   5.287
 3610SOL    HW222485   6.488   8.313   5.442
 3611SOL     OW22486   8.118   1.552   0.148
 3611SOL    HW122487   8.200   1.588   0.192
 3611SOL    HW222488   8.038   1.600   0.182
 3612SOL     OW22489   3.386   8.997   6.004
 3612SOL    HW122490   3.320   9.054   6.052
 3612SOL    HW222491   3.344   8.958   5.923
 3613SOL     OW22492   7.317   7.064   7.256
 3613SOL    HW122493   7.370   7.096   7.334
 3613SOL    HW222494   7.224   7.041   7.285
 3614SOL     OW22495   1.172   4.327   5.743
 3614SOL    HW122496   1.163   4.426   5.733
 3614SOL    HW222497   1.243   4.307   5.811
 3615SOL     OW22498   0.410   2.647   1.724
 3615SOL    HW122499   0.399   2.718   1.794
 3615SOL    HW222500   0.503   2.650   1.688
 3616SOL     OW22501   3.815   1.155   0.530
 3616SOL    HW122502   3.818   1.055   0.530
 3616SOL    HW222503   3.909   1.191   0.528
 3617SOL     OW22504   3.675   7.069   6.064
 3617SOL    HW122505   3.586   7.039   6.031
 3617SOL    HW222506   3.692   7.030   6.154
 3618SOL     OW22507   0.909   9.908   5.819
 3618SOL    HW122508   0.986   9.847   5.840
 3618SOL    HW222509   0.892   9.906   5.720
 3619SOL     OW22510   8.184   9.917   7.476
 3619SOL    HW122511   8.101   9.921   7.420
 3619SOL    HW222512   8.255   9.974   7.435
 3620SOL     OW22513   0.793   5.938   3.153
 3620SOL    HW122514   0.850   5.957   3.233
 3620SOL    HW222515   0.732   5.861   3.172
 3621SOL     OW22516   4.102   2.866   3.172
 3621SOL    HW122517   4.027   2.805   3.146
 3621SOL    HW222518   4.118   2.932   3.099
 3622SOL     OW22519   5.395   0.676   3.311
 3622SOL    HW122520   5.339   0.624   3.247
 3622SOL    HW222521   5.452   0.740   3.261
 3623SOL     OW22522   8.410   0.896   7.751
 3623SOL    HW122523   8.445   0.983   7.785
 3623SOL    HW222524   8.314   0.906   7.725
 3624SOL     OW22525   1.161   5.066   4.942
 3624SOL    HW122526   1.112   5.056   4.855
 3624SOL    HW222527   1.108   5.024   5.016
 3625SOL     OW22528   9.281   7.575   4.042
 3625SOL    HW122529   9.303   7.499   4.104
 3625SOL    HW222530   9.325   7.658   4.075
 3626SOL     OW22531   9.117   0.982   3.678
 3626SOL    HW122532   9.187   0.924   3.637
 3626SOL    HW222533   9.045   1.000   3.610
 3627SOL     OW22534   8.596   5.821   3.650
 3627SOL    HW122535   8.638   5.855   3.735
 3627SOL    HW222536   8.603   5.891   3.579
 3628SOL     OW22537   8.468   2.738   0.778
 3628SOL    HW122538   8.522   2.814   0.743
 3628SOL    HW222539   8.512   2.699   0.859
 3629SOL     OW22540   9.328   9.678   6.237
 3629SOL    HW122541   9.249   9.616   6.234
 3629SOL    HW222542   9.400   9.637   6.293
 3630SOL     OW22543   1.398   8.537   0.147
 3630SOL    HW122544   1.335   8.603   0.188
 3630SOL    HW222545   1.361   8.444   0.157
 3631SOL     OW22546   0.295   8.294   2.641
 3631SOL    HW122547   0.224   8.260   2.579
 3631SOL    HW222548   0.293   8.242   2.726
 3632SOL     OW22549   2.194   1.676   5.963
 3632SOL    HW122550   2.190   1.695   6.061
 3632SOL    HW222551   2.165   1.581   5.946
 3633SOL     OW22552   2.718   3.273   0.199
 3633SOL    HW122553   2.629   3.308   0.170
 3633SOL    HW222554   2.787   3.344   0.187
 3634SOL     OW22555   8.403   0.274   1.172
 3634SOL    HW122556   8.502   0.261   1.162
 3634SOL    HW222557   8.360   0.186   1.192
 3635SOL     OW22558   9.936   5.434   6.338
 3635SOL    HW122559   9.940   5.379   6.421
 3635SOL    HW222560   0.024   5.432   6.292
 3636SOL     OW22561   8.347   4.128   2.614
 3636SOL    HW122562   8.370   4.184   2.534
 3636SOL    HW222563   8.250   4.104   2.611
 3637SOL     OW22564   3.629   3.202   2.022
 3637SOL    HW122565   3.711   3.259   2.023
 3637SOL    HW222566   3.553   3.253   1.981
 3638SOL     OW22567   8.422   5.652   7.786
 3638SOL    HW122568   8.329   5.665   7.820
 3638SOL    HW222569   8.486   5.707   7.840
 3639SOL     OW22570   2.838   9.054   5.481
 3639SOL    HW122571   2.890   9.106   5.413
 3639SOL    HW222572   2.901   9.007   5.543
 3640SOL     OW22573   9.572   8.603   0.647
 3640SOL    HW122574   9.558   8.676   0.714
 3640SOL    HW222575   9.484   8.572   0.613
 3641SOL     OW22576   3.934   4.945   5.887
 3641SOL    HW122577   3.941   4.900   5.798
 3641SOL    HW222578   3.916   4.877   5.958
 3642SOL     OW22579   9.274   4.061   3.782
 3642SOL    HW122580   9.368   4.037   3.756
 3642SOL    HW222581   9.252   4.152   3.747
 3643SOL     OW22582   9.206   5.441   3.480
 3643SOL    HW122583   9.173   5.376   3.548
 3643SOL    HW222584   9.190   5.534   3.512
 3644SOL     OW22585   7.938   1.922   0.820
 3644SOL    HW122586   7.894   2.009   0.840
 3644SOL    HW222587   8.024   1.915   0.872
 3645SOL     OW22588   8.922   1.034   3.493
 3645SOL    HW122589   8.928   0.973   3.414
 3645SOL    HW222590   8.826   1.049   3.517
 3646SOL     OW22591   6.532   3.258   0.157
 3646SOL    HW122592   6.465   3.216   0.217
 3646SOL    HW222593   6.510   3.355   0.145
 3647SOL     OW22594   1.612   6.945   0.694
 3647SOL    HW122595   1.685   7.008   0.667
 3647SOL    HW222596   1.651   6.858   0.723
 3648SOL     OW22597   3.479   3.512   0.611
 3648SOL    HW122598   3.414   3.501   0.536
 3648SOL    HW222599   3.432   3.502   0.698
 3649SOL     OW22600   7.557   8.408   6.475
 3649SOL    HW122601   7.477   8.459   6.445
 3649SOL    HW222602   7.546   8.382   6.571
 3650SOL     OW22603   0.144   0.374   1.904
 3650SOL    HW122604   0.184   0.347   1.991
 3650SOL    HW222605   0.215   0.409   1.843
 3651SOL     OW22606   5.955   7.679   4.929
 3651SOL    HW122607   6.021   7.730   4.984
 3651SOL    HW222608   5.993   7.662   4.838
 3652SOL     OW22609   3.018   8.639   4.857
 3652SOL    HW122610   2.961   8.621   4.777
 3652SOL    HW222611   3.033   8.738   4.866
 3653SOL     OW22612   3.448   6.788   0.400
 3653SOL    HW122613   3.522   6.777   0.466
 3653SOL    HW222614   3.360   6.783   0.448
 3654SOL     OW22615   2.300   6.288   0.672
 3654SOL    HW122616   2.271   6.355   0.604
 3654SOL    HW222617   2.219   6.244   0.711
 3655SOL     OW22618   9.324   8.418   1.788
 3655SOL    HW122619   9.299   8.329   1.827
 3655SOL    HW222620   9.424   8.424   1.780
 3656SOL     OW22621   0.553   9.905   1.781
 3656SOL    HW122622   0.496   9.952   1.713
 3656SOL    HW222623   0.592   9.973   1.844
 3657SOL     OW22624   7.686   3.332   2.474
 3657SOL    HW122625   7.740   3.277   2.411
 3657SOL    HW222626   7.595   3.290   2.485
 3658SOL     OW22627   1.611   7.583   2.799
 3658SOL    HW122628   1.590   7.564   2.894
 3658SOL    HW222629   1.541   7.541   2.740
 3659SOL     OW22630   0.576   7.896   5.351
 3659SOL    HW122631   0.636   7.823   5.320
 3659SOL    HW222632   0.493   7.898   5.295
 3660SOL     OW22633   4.256   8.336   6.738
 3660SOL    HW122634   4.320   8.351   6.663
 3660SOL    HW222635   4.190   8.266   6.712
 3661SOL     OW22636   9.644   9.133   7.234
 3661SOL    HW122637   9.663   9.072   7.157
 3661SOL    HW222638   9.663   9.084   7.320
 3662SOL     OW22639   3.508   5.822   6.231
 3662SOL    HW122640   3.492   5.865   6.320
 3662SOL    HW222641   3.580   5.753   6.241
 3663SOL     OW22642   9.067   4.887   4.024
 3663SOL    HW122643   9.058   4.982   4.056
 3663SOL    HW222644   9.090   4.828   4.101
 3664SOL     OW22645   2.330   1.237   1.890
 3664SOL    HW122646   2.238   1.203   1.909
 3664SOL    HW222647   2.330   1.337   1.894
 3665SOL     OW22648   2.582   5.435   4.157
 3665SOL    HW122649   2.544   5.480   4.076
 3665SOL    HW222650   2.681   5.450   4.160
 3666SOL     OW22651   9.066   0.758   0.420
 3666SOL    HW122652   9.164   0.749   0.439
 3666SOL    HW222653   9.039   0.854   0.429
 3667SOL     OW22654   7.934   3.666   5.026
 3667SOL    HW122655   8.007   3.683   5.093
 3667SOL    HW222656   7.931   3.568   5.006
 3668SOL     OW22657   2.996   3.965   6.846
 3668SOL    HW122658   2.997   3.898   6.772
 3668SOL    HW222659   3.084   4.013   6.848
 3669SOL     OW22660   1.049   9.899   0.506
 3669SOL    HW122661   0.960   9.893   0.460
 3669SOL    HW222662   1.037   9.944   0.595
 3670SOL     OW22663   4.415   6.638   3.916
 3670SOL    HW122664   4.476   6.717   3.920
 3670SOL    HW222665   4.336   6.659   3.858
 3671SOL     OW22666   0.820   4.749   1.037
 3671SOL    HW122667   0.792   4.842   1.062
 3671SOL    HW222668   0.825   4.692   1.119
 3672SOL     OW22669   3.148   8.582   4.268
 3672SOL    HW122670   3.186   8.502   4.313
 3672SOL    HW222671   3.090   8.553   4.191
 3673SOL     OW22672   1.693   9.679   6.305
 3673SOL    HW122673   1.700   9.773   6.274
 3673SOL    HW222674   1.779   9.652   6.349
 3674SOL     OW22675   5.488   2.578   4.788
 3674SOL    HW122676   5.528   2.487   4.778
 3674SOL    HW222677   5.516   2.635   4.711
 3675SOL     OW22678   2.909   4.054   4.782
 3675SOL    HW122679   2.912   4.114   4.861
 3675SOL    HW222680   2.861   4.100   4.707
 3676SOL     OW22681   9.319   6.009   7.200
 3676SOL    HW122682   9.273   5.937   7.149
 3676SOL    HW222683   9.252   6.068   7.244
 3677SOL     OW22684   6.675   0.857   2.631
 3677SOL    HW122685   6.709   0.948   2.652
 3677SOL    HW222686   6.575   0.857   2.634
 3678SOL     OW22687   4.285   3.536   1.475
 3678SOL    HW122688   4.327   3.610   1.528
 3678SOL    HW222689   4.311   3.545   1.379
 3679SOL     OW22690   8.773   8.380   2.875
 3679SOL    HW122691   8.770   8.401   2.778
 3679SOL    HW222692   8.725   8.452   2.926
 3680SOL     OW22693   2.822   4.764   1.723
 3680SOL    HW122694   2.853   4.787   1.631
 3680SOL    HW222695   2.881   4.693   1.761
 3681SOL     OW22696   2.860   0.128   1.935
 3681SOL    HW122697   2.870   0.070   2.016
 3681SOL    HW222698   2.902   0.083   1.856
 3682SOL     OW22699   4.722   0.278   4.000
 3682SOL    HW122700   4.790   0.214   4.037
 3682SOL    HW222701   4.643   0.282   4.061
 3683SOL     OW22702   6.900   4.793   1.280
 3683SOL    HW122703   6.906   4.878   1.228
 3683SOL    HW222704   6.989   4.747   1.280
 3684SOL     OW22705   9.763   8.051   5.083
 3684SOL    HW122706   9.720   7.994   5.153
 3684SOL    HW222707   9.737   8.146   5.097
 3685SOL     OW22708   1.482   9.909   3.741
 3685SOL    HW122709   1.486   9.989   3.682
 3685SOL    HW222710   1.530   9.833   3.697
 3686SOL     OW22711   9.967   4.529   2.960
 3686SOL    HW122712   0.022   4.570   2.888
 3686SOL    HW222713   9.970   4.430   2.952
 3687SOL     OW22714   3.000   5.818   1.744
 3687SOL    HW122715   2.958   5.826   1.835
 3687SOL    HW222716   2.933   5.782   1.679
 3688SOL     OW22717   5.275   9.555   3.448
 3688SOL    HW122718   5.374   9.555   3.458
 3688SOL    HW222719   5.244   9.645   3.418
 3689SOL     OW22720   6.072   0.378   7.067
 3689SOL    HW122721   6.111   0.340   6.983
 3689SOL    HW222722   6.015   0.310   7.112
 3690SOL     OW22723   2.620   9.540   3.857
 3690SOL    HW122724   2.699   9.479   3.855
 3690SOL    HW222725   2.588   9.551   3.951
 3691SOL     OW22726   5.719   4.074   2.462
 3691SOL    HW122727   5.756   4.030   2.544
 3691SOL    HW222728   5.623   4.048   2.450
 3692SOL     OW22729   7.669   0.663   4.561
 3692SOL    HW122730   7.652   0.584   4.503
 3692SOL    HW222731   7.586   0.718   4.569
 3693SOL     OW22732   0.412   2.217   3.491
 3693SOL    HW122733   0.394   2.314   3.510
 3693SOL    HW222734   0.338   2.162   3.530
 3694SOL     OW22735   0.360   9.862   1.988
 3694SOL    HW122736   0.426   9.864   2.063
 3694SOL    HW222737   0.408   9.875   1.901
 3695SOL     OW22738   9.879   8.276   1.412
 3695SOL    HW122739   9.829   8.191   1.429
 3695SOL    HW222740   9.901   8.320   1.499
 3696SOL     OW22741   3.968   2.993   2.688
 3696SOL    HW122742   4.048   2.941   2.660
 3696SOL    HW222743   3.955   3.070   2.625
 3697SOL     OW22744   1.259   8.379   7.711
 3697SOL    HW122745   1.285   8.473   7.733
 3697SOL    HW222746   1.168   8.360   7.748
 3698SOL     OW22747   8.018   1.633   6.998
 3698SOL    HW122748   8.114   1.611   6.982
 3698SOL    HW222749   7.964   1.549   6.994
 3699SOL     OW22750   2.031   9.846   5.804
 3699SOL    HW122751   2.030   9.921   5.869
 3699SOL    HW222752   2.121   9.841   5.759
 3700SOL     OW22753   8.890   8.799   2.417
 3700SOL    HW122754   8.871   8.791   2.320
 3700SOL    HW222755   8.812   8.764   2.469
 3701SOL     OW22756   6.281   5.366   7.586
 3701SOL    HW122757   6.275   5.281   7.534
 3701SOL    HW222758   6.293   5.443   7.523
 3702SOL     OW22759   3.564   5.699   4.182
 3702SOL    HW122760   3.560   5.627   4.251
 3702SOL    HW222761   3.478   5.750   4.182
 3703SOL     OW22762   2.641   9.741   3.671
 3703SOL    HW122763   2.638   9.666   3.737
 3703SOL    HW222764   2.735   9.777   3.667
 3704SOL     OW22765   8.953   3.165   1.912
 3704SOL    HW122766   8.954   3.130   1.818
 3704SOL    HW222767   8.974   3.263   1.911
 3705SOL     OW22768   5.317   8.424   4.739
 3705SOL    HW122769   5.362   8.396   4.654
 3705SOL    HW222770   5.383   8.470   4.798
 3706SOL     OW22771   2.013   8.684   5.246
 3706SOL    HW122772   1.955   8.731   5.180
 3706SOL    HW222773   1.957   8.649   5.321
 3707SOL     OW22774   7.257   9.633   4.551
 3707SOL    HW122775   7.332   9.644   4.486
 3707SOL    HW222776   7.220   9.540   4.543
 3708SOL     OW22777   2.607   4.122   7.098
 3708SOL    HW122778   2.552   4.174   7.164
 3708SOL    HW222779   2.680   4.075   7.146
 3709SOL     OW22780   3.471   7.615   6.085
 3709SOL    HW122781   3.532   7.684   6.047
 3709SOL    HW222782   3.389   7.609   6.029
 3710SOL     OW22783   9.516   3.252   2.224
 3710SOL    HW122784   9.439   3.269   2.285
 3710SOL    HW222785   9.533   3.153   2.220
 3711SOL     OW22786   0.740   0.234   5.460
 3711SOL    HW122787   0.823   0.264   5.414
 3711SOL    HW222788   0.662   0.287   5.426
 3712SOL     OW22789   0.595   0.235   1.624
 3712SOL    HW122790   0.511   0.180   1.628
 3712SOL    HW222791   0.609   0.280   1.712
 3713SOL     OW22792   0.992   0.881   6.183
 3713SOL    HW122793   0.972   0.816   6.110
 3713SOL    HW222794   0.925   0.869   6.257
 3714SOL     OW22795   6.433   1.014   2.408
 3714SOL    HW122796   6.395   1.029   2.317
 3714SOL    HW222797   6.531   1.033   2.406
 3715SOL     OW22798   8.688   9.802   6.798
 3715SOL    HW122799   8.634   9.806   6.714
 3715SOL    HW222800   8.678   9.712   6.840
 3716SOL     OW22801   4.277   3.073   2.758
 3716SOL    HW122802   4.255   2.995   2.699
 3716SOL    HW222803   4.373   3.097   2.747
 3717SOL     OW22804   0.364   7.426   6.152
 3717SOL    HW122805   0.339   7.331   6.170
 3717SOL    HW222806   0.462   7.439   6.168
 3718SOL     OW22807   0.519   8.476   0.530
 3718SOL    HW122808   0.485   8.513   0.616
 3718SOL    HW222809   0.616   8.453   0.539
 3719SOL     OW22810   1.062   3.662   6.027
 3719SOL    HW122811   1.061   3.636   5.931
 3719SOL    HW222812   0.976   3.635   6.070
 3720SOL     OW22813   1.771   2.801   1.453
 3720SOL    HW122814   1.774   2.858   1.370
 3720SOL    HW222815   1.841   2.832   1.517
 3721SOL     OW22816   2.123   2.592   3.064
 3721SOL    HW122817   2.118   2.692   3.059
 3721SOL    HW222818   2.095   2.563   3.156
 3722SOL     OW22819   2.855   6.210   0.459
 3722SOL    HW122820   2.865   6.197   0.360
 3722SOL    HW222821   2.898   6.297   0.484
 3723SOL     OW22822   8.108   2.323   4.152
 3723SOL    HW122823   8.092   2.225   4.155
 3723SOL    HW222824   8.047   2.369   4.217
 3724SOL     OW22825   9.420   3.356   0.110
 3724SOL    HW122826   9.341   3.315   0.155
 3724SOL    HW222827   9.502   3.304   0.133
 3725SOL     OW22828   2.784   2.314   2.468
 3725SOL    HW122829   2.782   2.359   2.557
 3725SOL    HW222830   2.706   2.345   2.414
 3726SOL     OW22831   8.803   7.728   5.116
 3726SOL    HW122832   8.808   7.665   5.039
 3726SOL    HW222833   8.889   7.780   5.122
 3727SOL     OW22834   0.623   5.818   3.713
 3727SOL    HW122835   0.618   5.841   3.615
 3727SOL    HW222836   0.545   5.762   3.737
 3728SOL     OW22837   1.244   1.946   6.504
 3728SOL    HW122838   1.208   1.893   6.428
 3728SOL    HW222839   1.207   2.039   6.501
 3729SOL     OW22840   5.683   0.236   1.490
 3729SOL    HW122841   5.589   0.200   1.487
 3729SOL    HW222842   5.680   0.332   1.518
 3730SOL     OW22843   3.529   4.821   1.751
 3730SOL    HW122844   3.595   4.801   1.823
 3730SOL    HW222845   3.509   4.738   1.699
 3731SOL     OW22846   9.405   3.553   6.240
 3731SOL    HW122847   9.482   3.490   6.226
 3731SOL    HW222848   9.369   3.581   6.152
 3732SOL     OW22849   6.312   9.094   4.508
 3732SOL    HW122850   6.304   9.172   4.570
 3732SOL    HW222851   6.371   9.025   4.549
 3733SOL     OW22852   1.467   5.090   0.268
 3733SOL    HW122853   1.397   5.129   0.209
 3733SOL    HW222854   1.540   5.052   0.212
 3734SOL     OW22855   9.349   3.187   4.920
 3734SOL    HW122856   9.328   3.271   4.970
 3734SOL    HW222857   9.344   3.205   4.821
 3735SOL     OW22858   6.233   4.401   0.588
 3735SOL    HW122859   6.253   4.482   0.643
 3735SOL    HW222860   6.238   4.320   0.646
 3736SOL     OW22861   3.368   5.419   0.523
 3736SOL    HW122862   3.339   5.417   0.427
 3736SOL    HW222863   3.289   5.404   0.582
 3737SOL     OW22864   4.038   3.900   4.802
 3737SOL    HW122865   3.957   3.924   4.748
 3737SOL    HW222866   4.084   3.821   4.760
 3738SOL     OW22867   4.164   9.405   0.569
 3738SOL    HW122868   4.189   9.309   0.586
 3738SOL    HW222869   4.240   9.464   0.595
 3739SOL     OW22870   8.677   5.677   0.845
 3739SOL    HW122871   8.737   5.603   0.813
 3739SOL    HW222872   8.706   5.707   0.936
 3740SOL     OW22873   8.664   7.280   1.554
 3740SOL    HW122874   8.576   7.303   1.511
 3740SOL    HW222875   8.690   7.353   1.618
 3741SOL     OW22876   2.258   4.257   6.920
 3741SOL    HW122877   2.186   4.188   6.913
 3741SOL    HW222878   2.339   4.226   6.871
 3742SOL     OW22879   6.146   0.356   5.360
 3742SOL    HW122880   6.173   0.387   5.269
 3742SOL    HW222881   6.122   0.259   5.357
 3743SOL     OW22882   2.683   6.569   7.383
 3743SOL    HW122883   2.654   6.521   7.465
 3743SOL    HW222884   2.604   6.613   7.340
 3744SOL     OW22885   8.277   9.135   7.910
 3744SOL    HW122886   8.284   9.039   7.937
 3744SOL    HW222887   8.343   9.155   7.838
 3745SOL     OW22888   2.391   4.654   6.778
 3745SOL    HW122889   2.435   4.743   6.787
 3745SOL    HW222890   2.427   4.591   6.847
 3746SOL     OW22891   8.844   6.225   6.237
 3746SOL    HW122892   8.871   6.287   6.164
 3746SOL    HW222893   8.745   6.219   6.242
 3747SOL     OW22894   8.716   1.140   7.822
 3747SOL    HW122895   8.731   1.057   7.876
 3747SOL    HW222896   8.735   1.120   7.726
 3748SOL     OW22897   3.016   8.015   5.878
 3748SOL    HW122898   2.962   7.944   5.922
 3748SOL    HW222899   3.018   8.096   5.937
 3749SOL     OW22900   9.310   1.784   0.792
 3749SOL    HW122901   9.361   1.776   0.707
 3749SOL    HW222902   9.373   1.802   0.867
 3750SOL     OW22903   4.962   4.450   0.210
 3750SOL    HW122904   4.956   4.366   0.155
 3750SOL    HW222905   5.053   4.456   0.251
 3751SOL     OW22906   3.913   9.305   2.271
 3751SOL    HW122907   3.851   9.334   2.343
 3751SOL    HW222908   3.963   9.223   2.301
 3752SOL     OW22909   8.902   6.015   5.713
 3752SOL    HW122910   8.955   5.988   5.633
 3752SOL    HW222911   8.804   6.012   5.691
 3753SOL     OW22912   4.836   2.378   5.963
 3753SOL    HW122913   4.871   2.336   6.047
 3753SOL    HW222914   4.868   2.473   5.958
 3754SOL     OW22915   1.904   6.415   2.856
 3754SOL    HW122916   1.909   6.488   2.788
 3754SOL    HW222917   1.978   6.426   2.923
 3755SOL     OW22918   0.759   4.997   1.139
 3755SOL    HW122919   0.710   4.990   1.226
 3755SOL    HW222920   0.854   5.021   1.156
 3756SOL     OW22921   7.973   2.335   2.340
 3756SOL    HW122922   8.055   2.344   2.283
 3756SOL    HW222923   7.904   2.282   2.290
 3757SOL     OW22924   7.915   7.885   7.441
 3757SOL    HW122925   7.955   7.849   7.525
 3757SOL    HW222926   7.825   7.922   7.459
 3758SOL     OW22927   6.635   1.380   4.258
 3758SOL    HW122928   6.680   1.422   4.180
 3758SOL    HW222929   6.543   1.351   4.233
 3759SOL     OW22930   7.618   2.525   5.612
 3759SOL    HW122931   7.675   2.607   5.609
 3759SOL    HW222932   7.662   2.456   5.668
 3760SOL     OW22933   8.526   3.148   5.275
 3760SOL    HW122934   8.568   3.061   5.250
 3760SOL    HW222935   8.592   3.222   5.261
 3761SOL     OW22936   4.344   4.902   4.893
 3761SOL    HW122937   4.378   4.990   4.860
 3761SOL    HW222938   4.258   4.916   4.942
 3762SOL     OW22939   7.961   4.987   4.619
 3762SOL    HW122940   8.000   4.902   4.654
 3762SOL    HW222941   8.023   5.063   4.637
 3763SOL     OW22942   5.726   4.773   0.612
 3763SOL    HW122943   5.781   4.774   0.529
 3763SOL    HW222944   5.785   4.782   0.692
 3764SOL     OW22945   3.140   1.079   1.796
 3764SOL    HW122946   3.198   1.037   1.726
 3764SOL    HW222947   3.178   1.061   1.887
 3765SOL     OW22948   7.140   0.294   3.834
 3765SOL    HW122949   7.055   0.316   3.787
 3765SOL    HW222950   7.136   0.201   3.869
 3766SOL     OW22951   1.462   2.912   5.006
 3766SOL    HW122952   1.418   2.983   4.951
 3766SOL    HW222953   1.505   2.845   4.945
 3767SOL     OW22954   2.004   6.349   6.573
 3767SOL    HW122955   1.913   6.357   6.533
 3767SOL    HW222956   2.020   6.426   6.635
 3768SOL     OW22957   0.447   2.841   4.394
 3768SOL    HW122958   0.357   2.815   4.360
 3768SOL    HW222959   0.516   2.775   4.363
 3769SOL     OW22960   5.739   2.744   5.654
 3769SOL    HW122961   5.717   2.839   5.631
 3769SOL    HW222962   5.668   2.684   5.619
 3770SOL     OW22963   0.799   6.071   0.094
 3770SOL    HW122964   0.828   6.166   0.080
 3770SOL    HW222965   0.709   6.070   0.137
 3771SOL     OW22966   1.330   7.805   2.667
 3771SOL    HW122967   1.292   7.739   2.602
 3771SOL    HW222968   1.263   7.823   2.739
 3772SOL     OW22969   6.633   1.147   4.645
 3772SOL    HW122970   6.611   1.074   4.580
 3772SOL    HW222971   6.733   1.157   4.652
 3773SOL     OW22972   4.355   2.183   7.461
 3773SOL    HW122973   4.408   2.165   7.544
 3773SOL    HW222974   4.353   2.099   7.405
 3774SOL     OW22975   5.777   8.823   7.029
 3774SOL    HW122976   5.810   8.763   6.957
 3774SOL    HW222977   5.710   8.887   6.991
 3775SOL     OW22978   3.283   5.491   5.346
 3775SOL    HW122979   3.227   5.528   5.420
 3775SOL    HW222980   3.348   5.561   5.316
 3776SOL     OW22981   8.113   8.785   3.557
 3776SOL    HW122982   8.017   8.781   3.583
 3776SOL    HW222983   8.167   8.820   3.634
 3777SOL     OW22984   4.203   3.241   2.418
 3777SOL    HW122985   4.257   3.299   2.355
 3777SOL    HW222986   4.213   3.276   2.511
 3778SOL     OW22987   5.974   0.576   4.313
 3778SOL    HW122988   5.913   0.656   4.304
 3778SOL    HW222989   5.945   0.505   4.249
 3779SOL     OW22990   1.343   4.075   2.258
 3779SOL    HW122991   1.360   3.982   2.292
 3779SOL    HW222992   1.344   4.139   2.335
 3780SOL     OW22993   4.368   9.700   7.270
 3780SOL    HW122994   4.401   9.684   7.363
 3780SOL    HW222995   4.383   9.617   7.216
 3781SOL     OW22996   1.120   6.590   4.992
 3781SOL    HW122997   1.053   6.616   5.062
 3781SOL    HW222998   1.148   6.672   4.941
 3782SOL     OW22999   2.109   5.148   2.859
 3782SOL    HW123000   2.084   5.226   2.917
 3782SOL    HW223001   2.037   5.079   2.865
 3783SOL     OW23002   3.360   5.862   1.993
 3783SOL    HW123003   3.369   5.945   1.938
 3783SOL    HW223004   3.360   5.886   2.090
 3784SOL     OW23005   1.611   1.962   6.869
 3784SOL    HW123006   1.584   1.950   6.773
 3784SOL    HW223007   1.529   1.968   6.926
 3785SOL     OW23008   4.654   2.228   0.655
 3785SOL    HW123009   4.675   2.141   0.612
 3785SOL    HW223010   4.674   2.303   0.591
 3786SOL     OW23011   0.546   3.940   7.235
 3786SOL    HW123012   0.617   3.947   7.165
 3786SOL    HW223013   0.566   3.863   7.295
 3787SOL     OW23014   3.131   5.391   7.186
 3787SOL    HW123015   3.062   5.400   7.257
 3787SOL    HW223016   3.162   5.481   7.157
 3788SOL     OW23017   2.819   5.716   0.511
 3788SOL    HW123018   2.734   5.761   0.540
 3788SOL    HW223019   2.854   5.760   0.429
 3789SOL     OW23020   3.985   2.228   1.157
 3789SOL    HW123021   3.958   2.324   1.143
 3789SOL    HW223022   4.029   2.220   1.246
 3790SOL     OW23023   0.900   0.956   2.715
 3790SOL    HW123024   0.983   0.936   2.662
 3790SOL    HW223025   0.833   0.999   2.655
 3791SOL     OW23026   9.422   1.082   4.479
 3791SOL    HW123027   9.360   1.091   4.402
 3791SOL    HW223028   9.516   1.095   4.449
 3792SOL     OW23029   5.229   9.219   7.923
 3792SOL    HW123030   5.139   9.227   7.880
 3792SOL    HW223031   5.261   9.124   7.915
 3793SOL     OW23032   2.041   2.504   3.302
 3793SOL    HW123033   2.101   2.445   3.356
 3793SOL    HW223034   1.958   2.524   3.355
 3794SOL     OW23035   5.894   2.082   1.266
 3794SOL    HW123036   5.897   2.125   1.356
 3794SOL    HW223037   5.987   2.069   1.232
 3795SOL     OW23038   4.609   5.694   7.720
 3795SOL    HW123039   4.690   5.645   7.755
 3795SOL    HW223040   4.621   5.792   7.735
 3796SOL     OW23041   5.923   9.582   7.152
 3796SOL    HW123042   5.921   9.676   7.116
 3796SOL    HW223043   5.980   9.579   7.234
 3797SOL     OW23044   5.691   9.719   6.428
 3797SOL    HW123045   5.740   9.686   6.349
 3797SOL    HW223046   5.649   9.642   6.477
 3798SOL     OW23047   1.144   2.619   2.725
 3798SOL    HW123048   1.221   2.598   2.786
 3798SOL    HW223049   1.132   2.718   2.720
 3799SOL     OW23050   2.453   4.586   6.519
 3799SOL    HW123051   2.545   4.547   6.522
 3799SOL    HW223052   2.428   4.619   6.610
 3800SOL     OW23053   9.859   7.437   2.237
 3800SOL    HW123054   9.851   7.449   2.138
 3800SOL    HW223055   9.919   7.507   2.275
 3801SOL     OW23056   8.328   4.292   7.032
 3801SOL    HW123057   8.277   4.221   6.983
 3801SOL    HW223058   8.361   4.255   7.119
 3802SOL     OW23059   0.456   0.849   1.038
 3802SOL    HW123060   0.542   0.803   1.019
 3802SOL    HW223061   0.379   0.788   1.018
 3803SOL     OW23062   8.706   1.441   3.428
 3803SOL    HW123063   8.736   1.499   3.352
 3803SOL    HW223064   8.673   1.354   3.392
 3804SOL     OW23065   9.846   2.638   2.644
 3804SOL    HW123066   9.847   2.578   2.724
 3804SOL    HW223067   9.933   2.687   2.637
 3805SOL     OW23068   6.206   0.202   7.730
 3805SOL    HW123069   6.121   0.152   7.747
 3805SOL    HW223070   6.195   0.262   7.650
 3806SOL     OW23071   7.555   5.587   0.751
 3806SOL    HW123072   7.493   5.643   0.694
 3806SOL    HW223073   7.509   5.564   0.837
 3807SOL     OW23074   7.537   4.234   0.572
 3807SOL    HW123075   7.475   4.278   0.507
 3807SOL    HW223076   7.529   4.134   0.563
 3808SOL     OW23077   3.317   3.950   6.528
 3808SOL    HW123078   3.358   3.928   6.440
 3808SOL    HW223079   3.307   3.867   6.582
 3809SOL     OW23080   0.341   1.113   3.662
 3809SOL    HW123081   0.430   1.114   3.706
 3809SOL    HW223082   0.352   1.122   3.563
 3810SOL     OW23083   9.321   7.527   7.678
 3810SOL    HW123084   9.384   7.604   7.672
 3810SOL    HW223085   9.367   7.444   7.645
 3811SOL     OW23086   0.469   1.157   4.230
 3811SOL    HW123087   0.494   1.225   4.298
 3811SOL    HW223088   0.552   1.110   4.199
 3812SOL     OW23089   7.313   3.480   1.012
 3812SOL    HW123090   7.287   3.410   1.078
 3812SOL    HW223091   7.377   3.440   0.945
 3813SOL     OW23092   7.038   6.567   1.955
 3813SOL    HW123093   6.965   6.516   2.000
 3813SOL    HW223094   7.018   6.665   1.960
 3814SOL     OW23095   0.220   8.363   6.593
 3814SOL    HW123096   0.228   8.418   6.510
 3814SOL    HW223097   0.259   8.273   6.577
 3815SOL     OW23098   6.231   2.072   4.188
 3815SOL    HW123099   6.155   2.008   4.204
 3815SOL    HW223100   6.201   2.165   4.210
 3816SOL     OW23101   2.111   8.793   5.541
 3816SOL    HW123102   2.172   8.792   5.461
 3816SOL    HW223103   2.035   8.855   5.523
 3817SOL     OW23104   8.875   0.353   0.971
 3817SOL    HW123105   8.966   0.313   0.983
 3817SOL    HW223106   8.812   0.312   1.037
 3818SOL     OW23107   0.303   3.512   1.323
 3818SOL    HW123108   0.302   3.446   1.248
 3818SOL    HW223109   0.337   3.466   1.406
 3819SOL     OW23110   9.997   7.616   7.784
 3819SOL    HW123111   9.994   7.527   7.830
 3819SOL    HW223112   0.042   7.606   7.695
 3820SOL     OW23113   0.457   8.393   7.769
 3820SOL    HW123114   0.446   8.486   7.805
 3820SOL    HW223115   0.370   8.361   7.732
 3821SOL     OW23116   9.630   5.106   5.445
 3821SOL    HW123117   9.641   5.199   5.479
 3821SOL    HW223118   9.670   5.099   5.354
 3822SOL     OW23119   2.437   9.615   6.188
 3822SOL    HW123120   2.507   9.630   6.258
 3822SOL    HW223121   2.480   9.581   6.104
 3823SOL     OW23122   9.084   8.917   2.019
 3823SOL    HW123123   9.180   8.887   2.020
 3823SOL    HW223124   9.077   9.005   2.066
 3824SOL     OW23125   7.302   8.347   2.919
 3824SOL    HW123126   7.365   8.400   2.862
 3824SOL    HW223127   7.314   8.372   3.015
 3825SOL     OW23128   8.987   8.041   7.916
 3825SOL    HW123129   8.992   8.003   8.009
 3825SOL    HW223130   9.003   7.969   7.849
 3826SOL     OW23131   9.876   8.985   0.145
 3826SOL    HW123132   9.780   9.008   0.129
 3826SOL    HW223133   9.934   9.042   0.086
 3827SOL     OW23134   5.792   9.427   4.359
 3827SOL    HW123135   5.884   9.400   4.387
 3827SOL    HW223136   5.771   9.389   4.269
 3828SOL     OW23137   6.745   9.897   3.200
 3828SOL    HW123138   6.652   9.861   3.197
 3828SOL    HW223139   6.805   9.839   3.145
 3829SOL     OW23140   5.206   1.895   6.371
 3829SOL    HW123141   5.212   1.930   6.278
 3829SOL    HW223142   5.231   1.967   6.435
 3830SOL     OW23143   1.078   1.921   2.032
 3830SOL    HW123144   1.097   1.854   1.960
 3830SOL    HW223145   1.009   1.986   1.998
 3831SOL     OW23146   0.221   9.219   5.685
 3831SOL    HW123147   0.288   9.234   5.758
 3831SOL    HW223148   0.221   9.298   5.624
 3832SOL     OW23149   2.562   0.146   4.596
 3832SOL    HW123150   2.581   0.056   4.556
 3832SOL    HW223151   2.482   0.186   4.551
 3833SOL     OW23152   0.533   0.329   7.253
 3833SOL    HW123153   0.521   0.272   7.334
 3833SOL    HW223154   0.480   0.413   7.264
 3834SOL     OW23155   2.283   1.962   6.788
 3834SOL    HW123156   2.338   1.906   6.849
 3834SOL    HW223157   2.315   2.057   6.790
 3835SOL     OW23158   9.697   9.748   4.652
 3835SOL    HW123159   9.750   9.668   4.679
 3835SOL    HW223160   9.733   9.829   4.699
 3836SOL     OW23161   0.544   0.318   0.549
 3836SOL    HW123162   0.569   0.415   0.546
 3836SOL    HW223163   0.444   0.309   0.554
 3837SOL     OW23164   9.744   2.861   7.339
 3837SOL    HW123165   9.801   2.832   7.416
 3837SOL    HW223166   9.785   2.941   7.297
 3838SOL     OW23167   3.947   2.802   3.593
 3838SOL    HW123168   3.967   2.824   3.689
 3838SOL    HW223169   3.849   2.813   3.576
 3839SOL     OW23170   7.992   9.658   1.238
 3839SOL    HW123171   7.922   9.703   1.182
 3839SOL    HW223172   7.956   9.571   1.272
 3840SOL     OW23173   3.628   2.746   4.022
 3840SOL    HW123174   3.577   2.673   4.069
 3840SOL    HW223175   3.717   2.710   3.993
 3841SOL     OW23176   6.411   6.201   1.865
 3841SOL    HW123177   6.445   6.136   1.933
 3841SOL    HW223178   6.330   6.163   1.820
 3842SOL     OW23179   3.367   9.353   4.403
 3842SOL    HW123180   3.392   9.433   4.458
 3842SOL    HW223181   3.290   9.376   4.344
 3843SOL     OW23182   1.545   8.405   2.113
 3843SOL    HW123183   1.533   8.314   2.074
 3843SOL    HW223184   1.536   8.401   2.212
 3844SOL     OW23185   3.993   9.791   0.452
 3844SOL    HW123186   3.938   9.862   0.497
 3844SOL    HW223187   3.946   9.760   0.370
 3845SOL     OW23188   3.699   6.297   7.596
 3845SOL    HW123189   3.778   6.241   7.622
 3845SOL    HW223190   3.626   6.239   7.562
 3846SOL     OW23191   0.321   6.730   7.886
 3846SOL    HW123192   0.274   6.711   7.800
 3846SOL    HW223193   0.415   6.759   7.867
 3847SOL     OW23194   9.732   1.470   4.182
 3847SOL    HW123195   9.814   1.526   4.174
 3847SOL    HW223196   9.695   1.477   4.274
 3848SOL     OW23197   1.991   6.233   1.220
 3848SOL    HW123198   2.062   6.188   1.167
 3848SOL    HW223199   1.914   6.171   1.233
 3849SOL     OW23200   8.754   4.023   3.084
 3849SOL    HW123201   8.746   4.066   3.174
 3849SOL    HW223202   8.663   3.992   3.054
 3850SOL     OW23203   9.796   7.221   0.448
 3850SOL    HW123204   9.774   7.318   0.458
 3850SOL    HW223205   9.892   7.206   0.474
 3851SOL     OW23206   6.709   9.255   7.014
 3851SOL    HW123207   6.611   9.235   7.025
 3851SOL    HW223208   6.760   9.170   7.010
 3852SOL     OW23209   4.564   9.225   1.902
 3852SOL    HW123210   4.647   9.178   1.932
 3852SOL    HW223211   4.525   9.274   1.979
 3853SOL     OW23212   9.782   3.028   1.510
 3853SOL    HW123213   9.774   3.030   1.610
 3853SOL    HW223214   9.796   2.934   1.480
 3854SOL     OW23215   3.347   2.369   2.661
 3854SOL    HW123216   3.365   2.431   2.584
 3854SOL    HW223217   3.265   2.315   2.641
 3855SOL     OW23218   1.149   7.667   0.091
 3855SOL    HW123219   1.118   7.576   0.118
 3855SOL    HW223220   1.248   7.666   0.078
 3856SOL     OW23221   9.291   9.456   3.074
 3856SOL    HW123222   9.244   9.369   3.092
 3856SOL    HW223223   9.268   9.522   3.145
 3857SOL     OW23224   2.290   2.808   1.843
 3857SOL    HW123225   2.283   2.716   1.804
 3857SOL    HW223226   2.350   2.863   1.787
 3858SOL     OW23227   9.652   3.875   5.718
 3858SOL    HW123228   9.644   3.856   5.816
 3858SOL    HW223229   9.668   3.789   5.669
 3859SOL     OW23230   2.118   2.770   7.683
 3859SOL    HW123231   2.042   2.823   7.721
 3859SOL    HW223232   2.129   2.793   7.587
 3860SOL     OW23233   2.423   1.045   5.821
 3860SOL    HW123234   2.362   1.115   5.786
 3860SOL    HW223235   2.449   1.067   5.916
 3861SOL     OW23236   2.907   2.242   3.391
 3861SOL    HW123237   2.954   2.320   3.351
 3861SOL    HW223238   2.964   2.202   3.463
 3862SOL     OW23239   0.812   7.773   0.386
 3862SOL    HW123240   0.849   7.747   0.475
 3862SOL    HW223241   0.722   7.816   0.399
 3863SOL     OW23242   7.814   6.656   5.359
 3863SOL    HW123243   7.790   6.625   5.267
 3863SOL    HW223244   7.868   6.585   5.405
 3864SOL     OW23245   9.710   0.179   0.369
 3864SOL    HW123246   9.693   0.217   0.460
 3864SOL    HW223247   9.683   0.246   0.300
 3865SOL     OW23248   3.257   9.737   2.119
 3865SOL    HW123249   3.279   9.831   2.095
 3865SOL    HW223250   3.158   9.727   2.129
 3866SOL     OW23251   8.174   0.733   2.463
 3866SOL    HW123252   8.164   0.779   2.551
 3866SOL    HW223253   8.091   0.681   2.442
 3867SOL     OW23254   0.655   0.863   0.571
 3867SOL    HW123255   0.642   0.934   0.501
 3867SOL    HW223256   0.588   0.877   0.644
 3868SOL     OW23257   3.925   6.094   1.326
 3868SOL    HW123258   3.909   6.156   1.249
 3868SOL    HW223259   3.916   6.145   1.412
 3869SOL     OW23260   0.309   7.689   1.970
 3869SOL    HW123261   0.282   7.720   1.879
 3869SOL    HW223262   0.379   7.750   2.006
 3870SOL     OW23263   0.244   8.990   0.519
 3870SOL    HW123264   0.184   8.909   0.522
 3870SOL    HW223265   0.304   8.990   0.600
 3871SOL     OW23266   9.806   8.175   2.819
 3871SOL    HW123267   9.769   8.155   2.909
 3871SOL    HW223268   9.736   8.220   2.763
 3872SOL     OW23269   3.054   9.289   5.727
 3872SOL    HW123270   3.107   9.239   5.658
 3872SOL    HW223271   2.969   9.321   5.686
 3873SOL     OW23272   0.782   6.579   1.518
 3873SOL    HW123273   0.843   6.507   1.551
 3873SOL    HW223274   0.809   6.666   1.558
 3874SOL     OW23275   1.148   9.365   4.704
 3874SOL    HW123276   1.095   9.421   4.641
 3874SOL    HW223277   1.088   9.334   4.779
 3875SOL     OW23278   2.367   9.124   1.146
 3875SOL    HW123279   2.452   9.171   1.123
 3875SOL    HW223280   2.358   9.041   1.090
 3876SOL     OW23281   0.827   0.826   6.397
 3876SOL    HW123282   0.871   0.838   6.486
 3876SOL    HW223283   0.733   0.796   6.410
 3877SOL     OW23284   0.732   2.825   1.043
 3877SOL    HW123285   0.635   2.804   1.059
 3877SOL    HW223286   0.742   2.874   0.956
 3878SOL     OW23287   6.338   4.298   0.362
 3878SOL    HW123288   6.335   4.198   0.371
 3878SOL    HW223289   6.295   4.339   0.442
 3879SOL     OW23290   1.557   0.413   5.675
 3879SOL    HW123291   1.531   0.333   5.622
 3879SOL    HW223292   1.522   0.405   5.768
 3880SOL     OW23293   4.876   9.541   4.339
 3880SOL    HW123294   4.971   9.535   4.309
 3880SOL    HW223295   4.858   9.633   4.375
 3881SOL     OW23296   3.109   6.817   0.097
 3881SOL    HW123297   3.023   6.843   0.142
 3881SOL    HW223298   3.153   6.899   0.060
 3882SOL     OW23299   4.874   1.984   0.254
 3882SOL    HW123300   4.855   2.073   0.296
 3882SOL    HW223301   4.965   1.986   0.213
 3883SOL     OW23302   9.295   8.751   2.287
 3883SOL    HW123303   9.384   8.758   2.331
 3883SOL    HW223304   9.305   8.772   2.190
 3884SOL     OW23305   7.619   0.706   7.546
 3884SOL    HW123306   7.714   0.681   7.530
 3884SOL    HW223307   7.575   0.639   7.605
 3885SOL     OW23308   4.143   7.730   4.549
 3885SOL    HW123309   4.154   7.829   4.559
 3885SOL    HW223310   4.137   7.707   4.452
 3886SOL     OW23311   9.232   0.295   7.228
 3886SOL    HW123312   9.146   0.334   7.196
 3886SOL    HW223313   9.286   0.264   7.150
 3887SOL     OW23314   9.928   8.850   5.706
 3887SOL    HW123315   9.939   8.948   5.722
 3887SOL    HW223316   9.905   8.804   5.792
 3888SOL     OW23317   8.471   4.185   7.246
 3888SOL    HW123318   8.396   4.207   7.309
 3888SOL    HW223319   8.554   4.231   7.278
 3889SOL     OW23320   0.519   4.747   1.647
 3889SOL    HW123321   0.525   4.836   1.692
 3889SOL    HW223322   0.598   4.733   1.588
 3890SOL     OW23323   2.683   3.505   3.889
 3890SOL    HW123324   2.753   3.538   3.953
 3890SOL    HW223325   2.722   3.496   3.798
 3891SOL     OW23326   2.413   0.535   2.650
 3891SOL    HW123327   2.378   0.441   2.638
 3891SOL    HW223328   2.505   0.532   2.689
 3892SOL     OW23329   8.330   2.495   0.847
 3892SOL    HW123330   8.351   2.592   0.834
 3892SOL    HW223331   8.411   2.440   0.824
 3893SOL     OW23332   4.086   4.846   2.734
 3893SOL    HW123333   4.076   4.938   2.696
 3893SOL    HW223334   4.155   4.849   2.807
 3894SOL     OW23335   3.795   2.976   3.171
 3894SOL    HW123336   3.801   2.965   3.072
 3894SOL    HW223337   3.861   3.045   3.201
 3895SOL     OW23338   5.406   4.927   1.239
 3895SOL    HW123339   5.370   4.927   1.146
 3895SOL    HW223340   5.375   5.009   1.287
 3896SOL     OW23341   7.191   0.281   3.430
 3896SOL    HW123342   7.240   0.284   3.342
 3896SOL    HW223343   7.195   0.188   3.467
 3897SOL     OW23344   1.528   0.936   6.413
 3897SOL    HW123345   1.474   0.929   6.497
 3897SOL    HW223346   1.625   0.931   6.435
 3898SOL     OW23347   1.817   5.810   0.421
 3898SOL    HW123348   1.751   5.808   0.496
 3898SOL    HW223349   1.907   5.781   0.455
 3899SOL     OW23350   1.898   6.010   7.206
 3899SOL    HW123351   1.871   5.962   7.289
 3899SOL    HW223352   1.838   5.984   7.131
 3900SOL     OW23353   5.692   1.412   7.911
 3900SOL    HW123354   5.689   1.401   7.811
 3900SOL    HW223355   5.661   1.328   7.955
 3901SOL     OW23356   4.910   7.257   4.602
 3901SOL    HW123357   4.845   7.181   4.614
 3901SOL    HW223358   4.869   7.328   4.546
 3902SOL     OW23359   6.032   9.876   7.539
 3902SOL    HW123360   5.954   9.919   7.495
 3902SOL    HW223361   6.103   9.857   7.471
 3903SOL     OW23362   8.580   4.703   6.148
 3903SOL    HW123363   8.636   4.648   6.210
 3903SOL    HW223364   8.577   4.659   6.059
 3904SOL     OW23365   8.954   3.829   3.061
 3904SOL    HW123366   8.889   3.904   3.068
 3904SOL    HW223367   8.908   3.742   3.078
 3905SOL     OW23368   2.770   5.496   4.927
 3905SOL    HW123369   2.835   5.428   4.962
 3905SOL    HW223370   2.804   5.533   4.841
 3906SOL     OW23371   8.013   9.130   5.011
 3906SOL    HW123372   7.953   9.157   5.086
 3906SOL    HW223373   8.081   9.202   4.995
 3907SOL     OW23374   3.477   5.506   7.515
 3907SOL    HW123375   3.397   5.508   7.574
 3907SOL    HW223376   3.504   5.600   7.494
 3908SOL     OW23377   6.542   3.433   2.477
 3908SOL    HW123378   6.475   3.507   2.474
 3908SOL    HW223379   6.537   3.387   2.565
 3909SOL     OW23380   1.523   1.844   1.041
 3909SOL    HW123381   1.470   1.872   1.121
 3909SOL    HW223382   1.463   1.805   0.971
 3910SOL     OW23383   3.823   4.350   6.679
 3910SOL    HW123384   3.885   4.397   6.615
 3910SOL    HW223385   3.779   4.417   6.737
 3911SOL     OW23386   2.962   2.225   4.036
 3911SOL    HW123387   2.924   2.175   4.114
 3911SOL    HW223388   3.028   2.292   4.069
 3912SOL     OW23389   7.460   0.927   7.616
 3912SOL    HW123390   7.376   0.874   7.624
 3912SOL    HW223391   7.537   0.865   7.601
 3913SOL     OW23392   5.395   3.804   7.692
 3913SOL    HW123393   5.358   3.777   7.603
 3913SOL    HW223394   5.479   3.858   7.678
 3914SOL     OW23395   7.654   9.422   2.169
 3914SOL    HW123396   7.645   9.455   2.075
 3914SOL    HW223397   7.732   9.359   2.174
 3915SOL     OW23398   8.109   6.788   4.546
 3915SOL    HW123399   8.184   6.726   4.523
 3915SOL    HW223400   8.113   6.808   4.644
 3916SOL     OW23401   1.799   8.511   1.498
 3916SOL    HW123402   1.882   8.469   1.462
 3916SOL    HW223403   1.816   8.544   1.591
 3917SOL     OW23404   0.238   0.423   2.958
 3917SOL    HW123405   0.210   0.513   2.924
 3917SOL    HW223406   0.217   0.416   3.055
 3918SOL     OW23407   3.071   9.078   1.205
 3918SOL    HW123408   3.060   9.007   1.275
 3918SOL    HW223409   3.165   9.077   1.171
 3919SOL     OW23410   2.952   2.419   4.993
 3919SOL    HW123411   2.898   2.497   4.960
 3919SOL    HW223412   2.899   2.369   5.062
 3920SOL     OW23413   3.689   4.383   1.999
 3920SOL    HW123414   3.673   4.380   1.900
 3920SOL    HW223415   3.633   4.455   2.040
 3921SOL     OW23416   5.838   4.902   1.854
 3921SOL    HW123417   5.844   5.002   1.849
 3921SOL    HW223418   5.771   4.876   1.923
 3922SOL     OW23419   3.382   5.043   5.542
 3922SOL    HW123420   3.443   4.998   5.607
 3922SOL    HW223421   3.342   5.124   5.584
 3923SOL     OW23422   0.588   1.486   5.906
 3923SOL    HW123423   0.558   1.486   5.810
 3923SOL    HW223424   0.685   1.512   5.911
 3924SOL     OW23425   1.043   5.639   1.072
 3924SOL    HW123426   1.075   5.702   1.143
 3924SOL    HW223427   0.974   5.684   1.016
 3925SOL     OW23428   4.532   0.071   3.008
 3925SOL    HW123429   4.472   0.041   3.082
 3925SOL    HW223430   4.560   0.166   3.024
 3926SOL     OW23431   9.545   1.967   0.121
 3926SOL    HW123432   9.470   1.935   0.064
 3926SOL    HW223433   9.623   1.905   0.111
 3927SOL     OW23434   0.125   6.978   4.554
 3927SOL    HW123435   0.207   6.920   4.554
 3927SOL    HW223436   0.048   6.926   4.519
 3928SOL     OW23437   1.584   9.390   2.622
 3928SOL    HW123438   1.650   9.394   2.698
 3928SOL    HW223439   1.631   9.362   2.539
 3929SOL     OW23440   6.642   8.743   5.594
 3929SOL    HW123441   6.718   8.785   5.644
 3929SOL    HW223442   6.559   8.798   5.608
 3930SOL     OW23443   3.489   8.002   2.313
 3930SOL    HW123444   3.542   7.918   2.324
 3930SOL    HW223445   3.538   8.078   2.358
 3931SOL     OW23446   7.828   3.165   2.311
 3931SOL    HW123447   7.767   3.102   2.263
 3931SOL    HW223448   7.866   3.230   2.245
 3932SOL     OW23449   7.293   5.828   4.227
 3932SOL    HW123450   7.260   5.751   4.281
 3932SOL    HW223451   7.255   5.825   4.135
 3933SOL     OW23452   3.890   4.826   1.022
 3933SOL    HW123453   3.893   4.731   0.992
 3933SOL    HW223454   3.864   4.884   0.945
 3934SOL     OW23455   2.867   7.862   5.532
 3934SOL    HW123456   2.966   7.880   5.530
 3934SOL    HW223457   2.842   7.805   5.454
 3935SOL     OW23458   1.581   9.432   6.254
 3935SOL    HW123459   1.626   9.521   6.261
 3935SOL    HW223460   1.498   9.431   6.310
 3936SOL     OW23461   9.547   2.866   7.760
 3936SOL    HW123462   9.528   2.876   7.662
 3936SOL    HW223463   9.645   2.861   7.775
 3937SOL     OW23464   2.285   1.980   5.699
 3937SOL    HW123465   2.204   1.956   5.752
 3937SOL    HW223466   2.342   1.899   5.687
 3938SOL     OW23467   0.109   7.979   6.557
 3938SOL    HW123468   0.193   8.032   6.548
 3938SOL    HW223469   0.082   7.943   6.468
 3939SOL     OW23470   6.240   9.237   1.870
 3939SOL    HW123471   6.193   9.153   1.845
 3939SOL    HW223472   6.330   9.240   1.827
 3940SOL     OW23473   3.759   3.873   1.777
 3940SOL    HW123474   3.682   3.814   1.800
 3940SOL    HW223475   3.799   3.911   1.860
 3941SOL     OW23476   7.464   2.918   1.602
 3941SOL    HW123477   7.398   2.851   1.567
 3941SOL    HW223478   7.416   2.984   1.660
 3942SOL     OW23479   7.377   7.293   6.132
 3942SOL    HW123480   7.389   7.194   6.121
 3942SOL    HW223481   7.456   7.341   6.095
 3943SOL     OW23482   0.066   0.563   1.584
 3943SOL    HW123483   0.005   0.520   1.651
 3943SOL    HW223484   0.132   0.496   1.551
 3944SOL     OW23485   3.107   8.170   7.675
 3944SOL    HW123486   3.200   8.158   7.708
 3944SOL    HW223487   3.102   8.145   7.578
 3945SOL     OW23488   0.563   7.976   7.014
 3945SOL    HW123489   0.524   8.037   7.084
 3945SOL    HW223490   0.498   7.967   6.938
 3946SOL     OW23491   1.791   5.873   7.417
 3946SOL    HW123492   1.820   5.780   7.444
 3946SOL    HW223493   1.696   5.871   7.387
 3947SOL     OW23494   8.976   8.833   7.266
 3947SOL    HW123495   9.061   8.780   7.254
 3947SOL    HW223496   8.995   8.929   7.251
 3948SOL     OW23497   1.467   2.438   0.167
 3948SOL    HW123498   1.440   2.438   0.263
 3948SOL    HW223499   1.536   2.367   0.152
 3949SOL     OW23500   4.130   0.867   6.191
 3949SOL    HW123501   4.115   0.887   6.288
 3949SOL    HW223502   4.223   0.835   6.177
 3950SOL     OW23503   2.339   6.594   6.519
 3950SOL    HW123504   2.366   6.516   6.577
 3950SOL    HW223505   2.294   6.560   6.436
 3951SOL     OW23506   7.987   6.174   0.834
 3951SOL    HW123507   7.888   6.165   0.843
 3951SOL    HW223508   8.014   6.268   0.856
 3952SOL     OW23509   2.511   3.038   3.264
 3952SOL    HW123510   2.424   3.077   3.235
 3952SOL    HW223511   2.520   2.946   3.226
 3953SOL     OW23512   1.676   9.998   2.898
 3953SOL    HW123513   1.584   9.967   2.873
 3953SOL    HW223514   1.673   0.095   2.923
 3954SOL     OW23515   5.822   8.225   3.878
 3954SOL    HW123516   5.733   8.203   3.837
 3954SOL    HW223517   5.823   8.197   3.973
 3955SOL     OW23518   9.255   6.730   6.766
 3955SOL    HW123519   9.271   6.759   6.671
 3955SOL    HW223520   9.230   6.634   6.767
 3956SOL     OW23521   1.117   2.758   3.595
 3956SOL    HW123522   1.037   2.767   3.535
 3956SOL    HW223523   1.185   2.699   3.552
 3957SOL     OW23524   2.156   1.497   3.950
 3957SOL    HW123525   2.112   1.448   4.026
 3957SOL    HW223526   2.166   1.436   3.872
 3958SOL     OW23527   2.992   9.997   1.724
 3958SOL    HW123528   3.084   0.026   1.752
 3958SOL    HW223529   2.993   9.970   1.628
 3959SOL     OW23530   2.112   0.950   7.249
 3959SOL    HW123531   2.057   0.871   7.277
 3959SOL    HW223532   2.197   0.953   7.302
 3960SOL     OW23533   8.747   1.651   2.668
 3960SOL    HW123534   8.669   1.672   2.728
 3960SOL    HW223535   8.797   1.572   2.704
 3961SOL     OW23536   4.320   8.007   5.794
 3961SOL    HW123537   4.257   8.084   5.786
 3961SOL    HW223538   4.303   7.942   5.721
 3962SOL     OW23539   4.951   8.967   6.583
 3962SOL    HW123540   4.915   9.018   6.661
 3962SOL    HW223541   5.046   8.942   6.600
 3963SOL     OW23542   9.658   1.308   5.738
 3963SOL    HW123543   9.605   1.393   5.736
 3963SOL    HW223544   9.658   1.268   5.647
 3964SOL     OW23545   1.159   3.341   5.770
 3964SOL    HW123546   1.191   3.316   5.861
 3964SOL    HW223547   1.130   3.437   5.770
 3965SOL     OW23548   0.656   5.125   1.697
 3965SOL    HW123549   0.722   5.193   1.662
 3965SOL    HW223550   0.563   5.154   1.674
 3966SOL     OW23551   8.321   4.075   4.207
 3966SOL    HW123552   8.407   4.047   4.166
 3966SOL    HW223553   8.248   4.012   4.179
 3967SOL     OW23554   8.660   9.678   3.684
 3967SOL    HW123555   8.627   9.768   3.714
 3967SOL    HW223556   8.729   9.645   3.748
 3968SOL     OW23557   8.820   2.947   4.926
 3968SOL    HW123558   8.863   2.958   4.836
 3968SOL    HW223559   8.736   2.893   4.917
 3969SOL     OW23560   3.562   9.717   1.812
 3969SOL    HW123561   3.466   9.691   1.801
 3969SOL    HW223562   3.572   9.770   1.896
 3970SOL     OW23563   0.387   0.323   0.280
 3970SOL    HW123564   0.375   0.224   0.291
 3970SOL    HW223565   0.481   0.348   0.304
 3971SOL     OW23566   1.129   3.407   3.863
 3971SOL    HW123567   1.206   3.377   3.919
 3971SOL    HW223568   1.053   3.433   3.922
 3972SOL     OW23569   6.523   3.493   0.624
 3972SOL    HW123570   6.447   3.431   0.647
 3972SOL    HW223571   6.492   3.559   0.557
 3973SOL     OW23572   1.159   7.116   1.354
 3973SOL    HW123573   1.072   7.070   1.339
 3973SOL    HW223574   1.181   7.174   1.276
 3974SOL     OW23575   3.725   5.148   3.146
 3974SOL    HW123576   3.745   5.114   3.054
 3974SOL    HW223577   3.687   5.073   3.201
 3975SOL     OW23578   8.508   2.063   0.703
 3975SOL    HW123579   8.569   1.986   0.720
 3975SOL    HW223580   8.415   2.038   0.732
 3976SOL     OW23581   1.309   4.046   2.681
 3976SOL    HW123582   1.212   4.054   2.705
 3976SOL    HW223583   1.326   3.953   2.647
 3977SOL     OW23584   8.876   4.145   1.971
 3977SOL    HW123585   8.940   4.208   1.927
 3977SOL    HW223586   8.782   4.176   1.954
 3978SOL     OW23587   3.457   0.519   1.679
 3978SOL    HW123588   3.442   0.584   1.606
 3978SOL    HW223589   3.445   0.564   1.768
 3979SOL     OW23590   1.985   5.671   5.784
 3979SOL    HW123591   1.945   5.631   5.867
 3979SOL    HW223592   1.911   5.694   5.720
 3980SOL     OW23593   3.753   6.335   3.671
 3980SOL    HW123594   3.739   6.388   3.588
 3980SOL    HW223595   3.677   6.271   3.684
 3981SOL     OW23596   1.795   5.213   1.254
 3981SOL    HW123597   1.740   5.237   1.174
 3981SOL    HW223598   1.865   5.282   1.269
 3982SOL     OW23599   9.030   1.112   4.467
 3982SOL    HW123600   9.034   1.040   4.536
 3982SOL    HW223601   9.106   1.100   4.403
 3983SOL     OW23602   1.578   3.396   6.241
 3983SOL    HW123603   1.599   3.350   6.155
 3983SOL    HW223604   1.479   3.403   6.252
 3984SOL     OW23605   2.507   7.991   3.639
 3984SOL    HW123606   2.590   7.942   3.612
 3984SOL    HW223607   2.457   8.019   3.558
 3985SOL     OW23608   5.732   8.802   7.487
 3985SOL    HW123609   5.659   8.750   7.531
 3985SOL    HW223610   5.743   8.890   7.534
 3986SOL     OW23611   0.087   3.846   5.196
 3986SOL    HW123612   9.987   3.842   5.193
 3986SOL    HW223613   0.120   3.907   5.124
 3987SOL     OW23614   2.506   2.501   2.739
 3987SOL    HW123615   2.463   2.511   2.829
 3987SOL    HW223616   2.478   2.578   2.681
 3988SOL     OW23617   3.781   2.259   0.158
 3988SOL    HW123618   3.875   2.233   0.140
 3988SOL    HW223619   3.779   2.338   0.219
 3989SOL     OW23620   8.725   7.422   5.946
 3989SOL    HW123621   8.634   7.382   5.953
 3989SOL    HW223622   8.786   7.359   5.898
 3990SOL     OW23623   9.073   9.296   6.851
 3990SOL    HW123624   9.054   9.356   6.929
 3990SOL    HW223625   9.170   9.269   6.852
 3991SOL     OW23626   3.029   7.317   1.645
 3991SOL    HW123627   3.078   7.339   1.729
 3991SOL    HW223628   3.030   7.218   1.630
 3992SOL     OW23629   4.959   7.128   1.407
 3992SOL    HW123630   4.948   7.173   1.318
 3992SOL    HW223631   5.048   7.084   1.412
 3993SOL     OW23632   8.332   7.620   4.757
 3993SOL    HW123633   8.358   7.625   4.853
 3993SOL    HW223634   8.242   7.579   4.748
 3994SOL     OW23635   1.367   4.727   5.979
 3994SOL    HW123636   1.424   4.809   5.984
 3994SOL    HW223637   1.371   4.690   5.886
 3995SOL     OW23638   0.390   2.198   2.194
 3995SOL    HW123639   0.468   2.140   2.172
 3995SOL    HW223640   0.305   2.148   2.174
 3996SOL     OW23641   1.057   9.360   6.188
 3996SOL    HW123642   1.048   9.417   6.106
 3996SOL    HW223643   0.968   9.323   6.213
 3997SOL     OW23644   1.723   0.825   0.209
 3997SOL    HW123645   1.772   0.910   0.226
 3997SOL    HW223646   1.731   0.765   0.289
 3998SOL     OW23647   2.215   5.152   3.459
 3998SOL    HW123648   2.228   5.251   3.471
 3998SOL    HW223649   2.241   5.105   3.543
 3999SOL     OW23650   7.422   9.638   6.428
 3999SOL    HW123651   7.412   9.733   6.399
 3999SOL    HW223652   7.479   9.589   6.362
 4000SOL     OW23653   0.040   3.831   4.367
 4000SOL    HW123654   0.105   3.761   4.338
 4000SOL    HW223655   9.997   3.874   4.287
 4001SOL     OW23656   9.794   5.819   1.455
 4001SOL    HW123657   9.803   5.804   1.553
 4001SOL    HW223658   9.882   5.802   1.410
 4002SOL     OW23659   9.613   3.205   7.177
 4002SOL    HW123660   9.546   3.181   7.248
 4002SOL    HW223661   9.625   3.305   7.177
 4003SOL     OW23662   9.677   1.948   6.697
 4003SOL    HW123663   9.597   1.961   6.638
 4003SOL    HW223664   9.646   1.920   6.789
 4004SOL     OW23665   1.027   7.208   2.630
 4004SOL    HW123666   0.956   7.183   2.564
 4004SOL    HW223667   1.097   7.138   2.632
 4005SOL     OW23668   3.835   0.920   7.331
 4005SOL    HW123669   3.852   0.929   7.233
 4005SOL    HW223670   3.794   0.831   7.350
 4006SOL     OW23671   9.953   4.307   6.543
 4006SOL    HW123672   0.049   4.335   6.546
 4006SOL    HW223673   9.922   4.282   6.635
 4007SOL     OW23674   0.946   2.239   5.528
 4007SOL    HW123675   1.030   2.223   5.477
 4007SOL    HW223676   0.947   2.332   5.566
 4008SOL     OW23677   2.533   7.242   2.953
 4008SOL    HW123678   2.607   7.177   2.970
 4008SOL    HW223679   2.571   7.333   2.937
 4009SOL     OW23680   7.177   1.350   2.336
 4009SOL    HW123681   7.168   1.263   2.384
 4009SOL    HW223682   7.262   1.350   2.283
 4010SOL     OW23683   5.915   5.413   1.752
 4010SOL    HW123684   5.976   5.426   1.674
 4010SOL    HW223685   5.909   5.316   1.775
 4011SOL     OW23686   8.437   0.257   5.970
 4011SOL    HW123687   8.386   0.325   5.918
 4011SOL    HW223688   8.505   0.213   5.911
 4012SOL     OW23689   1.491   7.608   3.789
 4012SOL    HW123690   1.470   7.520   3.747
 4012SOL    HW223691   1.557   7.594   3.863
 4013SOL     OW23692   4.915   6.442   2.189
 4013SOL    HW123693   4.946   6.533   2.160
 4013SOL    HW223694   4.815   6.440   2.192
 4014SOL     OW23695   2.878   7.629   4.079
 4014SOL    HW123696   2.817   7.650   4.155
 4014SOL    HW223697   2.839   7.664   3.994
 4015SOL     OW23698   7.179   1.357   7.577
 4015SOL    HW123699   7.092   1.354   7.529
 4015SOL    HW223700   7.230   1.273   7.561
 4016SOL     OW23701   9.319   0.941   5.196
 4016SOL    HW123702   9.352   0.942   5.102
 4016SOL    HW223703   9.323   0.848   5.232
 4017SOL     OW23704   8.768   8.041   5.242
 4017SOL    HW123705   8.838   8.110   5.226
 4017SOL    HW223706   8.719   8.023   5.157
 4018SOL     OW23707   4.996   9.713   3.948
 4018SOL    HW123708   4.944   9.634   3.915
 4018SOL    HW223709   5.092   9.704   3.921
 4019SOL     OW23710   0.773   3.562   7.826
 4019SOL    HW123711   0.723   3.486   7.866
 4019SOL    HW223712   0.859   3.530   7.788
 4020SOL     OW23713   9.721   6.186   6.248
 4020SOL    HW123714   9.792   6.137   6.198
 4020SOL    HW223715   9.649   6.214   6.185
 4021SOL     OW23716   5.300   3.827   1.745
 4021SOL    HW123717   5.323   3.830   1.842
 4021SOL    HW223718   5.245   3.906   1.721
 4022SOL     OW23719   2.260   4.901   2.074
 4022SOL    HW123720   2.235   4.810   2.107
 4022SOL    HW223721   2.186   4.965   2.094
 4023SOL     OW23722   8.406   5.714   4.598
 4023SOL    HW123723   8.383   5.740   4.691
 4023SOL    HW223724   8.346   5.640   4.568
 4024SOL     OW23725   2.485   5.584   4.641
 4024SOL    HW123726   2.486   5.534   4.555
 4024SOL    HW223727   2.498   5.520   4.717
 4025SOL     OW23728   0.404   2.842   7.741
 4025SOL    HW123729   0.502   2.828   7.732
 4025SOL    HW223730   0.386   2.924   7.795
 4026SOL     OW23731   4.520   4.843   2.798
 4026SOL    HW123732   4.618   4.855   2.817
 4026SOL    HW223733   4.496   4.891   2.714
 4027SOL     OW23734   9.847   6.024   3.422
 4027SOL    HW123735   9.938   6.053   3.452
 4027SOL    HW223736   9.804   5.969   3.494
 4028SOL     OW23737   5.394   7.728   4.607
 4028SOL    HW123738   5.418   7.723   4.510
 4028SOL    HW223739   5.376   7.636   4.642
 4029SOL     OW23740   0.674   0.642   5.590
 4029SOL    HW123741   0.651   0.557   5.637
 4029SOL    HW223742   0.746   0.689   5.640
 4030SOL     OW23743   2.628   0.752   4.294
 4030SOL    HW123744   2.617   0.782   4.389
 4030SOL    HW223745   2.707   0.692   4.287
 4031SOL     OW23746   1.526   3.137   4.072
 4031SOL    HW123747   1.623   3.156   4.057
 4031SOL    HW223748   1.496   3.067   4.007
 4032SOL     OW23749   8.771   4.497   2.991
 4032SOL    HW123750   8.802   4.402   2.992
 4032SOL    HW223751   8.672   4.500   3.007
 4033SOL     OW23752   4.373   0.758   6.114
 4033SOL    HW123753   4.385   0.663   6.144
 4033SOL    HW223754   4.460   0.806   6.118
 4034SOL     OW23755   4.005   4.331   4.893
 4034SOL    HW123756   4.044   4.256   4.946
 4034SOL    HW223757   3.938   4.295   4.828
 4035SOL     OW23758   4.394   3.706   4.841
 4035SOL    HW123759   4.341   3.743   4.765
 4035SOL    HW223760   4.435   3.781   4.893
 4036SOL     OW23761   5.574   5.499   0.959
 4036SOL    HW123762   5.565   5.406   0.994
 4036SOL    HW223763   5.561   5.498   0.860
 4037SOL     OW23764   5.601   4.555   7.701
 4037SOL    HW123765   5.526   4.497   7.733
 4037SOL    HW223766   5.587   4.577   7.605
 4038SOL     OW23767   7.086   6.942   3.055
 4038SOL    HW123768   7.175   6.919   3.094
 4038SOL    HW223769   7.061   7.035   3.081
 4039SOL     OW23770   2.277   0.158   1.900
 4039SOL    HW123771   2.194   0.212   1.911
 4039SOL    HW223772   2.278   0.116   1.809
 4040SOL     OW23773   7.797   0.250   3.662
 4040SOL    HW123774   7.794   0.345   3.634
 4040SOL    HW223775   7.710   0.205   3.639
 4041SOL     OW23776   9.230   1.075   4.271
 4041SOL    HW123777   9.160   1.105   4.207
 4041SOL    HW223778   9.286   1.004   4.229
 4042SOL     OW23779   5.414   8.538   7.423
 4042SOL    HW123780   5.353   8.460   7.437
 4042SOL    HW223781   5.380   8.594   7.348
 4043SOL     OW23782   4.919   0.596   7.776
 4043SOL    HW123783   4.992   0.535   7.744
 4043SOL    HW223784   4.832   0.565   7.737
 4044SOL     OW23785   5.969   8.663   2.355
 4044SOL    HW123786   6.002   8.585   2.300
 4044SOL    HW223787   5.903   8.630   2.422
 4045SOL     OW23788   1.336   0.410   2.949
 4045SOL    HW123789   1.289   0.458   2.875
 4045SOL    HW223790   1.434   0.424   2.942
 4046SOL     OW23791   1.438   1.672   7.052
 4046SOL    HW123792   1.518   1.637   7.004
 4046SOL    HW223793   1.461   1.757   7.099
 4047SOL     OW23794   0.599   2.913   7.222
 4047SOL    HW123795   0.526   2.948   7.280
 4047SOL    HW223796   0.688   2.931   7.265
 4048SOL     OW23797   1.804   1.737   7.448
 4048SOL    HW123798   1.837   1.711   7.357
 4048SOL    HW223799   1.830   1.668   7.515
 4049SOL     OW23800   3.680   5.714   4.497
 4049SOL    HW123801   3.727   5.780   4.438
 4049SOL    HW223802   3.663   5.756   4.586
 4050SOL     OW23803   7.029   3.122   7.918
 4050SOL    HW123804   7.072   3.210   7.899
 4050SOL    HW223805   6.955   3.107   7.853
 4051SOL     OW23806   4.152   2.124   5.289
 4051SOL    HW123807   4.203   2.039   5.305
 4051SOL    HW223808   4.094   2.143   5.369
 4052SOL     OW23809   8.534   0.920   6.879
 4052SOL    HW123810   8.486   0.852   6.823
 4052SOL    HW223811   8.556   1.000   6.822
 4053SOL     OW23812   8.611   9.401   3.186
 4053SOL    HW123813   8.613   9.500   3.193
 4053SOL    HW223814   8.554   9.363   3.259
 4054SOL     OW23815   3.212   7.162   0.843
 4054SOL    HW123816   3.228   7.244   0.789
 4054SOL    HW223817   3.213   7.185   0.941
 4055SOL     OW23818   2.155   5.034   6.235
 4055SOL    HW123819   2.116   5.122   6.209
 4055SOL    HW223820   2.084   4.964   6.233
 4056SOL     OW23821   3.354   2.026   7.457
 4056SOL    HW123822   3.298   1.972   7.394
 4056SOL    HW223823   3.422   2.078   7.405
 4057SOL     OW23824   5.107   8.504   3.155
 4057SOL    HW123825   5.123   8.598   3.124
 4057SOL    HW223826   5.110   8.443   3.077
 4058SOL     OW23827   5.378   1.233   7.125
 4058SOL    HW123828   5.459   1.189   7.163
 4058SOL    HW223829   5.388   1.242   7.025
 4059SOL     OW23830   3.254   8.528   6.252
 4059SOL    HW123831   3.163   8.529   6.294
 4059SOL    HW223832   3.253   8.466   6.173
 4060SOL     OW23833   8.852   4.627   6.527
 4060SOL    HW123834   8.810   4.703   6.576
 4060SOL    HW223835   8.919   4.582   6.586
 4061SOL     OW23836   8.743   6.545   1.131
 4061SOL    HW123837   8.780   6.453   1.118
 4061SOL    HW223838   8.817   6.607   1.158
 4062SOL     OW23839   7.036   5.691   2.465
 4062SOL    HW123840   6.960   5.736   2.418
 4062SOL    HW223841   7.113   5.754   2.472
 4063SOL     OW23842   5.022   3.576   4.918
 4063SOL    HW123843   5.014   3.675   4.933
 4063SOL    HW223844   4.964   3.550   4.840
 4064SOL     OW23845   0.918   5.248   6.036
 4064SOL    HW123846   0.890   5.308   5.961
 4064SOL    HW223847   0.838   5.228   6.094
 4065SOL     OW23848   6.762   9.876   4.767
 4065SOL    HW123849   6.703   9.921   4.834
 4065SOL    HW223850   6.857   9.887   4.795
 4066SOL     OW23851   4.412   5.020   1.817
 4066SOL    HW123852   4.345   4.947   1.814
 4066SOL    HW223853   4.464   5.021   1.731
 4067SOL     OW23854   0.561   7.875   0.726
 4067SOL    HW123855   0.526   7.945   0.788
 4067SOL    HW223856   0.532   7.785   0.757
 4068SOL     OW23857   0.567   9.155   1.819
 4068SOL    HW123858   0.592   9.061   1.845
 4068SOL    HW223859   0.529   9.155   1.727
 4069SOL     OW23860   4.085   6.877   1.090
 4069SOL    HW123861   4.183   6.862   1.101
 4069SOL    HW223862   4.068   6.975   1.075
 4070SOL     OW23863   3.287   3.713   3.154
 4070SOL    HW123864   3.295   3.799   3.204
 4070SOL    HW223865   3.275   3.638   3.220
 4071SOL     OW23866   7.425   3.639   2.193
 4071SOL    HW123867   7.498   3.689   2.239
 4071SOL    HW223868   7.449   3.623   2.098
 4072SOL     OW23869   8.544   0.670   4.711
 4072SOL    HW123870   8.561   0.658   4.613
 4072SOL    HW223871   8.464   0.729   4.723
 4073SOL     OW23872   9.305   9.949   6.211
 4073SOL    HW123873   9.323   9.850   6.211
 4073SOL    HW223874   9.359   9.993   6.282
 4074SOL     OW23875   0.248   9.763   2.771
 4074SOL    HW123876   0.344   9.756   2.799
 4074SOL    HW223877   0.197   9.815   2.838
 4075SOL     OW23878   9.398   5.294   0.922
 4075SOL    HW123879   9.389   5.197   0.900
 4075SOL    HW223880   9.426   5.304   1.017
 4076SOL     OW23881   2.326   9.941   4.598
 4076SOL    HW123882   2.366   9.850   4.606
 4076SOL    HW223883   2.332   9.988   4.686
 4077SOL     OW23884   2.128   8.427   7.800
 4077SOL    HW123885   2.116   8.329   7.782
 4077SOL    HW223886   2.052   8.477   7.759
 4078SOL     OW23887   5.571   0.294   6.287
 4078SOL    HW123888   5.543   0.292   6.191
 4078SOL    HW223889   5.490   0.295   6.345
 4079SOL     OW23890   2.822   6.975   1.342
 4079SOL    HW123891   2.816   7.030   1.425
 4079SOL    HW223892   2.909   6.992   1.297
 4080SOL     OW23893   4.424   9.964   7.202
 4080SOL    HW123894   4.442   9.951   7.104
 4080SOL    HW223895   4.396   9.876   7.242
 4081SOL     OW23896   2.248   2.146   3.020
 4081SOL    HW123897   2.278   2.054   2.995
 4081SOL    HW223898   2.299   2.177   3.101
 4082SOL     OW23899   4.740   6.386   0.985
 4082SOL    HW123900   4.766   6.292   1.008
 4082SOL    HW223901   4.725   6.438   1.070
 4083SOL     OW23902   4.550   8.476   1.505
 4083SOL    HW123903   4.463   8.433   1.531
 4083SOL    HW223904   4.533   8.557   1.450
 4084SOL     OW23905   1.624   5.607   0.027
 4084SOL    HW123906   1.708   5.616   0.080
 4084SOL    HW223907   1.571   5.530   0.061
 4085SOL     OW23908   9.165   3.908   5.060
 4085SOL    HW123909   9.089   3.937   5.001
 4085SOL    HW223910   9.153   3.948   5.151
 4086SOL     OW23911   9.751   9.058   6.442
 4086SOL    HW123912   9.733   9.149   6.405
 4086SOL    HW223913   9.696   8.990   6.392
 4087SOL     OW23914   8.818   1.906   2.920
 4087SOL    HW123915   8.857   1.824   2.961
 4087SOL    HW223916   8.890   1.975   2.908
 4088SOL     OW23917   7.439   1.231   5.439
 4088SOL    HW123918   7.345   1.259   5.457
 4088SOL    HW223919   7.495   1.251   5.519
 4089SOL     OW23920   3.288   2.433   3.364
 4089SOL    HW123921   3.279   2.391   3.455
 4089SOL    HW223922   3.374   2.485   3.360
 4090SOL     OW23923   4.062   2.947   0.650
 4090SOL    HW123924   4.081   2.895   0.567
 4090SOL    HW223925   4.143   2.999   0.676
 4091SOL     OW23926   3.404   6.581   5.443
 4091SOL    HW123927   3.415   6.671   5.403
 4091SOL    HW223928   3.493   6.546   5.472
 4092SOL     OW23929   2.284   1.724   1.023
 4092SOL    HW123930   2.309   1.731   0.926
 4092SOL    HW223931   2.367   1.716   1.078
 4093SOL     OW23932   1.403   5.345   1.208
 4093SOL    HW123933   1.329   5.377   1.149
 4093SOL    HW223934   1.416   5.411   1.283
 4094SOL     OW23935   3.032   8.914   5.615
 4094SOL    HW123936   3.092   8.923   5.694
 4094SOL    HW223937   3.079   8.866   5.542
 4095SOL     OW23938   1.959   0.243   4.288
 4095SOL    HW123939   2.006   0.156   4.307
 4095SOL    HW223940   1.916   0.277   4.371
 4096SOL     OW23941   4.281   5.609   0.107
 4096SOL    HW123942   4.189   5.597   0.143
 4096SOL    HW223943   4.335   5.527   0.125
 4097SOL     OW23944   7.787   8.566   5.739
 4097SOL    HW123945   7.751   8.659   5.744
 4097SOL    HW223946   7.831   8.552   5.650
 4098SOL     OW23947   1.639   9.563   6.758
 4098SOL    HW123948   1.690   9.480   6.740
 4098SOL    HW223949   1.547   9.556   6.719
 4099SOL     OW23950   5.584   8.706   2.141
 4099SOL    HW123951   5.509   8.741   2.198
 4099SOL    HW223952   5.547   8.669   2.056
 4100SOL     OW23953   3.093   5.766   2.386
 4100SOL    HW123954   3.059   5.672   2.387
 4100SOL    HW223955   3.192   5.765   2.379
 4101SOL     OW23956   0.896   0.742   4.262
 4101SOL    HW123957   0.907   0.760   4.164
 4101SOL    HW223958   0.853   0.821   4.306
 4102SOL     OW23959   7.580   9.517   6.237
 4102SOL    HW123960   7.579   9.528   6.138
 4102SOL    HW223961   7.587   9.420   6.260
 4103SOL     OW23962   9.728   7.516   5.880
 4103SOL    HW123963   9.728   7.495   5.978
 4103SOL    HW223964   9.822   7.525   5.848
 4104SOL     OW23965   0.509   2.447   3.761
 4104SOL    HW123966   0.487   2.357   3.800
 4104SOL    HW223967   0.445   2.468   3.688
 4105SOL     OW23968   3.930   2.541   3.495
 4105SOL    HW123969   3.916   2.494   3.582
 4105SOL    HW223970   3.956   2.636   3.512
 4106SOL     OW23971   2.802   5.425   6.058
 4106SOL    HW123972   2.752   5.510   6.072
 4106SOL    HW223973   2.772   5.358   6.126
 4107SOL     OW23974   5.310   1.370   5.309
 4107SOL    HW123975   5.379   1.431   5.347
 4107SOL    HW223976   5.355   1.300   5.253
 4108SOL     OW23977   0.965   6.112   4.953
 4108SOL    HW123978   1.027   6.034   4.948
 4108SOL    HW223979   0.946   6.146   4.861
 4109SOL     OW23980   4.066   4.320   7.658
 4109SOL    HW123981   4.072   4.243   7.721
 4109SOL    HW223982   4.150   4.326   7.605
 4110SOL     OW23983   7.304   2.963   3.707
 4110SOL    HW123984   7.397   2.984   3.738
 4110SOL    HW223985   7.265   3.044   3.664
 4111SOL     OW23986   1.513   8.767   7.895
 4111SOL    HW123987   1.608   8.792   7.877
 4111SOL    HW223988   1.456   8.850   7.894
 4112SOL     OW23989   4.231   3.818   6.039
 4112SOL    HW123990   4.319   3.866   6.042
 4112SOL    HW223991   4.238   3.732   6.089
 4113SOL     OW23992   6.474   0.786   7.401
 4113SOL    HW123993   6.545   0.719   7.377
 4113SOL    HW223994   6.401   0.783   7.332
 4114SOL     OW23995   1.406   7.865   7.676
 4114SOL    HW123996   1.474   7.795   7.655
 4114SOL    HW223997   1.450   7.955   7.682
 4115SOL     OW23998   2.185   5.850   3.362
 4115SOL    HW123999   2.108   5.904   3.395
 4115SOL    HW224000   2.161   5.807   3.275
 4116SOL     OW24001   0.279   6.387   6.640
 4116SOL    HW124002   0.340   6.310   6.658
 4116SOL    HW224003   0.333   6.469   6.624
 4117SOL     OW24004   3.753   2.352   6.430
 4117SOL    HW124005   3.718   2.258   6.435
 4117SOL    HW224006   3.836   2.359   6.485
 4118SOL     OW24007   1.249   3.254   6.010
 4118SOL    HW124008   1.224   3.246   6.106
 4118SOL    HW224009   1.326   3.192   5.990
 4119SOL     OW24010   5.266   3.054   7.381
 4119SOL    HW124011   5.215   3.001   7.314
 4119SOL    HW224012   5.329   2.994   7.430
 4120SOL     OW24013   2.313   9.593   0.700
 4120SOL    HW124014   2.294   9.509   0.752
 4120SOL    HW224015   2.256   9.595   0.618
 4121SOL     OW24016   2.214   6.324   7.765
 4121SOL    HW124017   2.250   6.414   7.794
 4121SOL    HW224018   2.272   6.287   7.693
 4122SOL     OW24019   6.784   7.937   4.267
 4122SOL    HW124020   6.867   7.883   4.251
 4122SOL    HW224021   6.788   7.975   4.359
 4123SOL     OW24022   2.359   7.885   1.783
 4123SOL    HW124023   2.304   7.881   1.700
 4123SOL    HW224024   2.369   7.793   1.821
 4124SOL     OW24025   3.345   9.156   7.581
 4124SOL    HW124026   3.348   9.080   7.516
 4124SOL    HW224027   3.321   9.240   7.533
 4125SOL     OW24028   4.133   5.797   0.384
 4125SOL    HW124029   4.226   5.774   0.413
 4125SOL    HW224030   4.095   5.722   0.330
 4126SOL     OW24031   8.441   8.855   2.636
 4126SOL    HW124032   8.449   8.880   2.732
 4126SOL    HW224033   8.351   8.815   2.619
 4127SOL     OW24034   0.899   6.716   7.436
 4127SOL    HW124035   0.878   6.674   7.348
 4127SOL    HW224036   0.989   6.683   7.467
 4128SOL     OW24037   8.785   8.222   7.494
 4128SOL    HW124038   8.815   8.218   7.589
 4128SOL    HW224039   8.739   8.137   7.469
 4129SOL     OW24040   6.762   4.789   0.831
 4129SOL    HW124041   6.764   4.762   0.927
 4129SOL    HW224042   6.850   4.767   0.789
 4130SOL     OW24043   7.357   4.350   1.636
 4130SOL    HW124044   7.383   4.387   1.725
 4130SOL    HW224045   7.396   4.258   1.625
 4131SOL     OW24046   0.783   9.923   7.282
 4131SOL    HW124047   0.795   9.839   7.229
 4131SOL    HW224048   0.796   0.002   7.223
 4132SOL     OW24049   3.525   4.801   0.859
 4132SOL    HW124050   3.545   4.712   0.818
 4132SOL    HW224051   3.432   4.800   0.897
 4133SOL     OW24052   0.695   1.160   4.576
 4133SOL    HW124053   0.598   1.185   4.587
 4133SOL    HW224054   0.729   1.121   4.662
 4134SOL     OW24055   8.436   5.322   4.635
 4134SOL    HW124056   8.406   5.358   4.724
 4134SOL    HW224057   8.455   5.224   4.643
 4135SOL     OW24058   4.748   2.146   7.221
 4135SOL    HW124059   4.736   2.184   7.129
 4135SOL    HW224060   4.843   2.160   7.250
 4136SOL     OW24061   3.400   6.108   1.882
 4136SOL    HW124062   3.452   6.163   1.948
 4136SOL    HW224063   3.338   6.167   1.831
 4137SOL     OW24064   6.132   2.508   5.109
 4137SOL    HW124065   6.129   2.591   5.053
 4137SOL    HW224066   6.157   2.430   5.052
 4138SOL     OW24067   4.777   7.855   4.273
 4138SOL    HW124068   4.755   7.758   4.269
 4138SOL    HW224069   4.855   7.869   4.334
 4139SOL     OW24070   7.774   7.801   6.355
 4139SOL    HW124071   7.679   7.771   6.357
 4139SOL    HW224072   7.789   7.860   6.276
 4140SOL     OW24073   9.992   7.558   3.039
 4140SOL    HW124074   0.064   7.490   3.029
 4140SOL    HW224075   0.024   7.646   3.005
 4141SOL     OW24076   3.009   1.118   5.794
 4141SOL    HW124077   3.029   1.040   5.853
 4141SOL    HW224078   3.094   1.152   5.753
 4142SOL     OW24079   3.332   2.746   4.607
 4142SOL    HW124080   3.270   2.668   4.615
 4142SOL    HW224081   3.389   2.736   4.525
 4143SOL     OW24082   2.840   7.784   0.634
 4143SOL    HW124083   2.777   7.853   0.598
 4143SOL    HW224084   2.897   7.825   0.705
 4144SOL     OW24085   4.756   5.909   1.910
 4144SOL    HW124086   4.723   5.919   2.004
 4144SOL    HW224087   4.764   5.999   1.868
 4145SOL     OW24088   6.249   0.454   7.262
 4145SOL    HW124089   6.338   0.449   7.217
 4145SOL    HW224090   6.177   0.426   7.197
 4146SOL     OW24091   1.672   7.798   5.331
 4146SOL    HW124092   1.733   7.850   5.271
 4146SOL    HW224093   1.580   7.793   5.290
 4147SOL     OW24094   8.204   5.890   7.456
 4147SOL    HW124095   8.271   5.819   7.477
 4147SOL    HW224096   8.171   5.931   7.541
 4148SOL     OW24097   5.453   4.019   2.415
 4148SOL    HW124098   5.390   4.017   2.338
 4148SOL    HW224099   5.443   4.105   2.465
 4149SOL     OW24100   3.872   2.930   6.630
 4149SOL    HW124101   3.967   2.916   6.659
 4149SOL    HW224102   3.870   2.991   6.550
 4150SOL     OW24103   1.659   0.489   5.004
 4150SOL    HW124104   1.653   0.554   4.928
 4150SOL    HW224105   1.571   0.488   5.052
 4151SOL     OW24106   3.470   0.356   4.848
 4151SOL    HW124107   3.497   0.315   4.935
 4151SOL    HW224108   3.392   0.305   4.810
 4152SOL     OW24109   7.362   9.215   6.222
 4152SOL    HW124110   7.333   9.123   6.248
 4152SOL    HW224111   7.455   9.231   6.253
 4153SOL     OW24112   3.647   3.410   0.920
 4153SOL    HW124113   3.560   3.415   0.871
 4153SOL    HW224114   3.660   3.495   0.972
 4154SOL     OW24115   0.085   8.074   7.371
 4154SOL    HW124116   9.988   8.051   7.363
 4154SOL    HW224117   0.122   8.034   7.455
 4155SOL     OW24118   4.213   0.356   6.789
 4155SOL    HW124119   4.277   0.406   6.731
 4155SOL    HW224120   4.217   0.259   6.765
 4156SOL     OW24121   4.244   9.333   6.538
 4156SOL    HW124122   4.174   9.296   6.599
 4156SOL    HW224123   4.300   9.398   6.589
 4157SOL     OW24124   2.773   0.395   4.449
 4157SOL    HW124125   2.852   0.404   4.509
 4157SOL    HW224126   2.694   0.439   4.492
 4158SOL     OW24127   2.520   9.948   2.632
 4158SOL    HW124128   2.437   9.931   2.578
 4158SOL    HW224129   2.552   0.041   2.615
 4159SOL     OW24130   4.616   8.047   2.267
 4159SOL    HW124131   4.543   8.115   2.260
 4159SOL    HW224132   4.704   8.090   2.247
 4160SOL     OW24133   2.203   3.489   6.710
 4160SOL    HW124134   2.173   3.393   6.704
 4160SOL    HW224135   2.180   3.536   6.625
 4161SOL     OW24136   5.632   9.355   3.358
 4161SOL    HW124137   5.701   9.297   3.402
 4161SOL    HW224138   5.650   9.357   3.259
 4162SOL     OW24139   2.015   1.326   4.113
 4162SOL    HW124140   1.924   1.322   4.154
 4162SOL    HW224141   2.025   1.251   4.047
 4163SOL     OW24142   2.603   2.310   0.668
 4163SOL    HW124143   2.558   2.386   0.621
 4163SOL    HW224144   2.669   2.268   0.606
 4164SOL     OW24145   3.757   0.704   4.840
 4164SOL    HW124146   3.658   0.687   4.830
 4164SOL    HW224147   3.773   0.765   4.917
 4165SOL     OW24148   7.586   0.339   7.301
 4165SOL    HW124149   7.604   0.297   7.390
 4165SOL    HW224150   7.509   0.402   7.309
 4166SOL     OW24151   0.937   0.115   6.851
 4166SOL    HW124152   0.863   0.097   6.786
 4166SOL    HW224153   0.989   0.031   6.867
 4167SOL     OW24154   6.924   4.358   2.724
 4167SOL    HW124155   6.957   4.266   2.744
 4167SOL    HW224156   6.833   4.370   2.764
 4168SOL     OW24157   1.695   9.948   6.218
 4168SOL    HW124158   1.689   9.943   6.118
 4168SOL    HW224159   1.755   0.023   6.244
 4169SOL     OW24160   9.342   6.065   2.434
 4169SOL    HW124161   9.291   6.022   2.509
 4169SOL    HW224162   9.332   6.164   2.441
 4170SOL     OW24163   1.251   4.597   0.900
 4170SOL    HW124164   1.170   4.655   0.900
 4170SOL    HW224165   1.285   4.586   0.807
 4171SOL     OW24166   2.158   7.050   0.860
 4171SOL    HW124167   2.256   7.067   0.870
 4171SOL    HW224168   2.133   6.971   0.916
 4172SOL     OW24169   0.802   5.800   2.551
 4172SOL    HW124170   0.819   5.743   2.471
 4172SOL    HW224171   0.791   5.741   2.631
 4173SOL     OW24172   7.691   6.613   0.676
 4173SOL    HW124173   7.736   6.652   0.756
 4173SOL    HW224174   7.734   6.649   0.593
 4174SOL     OW24175   0.365   3.429   0.729
 4174SOL    HW124176   0.295   3.386   0.787
 4174SOL    HW224177   0.350   3.528   0.726
 4175SOL     OW24178   9.512   4.901   0.261
 4175SOL    HW124179   9.605   4.865   0.262
 4175SOL    HW224180   9.481   4.910   0.166
 4176SOL     OW24181   8.325   8.977   0.987
 4176SOL    HW124182   8.309   9.066   0.945
 4176SOL    HW224183   8.411   8.979   1.038
 4177SOL     OW24184   6.882   4.489   0.122
 4177SOL    HW124185   6.928   4.402   0.105
 4177SOL    HW224186   6.784   4.472   0.135
 4178SOL     OW24187   2.248   7.764   6.292
 4178SOL    HW124188   2.223   7.675   6.331
 4178SOL    HW224189   2.347   7.778   6.303
 4179SOL     OW24190   4.883   7.505   5.767
 4179SOL    HW124191   4.945   7.516   5.845
 4179SOL    HW224192   4.934   7.465   5.690
 4180SOL     OW24193   8.745   8.435   2.605
 4180SOL    HW124194   8.679   8.366   2.573
 4180SOL    HW224195   8.712   8.526   2.580
 4181SOL     OW24196   0.925   5.530   6.695
 4181SOL    HW124197   0.928   5.578   6.782
 4181SOL    HW224198   0.881   5.589   6.626
 4182SOL     OW24199   5.706   9.345   3.089
 4182SOL    HW124200   5.786   9.288   3.078
 4182SOL    HW224201   5.712   9.424   3.027
 4183SOL     OW24202   0.917   9.627   6.581
 4183SOL    HW124203   0.909   9.707   6.521
 4183SOL    HW224204   0.994   9.570   6.550
 4184SOL     OW24205   7.044   3.692   2.517
 4184SOL    HW124206   6.998   3.672   2.430
 4184SOL    HW224207   7.069   3.789   2.520
 4185SOL     OW24208   4.609   0.849   5.333
 4185SOL    HW124209   4.562   0.796   5.404
 4185SOL    HW224210   4.625   0.942   5.367
 4186SOL     OW24211   0.282   8.628   5.444
 4186SOL    HW124212   0.259   8.531   5.448
 4186SOL    HW224213   0.240   8.675   5.522
 4187SOL     OW24214   1.005   5.576   1.941
 4187SOL    HW124215   0.974   5.535   1.855
 4187SOL    HW224216   0.926   5.604   1.995
 4188SOL     OW24217   9.278   7.450   6.346
 4188SOL    HW124218   9.242   7.540   6.324
 4188SOL    HW224219   9.202   7.385   6.351
 4189SOL     OW24220   0.785   1.243   2.148
 4189SOL    HW124221   0.801   1.332   2.104
 4189SOL    HW224222   0.873   1.203   2.175
 4190SOL     OW24223   4.086   9.071   5.976
 4190SOL    HW124224   4.083   9.171   5.984
 4190SOL    HW224225   4.091   9.046   5.880
 4191SOL     OW24226   4.068   3.764   0.774
 4191SOL    HW124227   4.140   3.698   0.795
 4191SOL    HW224228   3.990   3.749   0.836
 4192SOL     OW24229   0.724   2.205   2.560
 4192SOL    HW124230   0.629   2.207   2.589
 4192SOL    HW224231   0.740   2.279   2.494
 4193SOL     OW24232   0.703   5.207   4.379
 4193SOL    HW124233   0.641   5.171   4.448
 4193SOL    HW224234   0.650   5.236   4.299
 4194SOL     OW24235   0.784   0.653   4.978
 4194SOL    HW124236   0.709   0.667   5.044
 4194SOL    HW224237   0.840   0.736   4.975
 4195SOL     OW24238   4.436   5.189   0.423
 4195SOL    HW124239   4.518   5.241   0.448
 4195SOL    HW224240   4.428   5.186   0.323
 4196SOL     OW24241   3.966   8.903   3.709
 4196SOL    HW124242   3.921   8.992   3.703
 4196SOL    HW224243   4.064   8.915   3.722
 4197SOL     OW24244   4.730   8.344   1.101
 4197SOL    HW124245   4.738   8.248   1.076
 4197SOL    HW224246   4.635   8.364   1.126
 4198SOL     OW24247   7.184   7.783   5.823
 4198SOL    HW124248   7.162   7.694   5.783
 4198SOL    HW224249   7.281   7.785   5.847
 4199SOL     OW24250   0.167   2.761   7.238
 4199SOL    HW124251   0.122   2.674   7.216
 4199SOL    HW224252   0.250   2.770   7.183
 4200SOL     OW24253   4.754   9.865   2.366
 4200SOL    HW124254   4.851   9.844   2.358
 4200SOL    HW224255   4.712   9.863   2.275
 4201SOL     OW24256   4.100   5.198   4.931
 4201SOL    HW124257   4.028   5.266   4.946
 4201SOL    HW224258   4.151   5.222   4.848
 4202SOL     OW24259   0.709   6.275   6.641
 4202SOL    HW124260   0.616   6.245   6.662
 4202SOL    HW224261   0.734   6.247   6.548
 4203SOL     OW24262   8.800   6.779   4.067
 4203SOL    HW124263   8.781   6.865   4.021
 4203SOL    HW224264   8.898   6.775   4.090
 4204SOL     OW24265   3.961   2.294   7.697
 4204SOL    HW124266   4.012   2.304   7.611
 4204SOL    HW224267   3.884   2.233   7.683
 4205SOL     OW24268   8.008   1.447   1.426
 4205SOL    HW124269   8.078   1.400   1.480
 4205SOL    HW224270   8.041   1.459   1.333
 4206SOL     OW24271   5.981   3.537   2.694
 4206SOL    HW124272   5.881   3.542   2.687
 4206SOL    HW224273   6.021   3.552   2.604
 4207SOL     OW24274   2.971   0.750   4.478
 4207SOL    HW124275   2.938   0.702   4.396
 4207SOL    HW224276   2.922   0.836   4.487
 4208SOL     OW24277   9.151   2.594   7.340
 4208SOL    HW124278   9.083   2.667   7.329
 4208SOL    HW224279   9.108   2.515   7.383
 4209SOL     OW24280   2.480   6.437   6.213
 4209SOL    HW124281   2.500   6.343   6.185
 4209SOL    HW224282   2.563   6.480   6.248
 4210SOL     OW24283   8.597   9.293   2.070
 4210SOL    HW124284   8.530   9.361   2.043
 4210SOL    HW224285   8.650   9.265   1.989
 4211SOL     OW24286   8.096   9.085   7.185
 4211SOL    HW124287   8.122   9.101   7.089
 4211SOL    HW224288   8.069   9.171   7.227
 4212SOL     OW24289   9.057   9.859   0.991
 4212SOL    HW124290   9.035   9.924   1.063
 4212SOL    HW224291   8.973   9.829   0.946
 4213SOL     OW24292   0.924   9.812   6.375
 4213SOL    HW124293   0.902   9.904   6.342
 4213SOL    HW224294   1.023   9.800   6.375
 4214SOL     OW24295   7.387   4.488   2.194
 4214SOL    HW124296   7.439   4.496   2.279
 4214SOL    HW224297   7.361   4.393   2.179
 4215SOL     OW24298   9.982   1.170   6.533
 4215SOL    HW124299   0.045   1.141   6.605
 4215SOL    HW224300   9.996   1.116   6.451
 4216SOL     OW24301   0.719   3.222   6.192
 4216SOL    HW124302   0.665   3.292   6.145
 4216SOL    HW224303   0.660   3.145   6.216
 4217SOL     OW24304   5.082   4.884   1.482
 4217SOL    HW124305   5.046   4.957   1.423
 4217SOL    HW224306   5.151   4.923   1.544
 4218SOL     OW24307   3.726   0.723   1.071
 4218SOL    HW124308   3.800   0.772   1.025
 4218SOL    HW224309   3.669   0.789   1.120
 4219SOL     OW24310   6.087   7.861   2.375
 4219SOL    HW124311   6.157   7.933   2.370
 4219SOL    HW224312   6.036   7.870   2.460
 4220SOL     OW24313   0.012   1.684   6.118
 4220SOL    HW124314   0.065   1.690   6.034
 4220SOL    HW224315   9.989   1.588   6.135
 4221SOL     OW24316   0.747   8.142   6.902
 4221SOL    HW124317   0.689   8.074   6.946
 4221SOL    HW224318   0.696   8.227   6.889
 4222SOL     OW24319   9.401   7.767   6.868
 4222SOL    HW124320   9.331   7.822   6.823
 4222SOL    HW224321   9.483   7.765   6.812
 4223SOL     OW24322   2.695   4.466   3.515
 4223SOL    HW124323   2.746   4.547   3.543
 4223SOL    HW224324   2.656   4.421   3.595
 4224SOL     OW24325   9.510   4.316   5.149
 4224SOL    HW124326   9.422   4.360   5.166
 4224SOL    HW224327   9.531   4.254   5.225
 4225SOL     OW24328   0.389   5.798   6.155
 4225SOL    HW124329   0.450   5.814   6.077
 4225SOL    HW224330   0.403   5.869   6.224
 4226SOL     OW24331   9.010   1.393   4.440
 4226SOL    HW124332   8.967   1.445   4.514
 4226SOL    HW224333   9.016   1.297   4.465
 4227SOL     OW24334   9.069   9.401   2.263
 4227SOL    HW124335   9.012   9.450   2.328
 4227SOL    HW224336   9.165   9.418   2.282
 4228SOL     OW24337   0.098   2.506   7.152
 4228SOL    HW124338   0.131   2.419   7.115
 4228SOL    HW224339   0.018   2.536   7.099
 4229SOL     OW24340   0.609   4.834   4.635
 4229SOL    HW124341   0.696   4.813   4.591
 4229SOL    HW224342   0.537   4.780   4.592
 4230SOL     OW24343   0.535   6.620   0.674
 4230SOL    HW124344   0.541   6.713   0.636
 4230SOL    HW224345   0.475   6.564   0.616
 4231SOL     OW24346   7.640   6.845   7.475
 4231SOL    HW124347   7.704   6.916   7.506
 4231SOL    HW224348   7.570   6.831   7.545
 4232SOL     OW24349   8.649   6.777   1.375
 4232SOL    HW124350   8.561   6.762   1.421
 4232SOL    HW224351   8.719   6.721   1.420
 4233SOL     OW24352   1.715   6.405   1.792
 4233SOL    HW124353   1.784   6.403   1.719
 4233SOL    HW224354   1.628   6.437   1.754
 4234SOL     OW24355   3.358   0.392   3.875
 4234SOL    HW124356   3.304   0.390   3.959
 4234SOL    HW224357   3.416   0.310   3.870
 4235SOL     OW24358   6.220   1.331   6.777
 4235SOL    HW124359   6.317   1.358   6.778
 4235SOL    HW224360   6.164   1.409   6.750
 4236SOL     OW24361   8.317   8.553   3.620
 4236SOL    HW124362   8.389   8.526   3.556
 4236SOL    HW224363   8.245   8.601   3.571
 4237SOL     OW24364   9.239   0.003   2.409
 4237SOL    HW124365   9.224   0.040   2.500
 4237SOL    HW224366   9.322   0.044   2.370
 4238SOL     OW24367   9.990   9.970   4.087
 4238SOL    HW124368   0.028   9.945   3.998
 4238SOL    HW224369   0.055   0.026   4.137
 4239SOL     OW24370   1.199   1.211   0.145
 4239SOL    HW124371   1.150   1.128   0.170
 4239SOL    HW224372   1.240   1.251   0.228
 4240SOL     OW24373   5.137   4.576   7.663
 4240SOL    HW124374   5.131   4.491   7.611
 4240SOL    HW224375   5.094   4.650   7.611
 4241SOL     OW24376   6.874   0.413   5.286
 4241SOL    HW124377   6.863   0.315   5.303
 4241SOL    HW224378   6.784   0.457   5.287
 4242SOL     OW24379   4.411   0.460   3.271
 4242SOL    HW124380   4.398   0.553   3.235
 4242SOL    HW224381   4.430   0.465   3.370
 4243SOL     OW24382   9.814   2.994   5.394
 4243SOL    HW124383   9.788   2.953   5.482
 4243SOL    HW224384   9.800   3.093   5.398
 4244SOL     OW24385   2.642   2.855   1.861
 4244SOL    HW124386   2.637   2.756   1.872
 4244SOL    HW224387   2.573   2.885   1.795
 4245SOL     OW24388   2.278   3.337   0.647
 4245SOL    HW124389   2.270   3.258   0.708
 4245SOL    HW224390   2.337   3.315   0.570
 4246SOL     OW24391   4.127   3.507   0.243
 4246SOL    HW124392   4.203   3.464   0.292
 4246SOL    HW224393   4.154   3.600   0.214
 4247SOL     OW24394   7.757   0.464   3.294
 4247SOL    HW124395   7.839   0.466   3.237
 4247SOL    HW224396   7.716   0.373   3.291
 4248SOL     OW24397   2.711   6.700   1.503
 4248SOL    HW124398   2.730   6.711   1.406
 4248SOL    HW224399   2.774   6.758   1.556
 4249SOL     OW24400   2.808   7.225   2.763
 4249SOL    HW124401   2.814   7.173   2.678
 4249SOL    HW224402   2.784   7.164   2.839
 4250SOL     OW24403   2.130   4.997   4.935
 4250SOL    HW124404   2.108   5.092   4.914
 4250SOL    HW224405   2.229   4.984   4.932
 4251SOL     OW24406   9.054   2.873   0.966
 4251SOL    HW124407   9.030   2.942   1.034
 4251SOL    HW224408   9.137   2.824   0.996
 4252SOL     OW24409   8.025   7.531   5.750
 4252SOL    HW124410   7.976   7.618   5.747
 4252SOL    HW224411   8.059   7.508   5.659
 4253SOL     OW24412   1.710   8.959   0.127
 4253SOL    HW124413   1.703   8.972   0.226
 4253SOL    HW224414   1.670   8.871   0.102
 4254SOL     OW24415   8.887   4.952   6.026
 4254SOL    HW124416   8.912   4.855   6.018
 4254SOL    HW224417   8.884   4.994   5.935
 4255SOL     OW24418   8.970   5.382   5.052
 4255SOL    HW124419   9.051   5.324   5.045
 4255SOL    HW224420   8.998   5.475   5.079
 4256SOL     OW24421   7.755   9.807   7.858
 4256SOL    HW124422   7.801   9.777   7.941
 4256SOL    HW224423   7.662   9.769   7.856
 4257SOL     OW24424   1.817   4.418   0.743
 4257SOL    HW124425   1.753   4.454   0.675
 4257SOL    HW224426   1.799   4.320   0.757
 4258SOL     OW24427   9.964   0.908   5.374
 4258SOL    HW124428   0.050   0.882   5.331
 4258SOL    HW224429   9.908   0.827   5.389
 4259SOL     OW24430   1.973   7.089   7.884
 4259SOL    HW124431   1.924   7.176   7.876
 4259SOL    HW224432   2.052   7.088   7.822
 4260SOL     OW24433   8.029   6.480   2.571
 4260SOL    HW124434   8.084   6.509   2.492
 4260SOL    HW224435   7.943   6.441   2.539
 4261SOL     OW24436   6.450   7.483   4.611
 4261SOL    HW124437   6.512   7.550   4.570
 4261SOL    HW224438   6.394   7.528   4.681
 4262SOL     OW24439   3.102   5.932   0.618
 4262SOL    HW124440   3.133   5.943   0.523
 4262SOL    HW224441   3.006   5.958   0.625
 4263SOL     OW24442   8.634   2.389   3.638
 4263SOL    HW124443   8.721   2.345   3.659
 4263SOL    HW224444   8.631   2.411   3.540
 4264SOL     OW24445   1.016   1.785   7.705
 4264SOL    HW124446   0.971   1.832   7.628
 4264SOL    HW224447   0.994   1.833   7.790
 4265SOL     OW24448   7.069   0.650   0.363
 4265SOL    HW124449   7.060   0.570   0.305
 4265SOL    HW224450   6.987   0.661   0.419
 4266SOL     OW24451   5.515   9.974   7.744
 4266SOL    HW124452   5.579   9.914   7.696
 4266SOL    HW224453   5.446   9.919   7.791
 4267SOL     OW24454   4.626   8.417   3.136
 4267SOL    HW124455   4.705   8.428   3.075
 4267SOL    HW224456   4.549   8.468   3.100
 4268SOL     OW24457   2.132   5.257   1.594
 4268SOL    HW124458   2.159   5.318   1.519
 4268SOL    HW224459   2.103   5.169   1.557
 4269SOL     OW24460   6.961   1.869   2.800
 4269SOL    HW124461   6.949   1.804   2.724
 4269SOL    HW224462   6.980   1.960   2.763
 4270SOL     OW24463   9.942   6.840   4.378
 4270SOL    HW124464   0.003   6.873   4.306
 4270SOL    HW224465   9.958   6.743   4.393
 4271SOL     OW24466   8.029   0.239   1.488
 4271SOL    HW124467   7.960   0.176   1.452
 4271SOL    HW224468   8.111   0.187   1.512
 4272SOL     OW24469   9.452   6.538   6.421
 4272SOL    HW124470   9.411   6.620   6.460
 4272SOL    HW224471   9.523   6.565   6.355
 4273SOL     OW24472   9.696   9.170   5.072
 4273SOL    HW124473   9.704   9.237   4.998
 4273SOL    HW224474   9.667   9.083   5.034
 4274SOL     OW24475   3.801   7.671   6.390
 4274SOL    HW124476   3.863   7.711   6.457
 4274SOL    HW224477   3.745   7.600   6.433
 4275SOL     OW24478   8.202   7.994   2.972
 4275SOL    HW124479   8.164   7.956   2.887
 4275SOL    HW224480   8.300   8.010   2.961
 4276SOL     OW24481   0.853   6.190   4.195
 4276SOL    HW124482   0.926   6.121   4.196
 4276SOL    HW224483   0.859   6.244   4.111
 4277SOL     OW24484   1.696   6.464   6.866
 4277SOL    HW124485   1.663   6.508   6.783
 4277SOL    HW224486   1.705   6.365   6.850
 4278SOL     OW24487   1.024   5.044   1.172
 4278SOL    HW124488   1.077   5.027   1.088
 4278SOL    HW224489   1.079   5.020   1.252
 4279SOL     OW24490   8.440   2.780   1.787
 4279SOL    HW124491   8.453   2.874   1.820
 4279SOL    HW224492   8.342   2.759   1.784
 4280SOL     OW24493   8.874   2.236   3.666
 4280SOL    HW124494   8.855   2.160   3.729
 4280SOL    HW224495   8.973   2.246   3.655
 4281SOL     OW24496   8.261   9.663   7.214
 4281SOL    HW124497   8.256   9.637   7.310
 4281SOL    HW224498   8.328   9.736   7.202
 4282SOL     OW24499   8.099   1.963   6.309
 4282SOL    HW124500   8.009   1.994   6.276
 4282SOL    HW224501   8.099   1.863   6.319
 4283SOL     OW24502   1.678   4.930   6.328
 4283SOL    HW124503   1.623   4.998   6.279
 4283SOL    HW224504   1.703   4.965   6.418
 4284SOL     OW24505   7.511   9.987   3.894
 4284SOL    HW124506   7.511   0.087   3.898
 4284SOL    HW224507   7.504   9.950   3.987
 4285SOL     OW24508   8.676   2.252   7.250
 4285SOL    HW124509   8.709   2.165   7.286
 4285SOL    HW224510   8.614   2.294   7.316
 4286SOL     OW24511   2.873   6.649   3.508
 4286SOL    HW124512   2.831   6.733   3.473
 4286SOL    HW224513   2.892   6.587   3.431
 4287SOL     OW24514   4.948   6.301   1.952
 4287SOL    HW124515   5.012   6.224   1.954
 4287SOL    HW224516   4.939   6.339   2.044
 4288SOL     OW24517   8.360   6.190   7.717
 4288SOL    HW124518   8.436   6.128   7.736
 4288SOL    HW224519   8.395   6.275   7.678
 4289SOL     OW24520   6.726   9.812   5.179
 4289SOL    HW124521   6.698   9.874   5.107
 4289SOL    HW224522   6.727   9.861   5.267
 4290SOL     OW24523   6.712   2.062   3.445
 4290SOL    HW124524   6.642   2.015   3.391
 4290SOL    HW224525   6.689   2.057   3.542
 4291SOL     OW24526   2.419   8.147   2.381
 4291SOL    HW124527   2.510   8.131   2.345
 4291SOL    HW224528   2.353   8.153   2.305
 4292SOL     OW24529   8.757   1.069   4.423
 4292SOL    HW124530   8.709   1.112   4.499
 4292SOL    HW224531   8.856   1.081   4.434
 4293SOL     OW24532   2.648   2.390   7.085
 4293SOL    HW124533   2.696   2.361   7.168
 4293SOL    HW224534   2.555   2.354   7.086
 4294SOL     OW24535   0.753   6.658   7.664
 4294SOL    HW124536   0.793   6.574   7.701
 4294SOL    HW224537   0.804   6.687   7.584
 4295SOL     OW24538   2.797   8.435   3.013
 4295SOL    HW124539   2.885   8.419   3.057
 4295SOL    HW224540   2.772   8.356   2.958
 4296SOL     OW24541   9.889   3.315   1.177
 4296SOL    HW124542   9.847   3.404   1.158
 4296SOL    HW224543   9.895   3.301   1.275
 4297SOL     OW24544   8.208   4.357   3.443
 4297SOL    HW124545   8.266   4.371   3.363
 4297SOL    HW224546   8.187   4.260   3.453
 4298SOL     OW24547   3.431   2.944   4.314
 4298SOL    HW124548   3.508   3.007   4.309
 4298SOL    HW224549   3.463   2.852   4.337
 4299SOL     OW24550   3.114   5.426   4.269
 4299SOL    HW124551   3.121   5.490   4.346
 4299SOL    HW224552   3.150   5.337   4.296
 4300SOL     OW24553   5.275   4.044   2.204
 4300SOL    HW124554   5.176   4.038   2.215
 4300SOL    HW224555   5.300   4.139   2.183
 4301SOL     OW24556   7.788   2.429   0.499
 4301SOL    HW124557   7.845   2.356   0.536
 4301SOL    HW224558   7.783   2.420   0.400
 4302SOL     OW24559   2.024   9.375   1.754
 4302SOL    HW124560   2.113   9.405   1.789
 4302SOL    HW224561   2.031   9.357   1.656
 4303SOL     OW24562   5.454   6.665   0.609
 4303SOL    HW124563   5.480   6.760   0.627
 4303SOL    HW224564   5.386   6.636   0.677
 4304SOL     OW24565   4.710   4.669   4.979
 4304SOL    HW124566   4.720   4.729   4.901
 4304SOL    HW224567   4.618   4.677   5.017
 4305SOL     OW24568   8.134   7.187   6.970
 4305SOL    HW124569   8.047   7.152   6.936
 4305SOL    HW224570   8.174   7.120   7.033
 4306SOL     OW24571   8.283   2.024   1.723
 4306SOL    HW124572   8.339   1.965   1.780
 4306SOL    HW224573   8.210   2.064   1.777
 4307SOL     OW24574   0.575   5.773   6.950
 4307SOL    HW124575   0.512   5.830   7.004
 4307SOL    HW224576   0.667   5.812   6.955
 4308SOL     OW24577   3.411   5.956   5.384
 4308SOL    HW124578   3.476   5.985   5.454
 4308SOL    HW224579   3.429   5.861   5.358
 4309SOL     OW24580   5.761   9.464   2.147
 4309SOL    HW124581   5.674   9.414   2.142
 4309SOL    HW224582   5.835   9.403   2.120
 4310SOL     OW24583   2.169   3.122   0.088
 4310SOL    HW124584   2.156   3.221   0.089
 4310SOL    HW224585   2.259   3.100   0.052
 4311SOL     OW24586   0.674   8.689   5.872
 4311SOL    HW124587   0.615   8.733   5.804
 4311SOL    HW224588   0.763   8.668   5.830
 4312SOL     OW24589   8.684   0.006   2.936
 4312SOL    HW124590   8.690   0.105   2.948
 4312SOL    HW224591   8.592   9.975   2.958
 4313SOL     OW24592   8.519   8.634   6.344
 4313SOL    HW124593   8.508   8.583   6.429
 4313SOL    HW224594   8.505   8.732   6.362
 4314SOL     OW24595   3.235   2.728   0.350
 4314SOL    HW124596   3.305   2.673   0.306
 4314SOL    HW224597   3.215   2.691   0.441
 4315SOL     OW24598   3.634   4.164   0.983
 4315SOL    HW124599   3.714   4.103   0.988
 4315SOL    HW224600   3.635   4.226   1.062
 4316SOL     OW24601   3.101   3.522   2.869
 4316SOL    HW124602   3.096   3.613   2.908
 4316SOL    HW224603   3.163   3.522   2.790
 4317SOL     OW24604   5.139   2.889   7.206
 4317SOL    HW124605   5.084   2.926   7.131
 4317SOL    HW224606   5.222   2.847   7.169
 4318SOL     OW24607   3.346   6.672   0.909
 4318SOL    HW124608   3.387   6.724   0.985
 4318SOL    HW224609   3.303   6.589   0.945
 4319SOL     OW24610   1.557   2.545   6.677
 4319SOL    HW124611   1.540   2.517   6.771
 4319SOL    HW224612   1.470   2.563   6.631
 4320SOL     OW24613   9.919   6.293   6.419
 4320SOL    HW124614   9.844   6.253   6.367
 4320SOL    HW224615   9.933   6.241   6.503
 4321SOL     OW24616   7.752   5.636   1.198
 4321SOL    HW124617   7.759   5.626   1.099
 4321SOL    HW224618   7.803   5.562   1.242
 4322SOL     OW24619   0.479   9.237   4.562
 4322SOL    HW124620   0.537   9.228   4.643
 4322SOL    HW224621   0.438   9.148   4.539
 4323SOL     OW24622   0.005   0.625   4.035
 4323SOL    HW124623   0.049   0.558   3.976
 4323SOL    HW224624   0.074   0.672   4.091
 4324SOL     OW24625   3.927   0.858   0.937
 4324SOL    HW124626   3.900   0.951   0.912
 4324SOL    HW224627   4.021   0.860   0.972
 4325SOL     OW24628   7.757   7.834   1.620
 4325SOL    HW124629   7.672   7.887   1.610
 4325SOL    HW224630   7.737   7.749   1.669
 4326SOL     OW24631   5.834   9.682   3.824
 4326SOL    HW124632   5.832   9.708   3.727
 4326SOL    HW224633   5.774   9.603   3.838
 4327SOL     OW24634   5.178   8.005   2.711
 4327SOL    HW124635   5.096   8.058   2.734
 4327SOL    HW224636   5.198   7.941   2.785
 4328SOL     OW24637   2.213   0.991   4.116
 4328SOL    HW124638   2.169   0.969   4.202
 4328SOL    HW224639   2.283   1.061   4.131
 4329SOL     OW24640   2.066   7.861   3.193
 4329SOL    HW124641   2.130   7.791   3.224
 4329SOL    HW224642   2.096   7.951   3.225
 4330SOL     OW24643   2.685   5.608   1.889
 4330SOL    HW124644   2.697   5.637   1.984
 4330SOL    HW224645   2.689   5.508   1.884
 4331SOL     OW24646   1.392   4.575   7.370
 4331SOL    HW124647   1.349   4.619   7.449
 4331SOL    HW224648   1.346   4.488   7.351
 4332SOL     OW24649   9.945   9.203   2.593
 4332SOL    HW124650   9.957   9.204   2.693
 4332SOL    HW224651   0.031   9.175   2.550
 4333SOL     OW24652   9.298   8.592   3.237
 4333SOL    HW124653   9.238   8.589   3.156
 4333SOL    HW224654   9.326   8.499   3.260
 4334SOL     OW24655   1.068   8.059   5.224
 4334SOL    HW124656   0.981   8.036   5.267
 4334SOL    HW224657   1.107   7.978   5.180
 4335SOL     OW24658   1.987   4.411   6.100
 4335SOL    HW124659   1.897   4.394   6.059
 4335SOL    HW224660   1.986   4.378   6.195
 4336SOL     OW24661   8.571   7.312   2.171
 4336SOL    HW124662   8.539   7.387   2.228
 4336SOL    HW224663   8.665   7.289   2.196
 4337SOL     OW24664   6.741   0.111   1.961
 4337SOL    HW124665   6.726   0.176   1.886
 4337SOL    HW224666   6.758   0.162   2.046
 4338SOL     OW24667   0.602   8.963   5.507
 4338SOL    HW124668   0.543   8.918   5.574
 4338SOL    HW224669   0.598   9.062   5.522
 4339SOL     OW24670   9.428   9.110   5.395
 4339SOL    HW124671   9.496   9.039   5.414
 4339SOL    HW224672   9.355   9.103   5.463
 4340SOL     OW24673   0.436   9.341   7.742
 4340SOL    HW124674   0.398   9.404   7.673
 4340SOL    HW224675   0.454   9.392   7.826
 4341SOL     OW24676   3.981   3.971   0.620
 4341SOL    HW124677   3.975   3.946   0.524
 4341SOL    HW224678   4.023   3.897   0.672
 4342SOL     OW24679   1.204   9.282   5.104
 4342SOL    HW124680   1.271   9.355   5.093
 4342SOL    HW224681   1.141   9.282   5.026
 4343SOL     OW24682   9.708   2.897   0.834
 4343SOL    HW124683   9.750   2.826   0.777
 4343SOL    HW224684   9.687   2.860   0.924
 4344SOL     OW24685   9.532   3.618   7.707
 4344SOL    HW124686   9.544   3.556   7.630
 4344SOL    HW224687   9.450   3.592   7.759
 4345SOL     OW24688   3.766   7.107   1.962
 4345SOL    HW124689   3.676   7.135   1.927
 4345SOL    HW224690   3.835   7.174   1.934
 4346SOL     OW24691   8.245   5.687   0.759
 4346SOL    HW124692   8.331   5.737   0.752
 4346SOL    HW224693   8.222   5.648   0.670
 4347SOL     OW24694   7.133   7.175   5.373
 4347SOL    HW124695   7.219   7.124   5.363
 4347SOL    HW224696   7.058   7.120   5.336
 4348SOL     OW24697   3.856   1.000   4.604
 4348SOL    HW124698   3.803   1.021   4.522
 4348SOL    HW224699   3.876   0.902   4.608
 4349SOL     OW24700   0.859   1.628   4.366
 4349SOL    HW124701   0.828   1.567   4.440
 4349SOL    HW224702   0.835   1.588   4.278
 4350SOL     OW24703   5.683   1.067   0.302
 4350SOL    HW124704   5.777   1.077   0.270
 4350SOL    HW224705   5.683   1.060   0.402
 4351SOL     OW24706   8.092   3.932   2.389
 4351SOL    HW124707   8.038   3.848   2.390
 4351SOL    HW224708   8.189   3.909   2.384
 4352SOL     OW24709   1.565   2.711   7.702
 4352SOL    HW124710   1.591   2.799   7.741
 4352SOL    HW224711   1.647   2.657   7.683
 4353SOL     OW24712   1.656   8.647   6.628
 4353SOL    HW124713   1.643   8.556   6.589
 4353SOL    HW224714   1.740   8.687   6.590
 4354SOL     OW24715   2.196   5.333   5.757
 4354SOL    HW124716   2.206   5.408   5.692
 4354SOL    HW224717   2.237   5.358   5.845
 4355SOL     OW24718   0.527   3.208   1.857
 4355SOL    HW124719   0.431   3.185   1.838
 4355SOL    HW224720   0.543   3.200   1.956
 4356SOL     OW24721   7.023   6.791   5.932
 4356SOL    HW124722   7.045   6.729   5.856
 4356SOL    HW224723   6.939   6.841   5.912
 4357SOL     OW24724   3.169   7.343   7.887
 4357SOL    HW124725   3.191   7.431   7.846
 4357SOL    HW224726   3.184   7.347   7.986
 4358SOL     OW24727   3.264   1.645   0.211
 4358SOL    HW124728   3.164   1.641   0.211
 4358SOL    HW224729   3.294   1.716   0.146
 4359SOL     OW24730   1.799   7.467   7.607
 4359SOL    HW124731   1.735   7.403   7.566
 4359SOL    HW224732   1.887   7.463   7.558
 4360SOL     OW24733   6.546   2.387   2.749
 4360SOL    HW124734   6.587   2.401   2.659
 4360SOL    HW224735   6.485   2.307   2.745
 4361SOL     OW24736   1.086   6.429   4.766
 4361SOL    HW124737   1.082   6.496   4.692
 4361SOL    HW224738   1.092   6.477   4.854
 4362SOL     OW24739   4.299   1.078   1.790
 4362SOL    HW124740   4.284   1.146   1.862
 4362SOL    HW224741   4.256   0.991   1.817
 4363SOL     OW24742   8.474   4.748   3.649
 4363SOL    HW124743   8.377   4.771   3.645
 4363SOL    HW224744   8.510   4.769   3.739
 4364SOL     OW24745   5.733   5.524   1.183
 4364SOL    HW124746   5.679   5.538   1.099
 4364SOL    HW224747   5.693   5.449   1.235
 4365SOL     OW24748   7.050   1.736   3.238
 4365SOL    HW124749   6.992   1.697   3.309
 4365SOL    HW224750   6.993   1.779   3.168
 4366SOL     OW24751   3.459   2.268   6.774
 4366SOL    HW124752   3.406   2.207   6.833
 4366SOL    HW224753   3.493   2.345   6.829
 4367SOL     OW24754   7.376   6.946   4.783
 4367SOL    HW124755   7.282   6.969   4.808
 4367SOL    HW224756   7.428   7.030   4.766
 4368SOL     OW24757   0.255   1.833   2.892
 4368SOL    HW124758   0.190   1.887   2.838
 4368SOL    HW224759   0.326   1.894   2.929
 4369SOL     OW24760   9.044   9.547   0.170
 4369SOL    HW124761   9.131   9.505   0.143
 4369SOL    HW224762   9.020   9.515   0.262
 4370SOL     OW24763   5.156   9.470   3.678
 4370SOL    HW124764   5.066   9.436   3.650
 4370SOL    HW224765   5.208   9.497   3.597
 4371SOL     OW24766   3.865   1.932   1.397
 4371SOL    HW124767   3.938   1.979   1.346
 4371SOL    HW224768   3.824   1.862   1.339
 4372SOL     OW24769   4.969   8.762   4.636
 4372SOL    HW124770   4.994   8.856   4.659
 4372SOL    HW224771   4.870   8.751   4.646
 4373SOL     OW24772   1.151   0.705   4.345
 4373SOL    HW124773   1.054   0.717   4.321
 4373SOL    HW224774   1.181   0.613   4.319
 4374SOL     OW24775   1.868   4.633   3.113
 4374SOL    HW124776   1.825   4.586   3.190
 4374SOL    HW224777   1.798   4.658   3.046
 4375SOL     OW24778   1.895   7.561   1.741
 4375SOL    HW124779   1.804   7.533   1.709
 4375SOL    HW224780   1.888   7.594   1.835
 4376SOL     OW24781   4.843   2.663   6.438
 4376SOL    HW124782   4.845   2.762   6.447
 4376SOL    HW224783   4.905   2.635   6.365
 4377SOL     OW24784   2.027   8.385   1.428
 4377SOL    HW124785   2.050   8.402   1.332
 4377SOL    HW224786   2.111   8.381   1.482
 4378SOL     OW24787   8.194   4.242   6.075
 4378SOL    HW124788   8.245   4.249   5.990
 4378SOL    HW224789   8.226   4.311   6.139
 4379SOL     OW24790   4.625   1.078   3.522
 4379SOL    HW124791   4.591   1.082   3.616
 4379SOL    HW224792   4.639   1.171   3.487
 4380SOL     OW24793   3.965   4.055   2.352
 4380SOL    HW124794   3.880   4.039   2.302
 4380SOL    HW224795   3.996   3.969   2.394
 4381SOL     OW24796   3.936   7.062   0.512
 4381SOL    HW124797   3.955   7.013   0.426
 4381SOL    HW224798   3.893   6.999   0.577
 4382SOL     OW24799   8.310   9.466   4.198
 4382SOL    HW124800   8.267   9.399   4.138
 4382SOL    HW224801   8.251   9.547   4.206
 4383SOL     OW24802   2.572   3.903   5.857
 4383SOL    HW124803   2.586   3.977   5.923
 4383SOL    HW224804   2.541   3.821   5.906
 4384SOL     OW24805   0.388   1.456   3.076
 4384SOL    HW124806   0.467   1.395   3.073
 4384SOL    HW224807   0.392   1.519   2.997
 4385SOL     OW24808   3.044   3.284   6.395
 4385SOL    HW124809   2.964   3.254   6.448
 4385SOL    HW224810   3.122   3.224   6.415
 4386SOL     OW24811   7.246   1.929   3.283
 4386SOL    HW124812   7.258   1.931   3.382
 4386SOL    HW224813   7.173   1.865   3.260
 4387SOL     OW24814   8.189   5.963   3.989
 4387SOL    HW124815   8.201   5.869   4.020
 4387SOL    HW224816   8.222   6.026   4.060
 4388SOL     OW24817   4.551   9.793   0.735
 4388SOL    HW124818   4.589   9.885   0.728
 4388SOL    HW224819   4.625   9.727   0.751
 4389SOL     OW24820   0.799   4.595   4.277
 4389SOL    HW124821   0.702   4.572   4.290
 4389SOL    HW224822   0.848   4.514   4.244
 4390SOL     OW24823   9.696   6.770   0.546
 4390SOL    HW124824   9.610   6.813   0.518
 4390SOL    HW224825   9.764   6.781   0.474
 4391SOL     OW24826   7.931   7.890   2.526
 4391SOL    HW124827   7.897   7.803   2.489
 4391SOL    HW224828   7.856   7.956   2.529
 4392SOL     OW24829   7.144   4.709   1.559
 4392SOL    HW124830   7.213   4.651   1.515
 4392SOL    HW224831   7.059   4.657   1.569
 4393SOL     OW24832   2.555   7.621   5.788
 4393SOL    HW124833   2.541   7.587   5.695
 4393SOL    HW224834   2.649   7.654   5.798
 4394SOL     OW24835   4.838   0.825   7.906
 4394SOL    HW124836   4.866   0.739   7.865
 4394SOL    HW224837   4.914   0.890   7.904
 4395SOL     OW24838   1.547   2.390   7.340
 4395SOL    HW124839   1.573   2.297   7.365
 4395SOL    HW224840   1.487   2.387   7.260
 4396SOL     OW24841   8.815   8.685   6.639
 4396SOL    HW124842   8.910   8.663   6.662
 4396SOL    HW224843   8.814   8.745   6.559
 4397SOL     OW24844   7.777   0.047   1.135
 4397SOL    HW124845   7.810   0.055   1.229
 4397SOL    HW224846   7.819   0.118   1.078
 4398SOL     OW24847   3.335   8.659   2.652
 4398SOL    HW124848   3.405   8.686   2.718
 4398SOL    HW224849   3.277   8.737   2.631
 4399SOL     OW24850   2.053   7.705   7.338
 4399SOL    HW124851   2.049   7.737   7.433
 4399SOL    HW224852   2.136   7.652   7.324
 4400SOL     OW24853   4.619   7.134   3.885
 4400SOL    HW124854   4.524   7.143   3.916
 4400SOL    HW224855   4.677   7.193   3.941
 4401SOL     OW24856   1.948   7.463   5.806
 4401SOL    HW124857   1.995   7.378   5.783
 4401SOL    HW224858   1.867   7.472   5.748
 4402SOL     OW24859   6.106   9.356   3.444
 4402SOL    HW124860   6.089   9.284   3.375
 4402SOL    HW224861   6.085   9.445   3.404
 4403SOL     OW24862   0.725   7.344   3.860
 4403SOL    HW124863   0.690   7.274   3.921
 4403SOL    HW224864   0.820   7.324   3.837
 4404SOL     OW24865   0.186   5.305   1.183
 4404SOL    HW124866   0.200   5.403   1.166
 4404SOL    HW224867   0.095   5.279   1.153
 4405SOL     OW24868   4.390   2.285   0.717
 4405SOL    HW124869   4.481   2.252   0.692
 4405SOL    HW224870   4.395   2.336   0.803
 4406SOL     OW24871   2.289   6.852   2.685
 4406SOL    HW124872   2.284   6.826   2.589
 4406SOL    HW224873   2.336   6.939   2.694
 4407SOL     OW24874   7.196   2.006   1.246
 4407SOL    HW124875   7.113   2.021   1.193
 4407SOL    HW224876   7.243   1.925   1.213
 4408SOL     OW24877   6.692   8.937   6.615
 4408SOL    HW124878   6.645   9.018   6.579
 4408SOL    HW224879   6.781   8.964   6.651
 4409SOL     OW24880   4.176   7.543   1.293
 4409SOL    HW124881   4.266   7.508   1.317
 4409SOL    HW224882   4.133   7.584   1.374
 4410SOL     OW24883   6.870   9.441   7.389
 4410SOL    HW124884   6.864   9.468   7.485
 4410SOL    HW224885   6.813   9.361   7.373
 4411SOL     OW24886   4.714   9.880   2.648
 4411SOL    HW124887   4.732   9.884   2.550
 4411SOL    HW224888   4.637   9.939   2.670
 4412SOL     OW24889   0.339   4.541   3.912
 4412SOL    HW124890   0.377   4.595   3.837
 4412SOL    HW224891   0.413   4.512   3.972
 4413SOL     OW24892   9.799   8.336   4.860
 4413SOL    HW124893   9.875   8.272   4.849
 4413SOL    HW224894   9.771   8.338   4.956
 4414SOL     OW24895   7.465   3.555   7.453
 4414SOL    HW124896   7.556   3.537   7.414
 4414SOL    HW224897   7.412   3.471   7.453
 4415SOL     OW24898   0.030   9.257   3.890
 4415SOL    HW124899   0.113   9.313   3.882
 4415SOL    HW224900   9.961   9.308   3.943
 4416SOL     OW24901   8.655   9.713   5.505
 4416SOL    HW124902   8.657   9.625   5.460
 4416SOL    HW224903   8.621   9.702   5.599
 4417SOL     OW24904   0.396   1.663   5.995
 4417SOL    HW124905   0.459   1.593   5.961
 4417SOL    HW224906   0.387   1.655   6.094
 4418SOL     OW24907   9.382   8.829   1.389
 4418SOL    HW124908   9.306   8.787   1.439
 4418SOL    HW224909   9.467   8.818   1.442
 4419SOL     OW24910   3.156   5.088   0.198
 4419SOL    HW124911   3.139   5.089   0.296
 4419SOL    HW224912   3.080   5.133   0.151
 4420SOL     OW24913   2.231   9.368   0.842
 4420SOL    HW124914   2.255   9.388   0.937
 4420SOL    HW224915   2.250   9.271   0.823
 4421SOL     OW24916   6.769   7.184   3.060
 4421SOL    HW124917   6.859   7.203   3.099
 4421SOL    HW224918   6.779   7.148   2.967
 4422SOL     OW24919   5.484   8.300   6.383
 4422SOL    HW124920   5.425   8.290   6.463
 4422SOL    HW224921   5.496   8.211   6.339
 4423SOL     OW24922   1.561   3.067   4.342
 4423SOL    HW124923   1.540   3.098   4.249
 4423SOL    HW224924   1.637   3.002   4.339
 4424SOL     OW24925   5.487   1.543   6.988
 4424SOL    HW124926   5.498   1.642   6.989
 4424SOL    HW224927   5.571   1.499   7.019
 4425SOL     OW24928   3.956   1.624   2.039
 4425SOL    HW124929   3.869   1.669   2.020
 4425SOL    HW224930   4.017   1.636   1.960
 4426SOL     OW24931   3.676   6.843   2.476
 4426SOL    HW124932   3.715   6.884   2.559
 4426SOL    HW224933   3.585   6.881   2.460
 4427SOL     OW24934   9.486   0.970   0.635
 4427SOL    HW124935   9.559   0.984   0.568
 4427SOL    HW224936   9.485   0.874   0.664
 4428SOL     OW24937   9.310   5.086   0.310
 4428SOL    HW124938   9.232   5.047   0.260
 4428SOL    HW224939   9.387   5.023   0.305
 4429SOL     OW24940   8.745   9.144   5.780
 4429SOL    HW124941   8.645   9.140   5.774
 4429SOL    HW224942   8.775   9.109   5.868
 4430SOL     OW24943   8.752   4.529   6.282
 4430SOL    HW124944   8.785   4.560   6.371
 4430SOL    HW224945   8.830   4.500   6.226
 4431SOL     OW24946   4.202   3.023   3.908
 4431SOL    HW124947   4.166   3.077   3.832
 4431SOL    HW224948   4.164   3.058   3.994
 4432SOL     OW24949   1.052   3.865   4.760
 4432SOL    HW124950   1.054   3.948   4.816
 4432SOL    HW224951   1.048   3.785   4.819
 4433SOL     OW24952   3.115   6.190   5.948
 4433SOL    HW124953   3.191   6.240   5.990
 4433SOL    HW224954   3.032   6.246   5.953
 4434SOL     OW24955   9.679   8.625   4.665
 4434SOL    HW124956   9.627   8.569   4.601
 4434SOL    HW224957   9.774   8.632   4.634
 4435SOL     OW24958   0.766   2.151   3.060
 4435SOL    HW124959   0.720   2.147   3.149
 4435SOL    HW224960   0.700   2.180   2.991
 4436SOL     OW24961   6.595   8.007   4.093
 4436SOL    HW124962   6.666   7.981   4.159
 4436SOL    HW224963   6.563   8.099   4.114
 4437SOL     OW24964   4.747   3.969   1.549
 4437SOL    HW124965   4.735   3.907   1.471
 4437SOL    HW224966   4.793   3.920   1.623
 4438SOL     OW24967   3.543   5.766   7.473
 4438SOL    HW124968   3.635   5.791   7.444
 4438SOL    HW224969   3.516   5.819   7.553
 4439SOL     OW24970   0.184   4.172   5.438
 4439SOL    HW124971   0.084   4.181   5.429
 4439SOL    HW224972   0.226   4.263   5.441
 4440SOL     OW24973   2.355   8.477   6.650
 4440SOL    HW124974   2.371   8.426   6.734
 4440SOL    HW224975   2.395   8.427   6.573
 4441SOL     OW24976   0.373   3.909   3.014
 4441SOL    HW124977   0.467   3.874   3.007
 4441SOL    HW224978   0.316   3.869   2.942
 4442SOL     OW24979   2.082   4.911   0.153
 4442SOL    HW124980   2.108   4.833   0.096
 4442SOL    HW224981   2.162   4.970   0.166
 4443SOL     OW24982   5.003   2.571   6.230
 4443SOL    HW124983   4.993   2.472   6.232
 4443SOL    HW224984   4.992   2.603   6.135
 4444SOL     OW24985   5.146   6.845   1.557
 4444SOL    HW124986   5.065   6.821   1.504
 4444SOL    HW224987   5.125   6.841   1.655
 4445SOL     OW24988   1.199   0.689   2.398
 4445SOL    HW124989   1.134   0.673   2.324
 4445SOL    HW224990   1.248   0.605   2.418
 4446SOL     OW24991   3.334   0.866   3.281
 4446SOL    HW124992   3.345   0.769   3.302
 4446SOL    HW224993   3.273   0.876   3.202
 4447SOL     OW24994   6.038   4.021   1.558
 4447SOL    HW124995   6.108   4.093   1.556
 4447SOL    HW224996   5.956   4.053   1.510
 4448SOL     OW24997   5.643   0.294   4.273
 4448SOL    HW124998   5.687   0.248   4.350
 4448SOL    HW224999   5.552   0.325   4.300
 4449SOL     OW25000   1.795   2.921   0.762
 4449SOL    HW125001   1.712   2.907   0.816
 4449SOL    HW225002   1.795   2.861   0.683
 4450SOL     OW25003   3.891   5.498   7.024
 4450SOL    HW125004   3.873   5.444   6.942
 4450SOL    HW225005   3.983   5.537   7.019
 4451SOL     OW25006   8.493   5.801   1.495
 4451SOL    HW125007   8.468   5.814   1.399
 4451SOL    HW225008   8.520   5.889   1.534
 4452SOL     OW25009   6.070   5.360   2.337
 4452SOL    HW125010   6.145   5.426   2.331
 4452SOL    HW225011   6.094   5.289   2.403
 4453SOL     OW25012   9.760   9.644   7.308
 4453SOL    HW125013   9.847   9.678   7.274
 4453SOL    HW225014   9.770   9.617   7.404
 4454SOL     OW25015   5.240   7.972   4.137
 4454SOL    HW125016   5.323   8.024   4.114
 4454SOL    HW225017   5.263   7.875   4.141
 4455SOL     OW25018   7.050   0.133   3.001
 4455SOL    HW125019   6.950   0.132   2.998
 4455SOL    HW225020   7.080   0.101   3.091
 4456SOL     OW25021   5.622   1.823   7.248
 4456SOL    HW125022   5.561   1.786   7.318
 4456SOL    HW225023   5.711   1.778   7.254
 4457SOL     OW25024   9.294   3.961   1.787
 4457SOL    HW125025   9.276   4.026   1.861
 4457SOL    HW225026   9.358   4.002   1.722
 4458SOL     OW25027   8.814   1.828   0.393
 4458SOL    HW125028   8.876   1.817   0.316
 4458SOL    HW225029   8.720   1.811   0.364
 4459SOL     OW25030   6.570   1.302   5.425
 4459SOL    HW125031   6.642   1.321   5.491
 4459SOL    HW225032   6.482   1.297   5.472
 4460SOL     OW25033   5.084   9.193   3.975
 4460SOL    HW125034   5.165   9.244   3.948
 4460SOL    HW225035   5.088   9.101   3.936
 4461SOL     OW25036   2.716   1.049   5.211
 4461SOL    HW125037   2.626   1.076   5.245
 4461SOL    HW225038   2.784   1.061   5.283
 4462SOL     OW25039   9.992   1.920   6.948
 4462SOL    HW125040   9.959   2.004   6.990
 4462SOL    HW225041   9.914   1.865   6.917
 4463SOL     OW25042   6.052   1.766   5.579
 4463SOL    HW125043   6.126   1.832   5.563
 4463SOL    HW225044   5.979   1.810   5.631
 4464SOL     OW25045   1.726   7.202   1.612
 4464SOL    HW125046   1.808   7.225   1.561
 4464SOL    HW225047   1.695   7.110   1.586
 4465SOL     OW25048   3.699   1.866   3.664
 4465SOL    HW125049   3.720   1.829   3.754
 4465SOL    HW225050   3.774   1.844   3.601
 4466SOL     OW25051   3.139   3.170   2.746
 4466SOL    HW125052   3.094   3.234   2.683
 4466SOL    HW225053   3.158   3.217   2.833
 4467SOL     OW25054   0.153   3.931   5.565
 4467SOL    HW125055   0.178   4.016   5.519
 4467SOL    HW225056   0.057   3.910   5.548
 4468SOL     OW25057   8.328   8.123   0.961
 4468SOL    HW125058   8.367   8.208   0.925
 4468SOL    HW225059   8.279   8.075   0.888
 4469SOL     OW25060   4.756   7.752   5.527
 4469SOL    HW125061   4.711   7.700   5.600
 4469SOL    HW225062   4.705   7.836   5.509
 4470SOL     OW25063   8.715   3.054   0.364
 4470SOL    HW125064   8.625   3.061   0.405
 4470SOL    HW225065   8.771   3.132   0.392
 4471SOL     OW25066   3.957   3.656   1.225
 4471SOL    HW125067   3.871   3.606   1.212
 4471SOL    HW225068   4.029   3.614   1.171
 4472SOL     OW25069   3.269   7.337   5.358
 4472SOL    HW125070   3.183   7.322   5.308
 4472SOL    HW225071   3.334   7.383   5.298
 4473SOL     OW25072   7.748   0.826   0.989
 4473SOL    HW125073   7.818   0.757   0.971
 4473SOL    HW225074   7.754   0.855   1.085
 4474SOL     OW25075   0.831   7.579   3.036
 4474SOL    HW125076   0.742   7.590   3.081
 4474SOL    HW225077   0.842   7.484   3.008
 4475SOL     OW25078   0.741   6.544   6.568
 4475SOL    HW125079   0.706   6.595   6.647
 4475SOL    HW225080   0.740   6.446   6.589
 4476SOL     OW25081   9.977   9.544   3.062
 4476SOL    HW125082   0.046   9.499   3.118
 4476SOL    HW225083   9.978   9.505   2.970
 4477SOL     OW25084   3.677   4.868   4.416
 4477SOL    HW125085   3.593   4.831   4.457
 4477SOL    HW225086   3.740   4.896   4.488
 4478SOL     OW25087   5.023   8.738   4.955
 4478SOL    HW125088   5.012   8.661   4.892
 4478SOL    HW225089   5.111   8.783   4.938
 4479SOL     OW25090   6.176   1.520   5.563
 4479SOL    HW125091   6.178   1.506   5.464
 4479SOL    HW225092   6.128   1.605   5.583
 4480SOL     OW25093   8.826   7.465   3.507
 4480SOL    HW125094   8.751   7.531   3.517
 4480SOL    HW225095   8.789   7.379   3.470
 4481SOL     OW25096   3.530   1.545   0.193
 4481SOL    HW125097   3.506   1.454   0.159
 4481SOL    HW225098   3.446   1.594   0.217
 4482SOL     OW25099   3.521   5.809   0.706
 4482SOL    HW125100   3.447   5.875   0.717
 4482SOL    HW225101   3.509   5.734   0.771
 4483SOL     OW25102   3.119   5.679   7.136
 4483SOL    HW125103   3.051   5.637   7.076
 4483SOL    HW225104   3.165   5.753   7.087
 4484SOL     OW25105   1.478   6.732   2.978
 4484SOL    HW125106   1.496   6.692   3.068
 4484SOL    HW225107   1.468   6.658   2.911
 4485SOL     OW25108   1.263   7.122   3.056
 4485SOL    HW125109   1.303   7.199   3.007
 4485SOL    HW225110   1.272   7.038   3.002
 4486SOL     OW25111   3.220   8.910   2.592
 4486SOL    HW125112   3.120   8.915   2.589
 4486SOL    HW225113   3.256   8.989   2.642
 4487SOL     OW25114   5.212   8.030   4.401
 4487SOL    HW125115   5.214   8.017   4.302
 4487SOL    HW225116   5.151   8.106   4.424
 4488SOL     OW25117   9.178   8.726   1.540
 4488SOL    HW125118   9.103   8.780   1.503
 4488SOL    HW225119   9.144   8.637   1.570
 4489SOL     OW25120   5.355   3.298   1.000
 4489SOL    HW125121   5.345   3.314   1.098
 4489SOL    HW225122   5.297   3.222   0.972
 4490SOL     OW25123   9.275   0.333   5.624
 4490SOL    HW125124   9.305   0.370   5.712
 4490SOL    HW225125   9.188   0.284   5.636
 4491SOL     OW25126   1.223   5.550   7.247
 4491SOL    HW125127   1.178   5.612   7.312
 4491SOL    HW225128   1.193   5.456   7.265
 4492SOL     OW25129   3.156   2.315   7.335
 4492SOL    HW125130   3.162   2.287   7.431
 4492SOL    HW225131   3.246   2.342   7.302
 4493SOL     OW25132   5.805   0.741   1.251
 4493SOL    HW125133   5.801   0.829   1.203
 4493SOL    HW225134   5.765   0.752   1.343
 4494SOL     OW25135   2.042   2.270   1.408
 4494SOL    HW125136   2.099   2.234   1.482
 4494SOL    HW225137   2.082   2.355   1.374
 4495SOL     OW25138   8.937   1.603   5.793
 4495SOL    HW125139   9.021   1.644   5.757
 4495SOL    HW225140   8.859   1.658   5.765
 4496SOL     OW25141   9.698   1.596   3.147
 4496SOL    HW125142   9.780   1.650   3.167
 4496SOL    HW225143   9.621   1.658   3.130
 4497SOL     OW25144   9.286   0.432   7.461
 4497SOL    HW125145   9.211   0.497   7.480
 4497SOL    HW225146   9.265   0.381   7.378
 4498SOL     OW25147   3.772   3.117   7.131
 4498SOL    HW125148   3.790   3.128   7.033
 4498SOL    HW225149   3.686   3.163   7.154
 4499SOL     OW25150   4.104   2.754   1.274
 4499SOL    HW125151   4.006   2.740   1.265
 4499SOL    HW225152   4.141   2.789   1.188
 4500SOL     OW25153   0.856   8.983   7.340
 4500SOL    HW125154   0.794   8.930   7.398
 4500SOL    HW225155   0.868   9.074   7.379
 4501SOL     OW25156   0.785   2.073   0.156
 4501SOL    HW125157   0.842   2.051   0.077
 4501SOL    HW225158   0.844   2.093   0.234
 4502SOL     OW25159   1.422   3.599   4.674
 4502SOL    HW125160   1.391   3.507   4.649
 4502SOL    HW225161   1.489   3.593   4.748
 4503SOL     OW25162   2.958   8.715   5.955
 4503SOL    HW125163   3.041   8.685   5.908
 4503SOL    HW225164   2.883   8.721   5.889
 4504SOL     OW25165   2.413   9.347   5.286
 4504SOL    HW125166   2.359   9.263   5.294
 4504SOL    HW225167   2.507   9.329   5.313
 4505SOL     OW25168   2.089   8.757   2.699
 4505SOL    HW125169   2.022   8.831   2.697
 4505SOL    HW225170   2.116   8.739   2.793
 4506SOL     OW25171   3.148   2.000   6.146
 4506SOL    HW125172   3.084   1.925   6.160
 4506SOL    HW225173   3.159   2.051   6.232
 4507SOL     OW25174   2.275   4.558   2.255
 4507SOL    HW125175   2.310   4.537   2.164
 4507SOL    HW225176   2.333   4.515   2.324
 4508SOL     OW25177   9.827   2.071   5.748
 4508SOL    HW125178   9.758   2.109   5.810
 4508SOL    HW225179   9.838   2.132   5.669
 4509SOL     OW25180   2.132   1.313   3.747
 4509SOL    HW125181   2.135   1.267   3.658
 4509SOL    HW225182   2.104   1.247   3.817
 4510SOL     OW25183   3.717   0.334   6.890
 4510SOL    HW125184   3.674   0.285   6.814
 4510SOL    HW225185   3.722   0.274   6.969
 4511SOL     OW25186   1.298   1.497   1.345
 4511SOL    HW125187   1.281   1.453   1.433
 4511SOL    HW225188   1.249   1.584   1.341
 4512SOL     OW25189   8.760   6.533   3.577
 4512SOL    HW125190   8.825   6.598   3.616
 4512SOL    HW225191   8.756   6.546   3.478
 4513SOL     OW25192   2.252   9.057   6.375
 4513SOL    HW125193   2.278   9.025   6.284
 4513SOL    HW225194   2.316   9.022   6.443
 4514SOL     OW25195   3.323   2.270   0.154
 4514SOL    HW125196   3.406   2.302   0.109
 4514SOL    HW225197   3.336   2.174   0.183
 4515SOL     OW25198   1.632   2.513   6.321
 4515SOL    HW125199   1.707   2.567   6.360
 4515SOL    HW225200   1.657   2.416   6.321
 4516SOL     OW25201   1.847   2.774   2.922
 4516SOL    HW125202   1.915   2.827   2.972
 4516SOL    HW225203   1.758   2.782   2.968
 4517SOL     OW25204   7.727   8.447   2.944
 4517SOL    HW125205   7.722   8.490   2.854
 4517SOL    HW225206   7.732   8.518   3.015
 4518SOL     OW25207   2.512   6.807   3.247
 4518SOL    HW125208   2.437   6.814   3.181
 4518SOL    HW225209   2.487   6.742   3.319
 4519SOL     OW25210   2.703   2.065   2.384
 4519SOL    HW125211   2.735   2.151   2.424
 4519SOL    HW225212   2.762   2.040   2.308
 4520SOL     OW25213   2.846   1.008   4.524
 4520SOL    HW125214   2.927   1.033   4.576
 4520SOL    HW225215   2.797   1.091   4.496
 4521SOL     OW25216   2.086   9.629   1.501
 4521SOL    HW125217   2.080   9.531   1.479
 4521SOL    HW225218   2.031   9.648   1.583
 4522SOL     OW25219   9.601   4.641   4.980
 4522SOL    HW125220   9.531   4.570   4.979
 4522SOL    HW225221   9.691   4.600   4.995
 4523SOL     OW25222   0.421   6.321   5.350
 4523SOL    HW125223   0.402   6.407   5.303
 4523SOL    HW225224   0.390   6.327   5.445
 4524SOL     OW25225   2.558   8.178   2.104
 4524SOL    HW125226   2.571   8.276   2.092
 4524SOL    HW225227   2.460   8.158   2.109
 4525SOL     OW25228   9.091   1.830   7.165
 4525SOL    HW125229   9.080   1.737   7.199
 4525SOL    HW225230   9.030   1.846   7.088
 4526SOL     OW25231   7.505   6.104   0.665
 4526SOL    HW125232   7.467   6.195   0.681
 4526SOL    HW225233   7.440   6.034   0.696
 4527SOL     OW25234   8.726   6.513   6.741
 4527SOL    HW125235   8.701   6.451   6.815
 4527SOL    HW225236   8.816   6.488   6.704
 4528SOL     OW25237   3.372   3.358   4.366
 4528SOL    HW125238   3.401   3.451   4.390
 4528SOL    HW225239   3.389   3.297   4.443
 4529SOL     OW25240   9.044   2.263   5.549
 4529SOL    HW125241   9.030   2.230   5.642
 4529SOL    HW225242   9.066   2.186   5.490
 4530SOL     OW25243   2.564   8.214   7.283
 4530SOL    HW125244   2.493   8.145   7.271
 4530SOL    HW225245   2.653   8.169   7.292
 4531SOL     OW25246   7.983   1.322   6.734
 4531SOL    HW125247   8.065   1.271   6.760
 4531SOL    HW225248   7.937   1.355   6.816
 4532SOL     OW25249   2.692   7.335   3.551
 4532SOL    HW125250   2.748   7.418   3.545
 4532SOL    HW225251   2.679   7.298   3.459
 4533SOL     OW25252   0.390   2.222   6.564
 4533SOL    HW125253   0.343   2.273   6.492
 4533SOL    HW225254   0.473   2.270   6.591
 4534SOL     OW25255   8.021   3.182   5.269
 4534SOL    HW125256   8.101   3.165   5.326
 4534SOL    HW225257   8.049   3.188   5.173
 4535SOL     OW25258   0.057   8.980   1.375
 4535SOL    HW125259   0.014   8.986   1.285
 4535SOL    HW225260   0.150   8.945   1.365
 4536SOL     OW25261   7.366   6.812   4.357
 4536SOL    HW125262   7.396   6.740   4.295
 4536SOL    HW225263   7.426   6.892   4.347
 4537SOL     OW25264   1.815   7.933   5.101
 4537SOL    HW125265   1.775   7.851   5.060
 4537SOL    HW225266   1.886   7.969   5.040
 4538SOL     OW25267   9.582   7.751   5.875
 4538SOL    HW125268   9.650   7.806   5.924
 4538SOL    HW225269   9.617   7.658   5.862
 4539SOL     OW25270   3.370   2.094   6.011
 4539SOL    HW125271   3.293   2.056   6.061
 4539SOL    HW225272   3.401   2.178   6.056
 4540SOL     OW25273   3.593   5.043   1.168
 4540SOL    HW125274   3.676   4.998   1.202
 4540SOL    HW225275   3.514   5.005   1.215
 4541SOL     OW25276   3.211   6.208   4.300
 4541SOL    HW125277   3.291   6.150   4.316
 4541SOL    HW225278   3.182   6.199   4.205
 4542SOL     OW25279   9.487   8.606   5.634
 4542SOL    HW125280   9.489   8.526   5.574
 4542SOL    HW225281   9.564   8.604   5.697
 4543SOL     OW25282   6.028   8.974   4.829
 4543SOL    HW125283   5.994   8.961   4.736
 4543SOL    HW225284   6.104   8.910   4.846
 4544SOL     OW25285   4.921   4.340   5.320
 4544SOL    HW125286   4.893   4.388   5.403
 4544SOL    HW225287   4.900   4.397   5.240
 4545SOL     OW25288   7.458   4.607   3.802
 4545SOL    HW125289   7.465   4.598   3.703
 4545SOL    HW225290   7.384   4.548   3.835
 4546SOL     OW25291   5.294   9.342   3.878
 4546SOL    HW125292   5.240   9.387   3.807
 4546SOL    HW225293   5.380   9.308   3.839
 4547SOL     OW25294   8.934   0.158   6.162
 4547SOL    HW125295   8.849   0.112   6.137
 4547SOL    HW225296   8.913   0.247   6.203
 4548SOL     OW25297   3.952   7.767   6.608
 4548SOL    HW125298   3.924   7.838   6.672
 4548SOL    HW225299   3.932   7.677   6.648
 4549SOL     OW25300   3.277   3.849   4.461
 4549SOL    HW125301   3.234   3.905   4.532
 4549SOL    HW225302   3.209   3.788   4.421
 4550SOL     OW25303   1.728   5.950   4.756
 4550SOL    HW125304   1.643   5.909   4.723
 4550SOL    HW225305   1.727   5.951   4.856
 4551SOL     OW25306   0.801   7.932   3.204
 4551SOL    HW125307   0.779   7.886   3.290
 4551SOL    HW225308   0.733   7.907   3.135
 4552SOL     OW25309   2.074   3.174   5.686
 4552SOL    HW125310   2.078   3.179   5.786
 4552SOL    HW225311   2.094   3.264   5.648
 4553SOL     OW25312   7.741   1.832   4.773
 4553SOL    HW125313   7.828   1.803   4.733
 4553SOL    HW225314   7.698   1.754   4.818
 4554SOL     OW25315   2.966   5.289   4.940
 4554SOL    HW125316   3.058   5.298   4.980
 4554SOL    HW225317   2.973   5.297   4.840
 4555SOL     OW25318   9.603   6.125   1.668
 4555SOL    HW125319   9.587   6.036   1.711
 4555SOL    HW225320   9.642   6.111   1.577
 4556SOL     OW25321   0.050   1.316   5.030
 4556SOL    HW125322   0.130   1.285   5.082
 4556SOL    HW225323   9.977   1.344   5.093
 4557SOL     OW25324   9.653   7.083   2.193
 4557SOL    HW125325   9.739   7.127   2.218
 4557SOL    HW225326   9.609   7.135   2.120
 4558SOL     OW25327   2.174   4.018   1.704
 4558SOL    HW125328   2.097   4.014   1.767
 4558SOL    HW225329   2.260   4.009   1.754
 4559SOL     OW25330   0.156   8.949   0.947
 4559SOL    HW125331   0.214   8.870   0.923
 4559SOL    HW225332   0.172   9.023   0.882
 4560SOL     OW25333   0.665   2.577   3.173
 4560SOL    HW125334   0.592   2.636   3.206
 4560SOL    HW225335   0.684   2.507   3.241
 4561SOL     OW25336   6.991   8.556   4.763
 4561SOL    HW125337   6.971   8.651   4.786
 4561SOL    HW225338   7.054   8.519   4.831
 4562SOL     OW25339   0.764   6.443   5.566
 4562SOL    HW125340   0.766   6.472   5.470
 4562SOL    HW225341   0.792   6.347   5.572
 4563SOL     OW25342   3.514   5.067   2.789
 4563SOL    HW125343   3.552   5.106   2.705
 4563SOL    HW225344   3.430   5.116   2.813
 4564SOL     OW25345   5.643   0.671   4.481
 4564SOL    HW125346   5.703   0.689   4.403
 4564SOL    HW225347   5.699   0.648   4.561
 4565SOL     OW25348   1.238   8.408   1.798
 4565SOL    HW125349   1.185   8.453   1.726
 4565SOL    HW225350   1.233   8.463   1.881
 4566SOL     OW25351   2.429   4.671   6.254
 4566SOL    HW125352   2.345   4.633   6.217
 4566SOL    HW225353   2.436   4.648   6.351
 4567SOL     OW25354   8.635   1.240   1.492
 4567SOL    HW125355   8.654   1.142   1.494
 4567SOL    HW225356   8.701   1.287   1.551
 4568SOL     OW25357   0.955   3.729   1.698
 4568SOL    HW125358   0.934   3.663   1.626
 4568SOL    HW225359   0.883   3.799   1.701
 4569SOL     OW25360   3.672   7.368   2.827
 4569SOL    HW125361   3.621   7.282   2.825
 4569SOL    HW225362   3.749   7.362   2.763
 4570SOL     OW25363   2.548   1.965   1.169
 4570SOL    HW125364   2.522   1.868   1.160
 4570SOL    HW225365   2.647   1.972   1.183
 4571SOL     OW25366   7.742   9.460   1.552
 4571SOL    HW125367   7.658   9.437   1.600
 4571SOL    HW225368   7.820   9.425   1.603
 4572SOL     OW25369   2.589   2.694   7.424
 4572SOL    HW125370   2.497   2.675   7.391
 4572SOL    HW225371   2.655   2.674   7.352
 4573SOL     OW25372   7.420   1.736   1.431
 4573SOL    HW125373   7.352   1.696   1.492
 4573SOL    HW225374   7.469   1.809   1.478
 4574SOL     OW25375   2.809   1.814   0.174
 4574SOL    HW125376   2.805   1.886   0.104
 4574SOL    HW225377   2.781   1.853   0.262
 4575SOL     OW25378   4.650   9.388   3.477
 4575SOL    HW125379   4.633   9.452   3.402
 4575SOL    HW225380   4.615   9.298   3.453
 4576SOL     OW25381   7.146   4.677   1.240
 4576SOL    HW125382   7.110   4.620   1.166
 4576SOL    HW225383   7.216   4.627   1.290
 4577SOL     OW25384   0.130   0.449   3.209
 4577SOL    HW125385   0.049   0.408   3.166
 4577SOL    HW225386   0.111   0.545   3.230
 4578SOL     OW25387   2.780   6.015   3.990
 4578SOL    HW125388   2.870   5.972   3.990
 4578SOL    HW225389   2.710   5.945   3.973
 4579SOL     OW25390   7.635   7.082   3.752
 4579SOL    HW125391   7.721   7.125   3.780
 4579SOL    HW225392   7.564   7.151   3.744
 4580SOL     OW25393   6.627   1.016   7.449
 4580SOL    HW125394   6.561   0.944   7.432
 4580SOL    HW225395   6.628   1.038   7.547
 4581SOL     OW25396   0.831   9.705   6.849
 4581SOL    HW125397   0.862   9.678   6.758
 4581SOL    HW225398   0.754   9.768   6.841
 4582SOL     OW25399   5.238   2.380   6.912
 4582SOL    HW125400   5.285   2.325   6.981
 4582SOL    HW225401   5.209   2.467   6.952
 4583SOL     OW25402   5.661   4.994   2.289
 4583SOL    HW125403   5.627   5.040   2.371
 4583SOL    HW225404   5.745   4.944   2.311
 4584SOL     OW25405   6.704   1.075   2.398
 4584SOL    HW125406   6.761   0.994   2.385
 4584SOL    HW225407   6.719   1.112   2.489
 4585SOL     OW25408   8.070   6.109   4.804
 4585SOL    HW125409   8.127   6.173   4.855
 4585SOL    HW225410   8.033   6.040   4.867
 4586SOL     OW25411   1.269   8.461   7.446
 4586SOL    HW125412   1.201   8.534   7.444
 4586SOL    HW225413   1.264   8.414   7.534
 4587SOL     OW25414   6.459   1.350   2.147
 4587SOL    HW125415   6.459   1.432   2.089
 4587SOL    HW225416   6.552   1.317   2.158
 4588SOL     OW25417   8.907   3.477   5.559
 4588SOL    HW125418   8.958   3.457   5.475
 4588SOL    HW225419   8.812   3.448   5.548
 4589SOL     OW25420   7.123   0.792   5.476
 4589SOL    HW125421   7.040   0.826   5.520
 4589SOL    HW225422   7.201   0.849   5.502
 4590SOL     OW25423   9.534   5.118   4.955
 4590SOL    HW125424   9.552   5.202   5.005
 4590SOL    HW225425   9.502   5.140   4.863
 4591SOL     OW25426   4.132   9.411   6.297
 4591SOL    HW125427   4.041   9.437   6.330
 4591SOL    HW225428   4.184   9.371   6.373
 4592SOL     OW25429   9.862   6.537   3.906
 4592SOL    HW125430   9.864   6.459   3.968
 4592SOL    HW225431   9.837   6.506   3.814
 4593SOL     OW25432   3.498   7.128   4.029
 4593SOL    HW125433   3.480   7.030   4.034
 4593SOL    HW225434   3.453   7.175   4.105
 4594SOL     OW25435   8.981   9.288   4.450
 4594SOL    HW125436   9.073   9.313   4.481
 4594SOL    HW225437   8.961   9.194   4.478
 4595SOL     OW25438   2.023   2.066   2.431
 4595SOL    HW125439   2.081   2.144   2.458
 4595SOL    HW225440   1.951   2.053   2.499
 4596SOL     OW25441   2.286   0.448   3.719
 4596SOL    HW125442   2.262   0.365   3.769
 4596SOL    HW225443   2.239   0.527   3.760
 4597SOL     OW25444   9.766   9.717   0.942
 4597SOL    HW125445   9.709   9.769   1.006
 4597SOL    HW225446   9.799   9.777   0.870
 4598SOL     OW25447   0.873   1.169   7.169
 4598SOL    HW125448   0.825   1.096   7.218
 4598SOL    HW225449   0.808   1.242   7.147
 4599SOL     OW25450   4.382   5.087   5.284
 4599SOL    HW125451   4.449   5.014   5.271
 4599SOL    HW225452   4.292   5.048   5.301
 4600SOL     OW25453   6.931   2.826   3.824
 4600SOL    HW125454   6.987   2.804   3.744
 4600SOL    HW225455   6.987   2.817   3.907
 4601SOL     OW25456   3.510   3.274   6.037
 4601SOL    HW125457   3.468   3.201   5.982
 4601SOL    HW225458   3.604   3.289   6.005
 4602SOL     OW25459   2.324   6.079   5.175
 4602SOL    HW125460   2.235   6.063   5.219
 4602SOL    HW225461   2.374   6.150   5.225
 4603SOL     OW25462   9.979   4.194   6.292
 4603SOL    HW125463   9.944   4.262   6.227
 4603SOL    HW225464   9.984   4.235   6.383
 4604SOL     OW25465   3.192   2.124   6.395
 4604SOL    HW125466   3.231   2.199   6.448
 4604SOL    HW225467   3.099   2.106   6.426
 4605SOL     OW25468   3.831   4.508   3.532
 4605SOL    HW125469   3.893   4.585   3.519
 4605SOL    HW225470   3.870   4.445   3.600
 4606SOL     OW25471   6.569   1.166   1.640
 4606SOL    HW125472   6.606   1.198   1.553
 4606SOL    HW225473   6.643   1.132   1.698
 4607SOL     OW25474   2.946   0.191   0.089
 4607SOL    HW125475   3.034   0.240   0.092
 4607SOL    HW225476   2.963   0.093   0.098
 4608SOL     OW25477   2.967   0.377   6.474
 4608SOL    HW125478   2.938   0.435   6.398
 4608SOL    HW225479   2.889   0.322   6.506
 4609SOL     OW25480   5.354   1.206   6.034
 4609SOL    HW125481   5.312   1.174   5.949
 4609SOL    HW225482   5.292   1.268   6.081
 4610SOL     OW25483   5.986   8.870   4.179
 4610SOL    HW125484   6.062   8.897   4.237
 4610SOL    HW225485   6.013   8.792   4.122
 4611SOL     OW25486   4.758   3.155   7.480
 4611SOL    HW125487   4.853   3.166   7.451
 4611SOL    HW225488   4.740   3.059   7.498
 4612SOL     OW25489   0.963   9.180   3.246
 4612SOL    HW125490   0.996   9.274   3.239
 4612SOL    HW225491   0.988   9.143   3.335
 4613SOL     OW25492   7.797   4.371   2.229
 4613SOL    HW125493   7.710   4.329   2.255
 4613SOL    HW225494   7.852   4.385   2.311
 4614SOL     OW25495   1.284   1.688   5.428
 4614SOL    HW125496   1.374   1.644   5.425
 4614SOL    HW225497   1.221   1.640   5.367
 4615SOL     OW25498   2.546   1.330   3.310
 4615SOL    HW125499   2.508   1.396   3.374
 4615SOL    HW225500   2.630   1.366   3.270
 4616SOL     OW25501   0.298   4.837   1.929
 4616SOL    HW125502   0.324   4.742   1.911
 4616SOL    HW225503   0.199   4.843   1.942
 4617SOL     OW25504   4.143   5.964   3.589
 4617SOL    HW125505   4.232   6.007   3.572
 4617SOL    HW225506   4.098   6.012   3.665
 4618SOL     OW25507   9.986   7.987   2.731
 4618SOL    HW125508   9.920   8.054   2.765
 4618SOL    HW225509   0.048   8.032   2.666
 4619SOL     OW25510   1.616   6.157   6.611
 4619SOL    HW125511   1.646   6.162   6.706
 4619SOL    HW225512   1.667   6.084   6.564
 4620SOL     OW25513   1.727   1.180   6.504
 4620SOL    HW125514   1.763   1.087   6.496
 4620SOL    HW225515   1.752   1.233   6.423
 4621SOL     OW25516   9.350   6.880   2.327
 4621SOL    HW125517   9.449   6.894   2.335
 4621SOL    HW225518   9.304   6.919   2.407
 4622SOL     OW25519   0.828   4.676   1.728
 4622SOL    HW125520   0.793   4.752   1.784
 4622SOL    HW225521   0.830   4.704   1.632
 4623SOL     OW25522   7.354   1.576   7.919
 4623SOL    HW125523   7.398   1.662   7.894
 4623SOL    HW225524   7.303   1.589   8.004
 4624SOL     OW25525   9.092   1.865   1.799
 4624SOL    HW125526   9.067   1.771   1.821
 4624SOL    HW225527   9.054   1.890   1.710
 4625SOL     OW25528   4.646   9.155   7.291
 4625SOL    HW125529   4.744   9.169   7.309
 4625SOL    HW225530   4.620   9.201   7.207
 4626SOL     OW25531   9.959   4.192   7.937
 4626SOL    HW125532   9.865   4.161   7.946
 4626SOL    HW225533   9.961   4.286   7.903
 4627SOL     OW25534   1.049   2.302   2.277
 4627SOL    HW125535   1.075   2.361   2.354
 4627SOL    HW225536   1.131   2.262   2.236
 4628SOL     OW25537   3.669   0.987   4.358
 4628SOL    HW125538   3.687   1.082   4.330
 4628SOL    HW225539   3.573   0.978   4.386
 4629SOL     OW25540   7.567   0.016   1.415
 4629SOL    HW125541   7.568   9.936   1.355
 4629SOL    HW225542   7.566   9.986   1.510
 4630SOL     OW25543   9.712   1.147   6.742
 4630SOL    HW125544   9.660   1.180   6.664
 4630SOL    HW225545   9.649   1.111   6.812
 4631SOL     OW25546   3.912   4.654   1.893
 4631SOL    HW125547   3.944   4.592   1.964
 4631SOL    HW225548   3.828   4.700   1.923
 4632SOL     OW25549   4.159   0.802   0.210
 4632SOL    HW125550   4.120   0.821   0.120
 4632SOL    HW225551   4.128   0.873   0.275
 4633SOL     OW25552   1.723   7.411   2.380
 4633SOL    HW125553   1.785   7.476   2.336
 4633SOL    HW225554   1.633   7.453   2.391
 4634SOL     OW25555   3.843   4.468   1.106
 4634SOL    HW125556   3.936   4.432   1.114
 4634SOL    HW225557   3.832   4.514   1.018
 4635SOL     OW25558   5.922   1.834   1.541
 4635SOL    HW125559   5.887   1.888   1.618
 4635SOL    HW225560   5.881   1.743   1.543
 4636SOL     OW25561   0.074   0.608   5.911
 4636SOL    HW125562   0.166   0.645   5.919
 4636SOL    HW225563   0.072   0.538   5.839
 4637SOL     OW25564   7.492   3.338   4.284
 4637SOL    HW125565   7.552   3.276   4.234
 4637SOL    HW225566   7.546   3.396   4.344
 4638SOL     OW25567   9.972   8.524   4.333
 4638SOL    HW125568   0.068   8.551   4.331
 4638SOL    HW225569   9.948   8.490   4.424
 4639SOL     OW25570   4.786   4.787   2.874
 4639SOL    HW125571   4.740   4.699   2.889
 4639SOL    HW225572   4.880   4.770   2.841
 4640SOL     OW25573   3.374   6.568   4.872
 4640SOL    HW125574   3.435   6.629   4.821
 4640SOL    HW225575   3.394   6.576   4.970
 4641SOL     OW25576   8.987   7.585   7.033
 4641SOL    HW125577   8.970   7.654   7.104
 4641SOL    HW225578   9.022   7.630   6.950
 4642SOL     OW25579   9.142   8.521   2.346
 4642SOL    HW125580   9.198   8.603   2.338
 4642SOL    HW225581   9.116   8.507   2.442
 4643SOL     OW25582   3.342   2.475   5.231
 4643SOL    HW125583   3.247   2.507   5.228
 4643SOL    HW225584   3.345   2.379   5.202
 4644SOL     OW25585   8.167   5.254   1.036
 4644SOL    HW125586   8.117   5.340   1.050
 4644SOL    HW225587   8.104   5.185   0.999
 4645SOL     OW25588   4.949   3.253   7.149
 4645SOL    HW125589   4.979   3.234   7.056
 4645SOL    HW225590   4.863   3.305   7.146
 4646SOL     OW25591   0.014   8.024   3.981
 4646SOL    HW125592   9.969   8.103   4.022
 4646SOL    HW225593   0.055   7.968   4.053
 4647SOL     OW25594   3.063   4.246   3.894
 4647SOL    HW125595   3.089   4.342   3.906
 4647SOL    HW225596   2.964   4.240   3.881
 4648SOL     OW25597   5.861   9.516   2.652
 4648SOL    HW125598   5.959   9.534   2.666
 4648SOL    HW225599   5.818   9.596   2.611
 4649SOL     OW25600   9.840   2.708   3.328
 4649SOL    HW125601   9.877   2.744   3.242
 4649SOL    HW225602   9.786   2.778   3.374
 4650SOL     OW25603   0.053   9.189   6.811
 4650SOL    HW125604   9.958   9.199   6.780
 4650SOL    HW225605   0.109   9.153   6.737
 4651SOL     OW25606   0.544   8.249   6.423
 4651SOL    HW125607   0.620   8.185   6.416
 4651SOL    HW225608   0.477   8.229   6.352
 4652SOL     OW25609   4.644   2.547   7.284
 4652SOL    HW125610   4.587   2.507   7.356
 4652SOL    HW225611   4.591   2.554   7.199
 4653SOL     OW25612   4.040   7.343   4.820
 4653SOL    HW125613   4.024   7.434   4.781
 4653SOL    HW225614   3.998   7.274   4.762
 4654SOL     OW25615   4.306   4.402   6.240
 4654SOL    HW125616   4.337   4.310   6.216
 4654SOL    HW225617   4.376   4.448   6.294
 4655SOL     OW25618   4.405   3.064   4.995
 4655SOL    HW125619   4.433   3.154   5.030
 4655SOL    HW225620   4.469   2.994   5.027
 4656SOL     OW25621   9.814   9.946   5.472
 4656SOL    HW125622   9.818   9.937   5.372
 4656SOL    HW225623   9.722   9.923   5.504
 4657SOL     OW25624   7.940   2.746   1.620
 4657SOL    HW125625   7.857   2.785   1.659
 4657SOL    HW225626   7.981   2.810   1.556
 4658SOL     OW25627   4.052   8.034   1.447
 4658SOL    HW125628   4.043   7.999   1.354
 4658SOL    HW225629   3.963   8.028   1.494
 4659SOL     OW25630   2.626   4.090   6.041
 4659SOL    HW125631   2.697   4.160   6.044
 4659SOL    HW225632   2.574   4.092   6.127
 4660SOL     OW25633   7.769   5.592   0.929
 4660SOL    HW125634   7.698   5.611   0.861
 4660SOL    HW225635   7.806   5.500   0.913
 4661SOL     OW25636   0.123   9.974   2.073
 4661SOL    HW125637   0.100   9.922   2.155
 4661SOL    HW225638   0.214   9.946   2.040
 4662SOL     OW25639   1.592   7.748   3.170
 4662SOL    HW125640   1.686   7.727   3.196
 4662SOL    HW225641   1.553   7.670   3.120
 4663SOL     OW25642   7.628   9.891   7.026
 4663SOL    HW125643   7.613   9.961   7.095
 4663SOL    HW225644   7.612   9.801   7.065
 4664SOL     OW25645   9.690   2.474   0.164
 4664SOL    HW125646   9.785   2.506   0.165
 4664SOL    HW225647   9.682   2.394   0.224
 4665SOL     OW25648   9.640   0.006   7.139
 4665SOL    HW125649   9.661   9.910   7.121
 4665SOL    HW225650   9.698   0.065   7.082
 4666SOL     OW25651   5.853   0.377   2.744
 4666SOL    HW125652   5.880   0.306   2.809
 4666SOL    HW225653   5.778   0.344   2.688
 4667SOL     OW25654   1.502   4.515   6.462
 4667SOL    HW125655   1.579   4.554   6.413
 4667SOL    HW225656   1.447   4.588   6.502
 4668SOL     OW25657   3.838   7.914   5.336
 4668SOL    HW125658   3.754   7.896   5.285
 4668SOL    HW225659   3.836   7.864   5.422
 4669SOL     OW25660   9.435   5.961   6.161
 4669SOL    HW125661   9.454   6.053   6.125
 4669SOL    HW225662   9.501   5.897   6.123
 4670SOL     OW25663   9.616   9.824   1.614
 4670SOL    HW125664   9.601   9.793   1.520
 4670SOL    HW225665   9.651   9.918   1.612
 4671SOL     OW25666   5.451   4.591   0.333
 4671SOL    HW125667   5.498   4.572   0.419
 4671SOL    HW225668   5.489   4.534   0.260
 4672SOL     OW25669   8.805   8.744   3.709
 4672SOL    HW125670   8.835   8.839   3.696
 4672SOL    HW225671   8.781   8.704   3.620
 4673SOL     OW25672   4.367   4.356   5.244
 4673SOL    HW125673   4.333   4.407   5.165
 4673SOL    HW225674   4.413   4.419   5.307
 4674SOL     OW25675   1.638   9.454   4.855
 4674SOL    HW125676   1.563   9.407   4.808
 4674SOL    HW225677   1.696   9.387   4.902
 4675SOL     OW25678   8.987   1.671   3.685
 4675SOL    HW125679   9.039   1.590   3.659
 4675SOL    HW225680   8.892   1.662   3.655
 4676SOL     OW25681   2.942   5.114   2.658
 4676SOL    HW125682   2.983   5.125   2.749
 4676SOL    HW225683   2.877   5.188   2.642
 4677SOL     OW25684   4.022   3.175   4.647
 4677SOL    HW125685   3.974   3.107   4.703
 4677SOL    HW225686   3.956   3.219   4.586
 4678SOL     OW25687   8.801   9.262   5.117
 4678SOL    HW125688   8.838   9.169   5.114
 4678SOL    HW225689   8.725   9.269   5.053
 4679SOL     OW25690   7.086   4.170   3.242
 4679SOL    HW125691   7.173   4.139   3.280
 4679SOL    HW225692   7.099   4.194   3.145
 4680SOL     OW25693   2.393   1.370   7.631
 4680SOL    HW125694   2.344   1.378   7.718
 4680SOL    HW225695   2.382   1.277   7.595
 4681SOL     OW25696   9.279   5.764   0.951
 4681SOL    HW125697   9.231   5.697   1.008
 4681SOL    HW225698   9.237   5.854   0.963
 4682SOL     OW25699   5.192   1.015   3.836
 4682SOL    HW125700   5.279   0.984   3.799
 4682SOL    HW225701   5.201   1.111   3.865
 4683SOL     OW25702   6.234   8.942   6.824
 4683SOL    HW125703   6.323   8.943   6.870
 4683SOL    HW225704   6.213   9.033   6.789
 4684SOL     OW25705   0.061   2.443   7.443
 4684SOL    HW125706   0.160   2.453   7.434
 4684SOL    HW225707   0.017   2.471   7.357
 4685SOL     OW25708   1.847   8.110   6.962
 4685SOL    HW125709   1.881   8.022   6.929
 4685SOL    HW225710   1.900   8.184   6.920
 4686SOL     OW25711   1.704   5.688   5.662
 4686SOL    HW125712   1.714   5.588   5.656
 4686SOL    HW225713   1.607   5.712   5.654
 4687SOL     OW25714   6.611   9.056   5.182
 4687SOL    HW125715   6.616   9.137   5.123
 4687SOL    HW225716   6.515   9.033   5.199
 4688SOL     OW25717   2.320   0.338   5.735
 4688SOL    HW125718   2.377   0.387   5.801
 4688SOL    HW225719   2.224   0.352   5.757
 4689SOL     OW25720   8.850   2.895   7.139
 4689SOL    HW125721   8.751   2.881   7.145
 4689SOL    HW225722   8.891   2.820   7.088
 4690SOL     OW25723   9.378   5.156   2.871
 4690SOL    HW125724   9.400   5.068   2.912
 4690SOL    HW225725   9.397   5.153   2.773
 4691SOL     OW25726   3.272   9.582   0.564
 4691SOL    HW125727   3.299   9.669   0.521
 4691SOL    HW225728   3.176   9.588   0.593
 4692SOL     OW25729   3.270   4.029   6.870
 4692SOL    HW125730   3.278   3.992   6.962
 4692SOL    HW225731   3.334   3.982   6.810
 4693SOL     OW25732   0.085   3.165   7.360
 4693SOL    HW125733   0.116   3.081   7.403
 4693SOL    HW225734   0.004   3.146   7.304
 4694SOL     OW25735   4.247   8.118   5.290
 4694SOL    HW125736   4.193   8.034   5.293
 4694SOL    HW225737   4.343   8.095   5.274
 4695SOL     OW25738   0.731   2.088   4.957
 4695SOL    HW125739   0.777   2.088   4.868
 4695SOL    HW225740   0.777   2.152   5.019
 4696SOL     OW25741   9.106   1.736   1.342
 4696SOL    HW125742   9.110   1.824   1.294
 4696SOL    HW225743   9.017   1.728   1.388
 4697SOL     OW25744   9.910   5.655   3.248
 4697SOL    HW125745   9.899   5.747   3.210
 4697SOL    HW225746   9.820   5.618   3.271
 4698SOL     OW25747   2.754   4.051   1.325
 4698SOL    HW125748   2.681   4.066   1.258
 4698SOL    HW225749   2.729   3.973   1.384
 4699SOL     OW25750   6.469   2.371   0.115
 4699SOL    HW125751   6.482   2.281   0.156
 4699SOL    HW225752   6.508   2.441   0.175
 4700SOL     OW25753   4.521   5.911   0.564
 4700SOL    HW125754   4.609   5.915   0.516
 4700SOL    HW225755   4.516   5.985   0.631
 4701SOL     OW25756   1.138   0.956   3.285
 4701SOL    HW125757   1.143   0.928   3.381
 4701SOL    HW225758   1.148   1.055   3.279
 4702SOL     OW25759   6.649   0.867   1.067
 4702SOL    HW125760   6.745   0.862   1.042
 4702SOL    HW225761   6.619   0.779   1.104
 4703SOL     OW25762   5.387   3.069   6.658
 4703SOL    HW125763   5.487   3.071   6.652
 4703SOL    HW225764   5.355   3.137   6.724
 4704SOL     OW25765   4.035   2.036   2.739
 4704SOL    HW125766   4.023   2.028   2.641
 4704SOL    HW225767   4.101   2.109   2.759
 4705SOL     OW25768   3.011   4.198   7.249
 4705SOL    HW125769   3.106   4.178   7.272
 4705SOL    HW225770   3.000   4.295   7.230
 4706SOL     OW25771   1.621   7.403   0.190
 4706SOL    HW125772   1.647   7.482   0.245
 4706SOL    HW225773   1.701   7.372   0.137
 4707SOL     OW25774   2.813   5.462   0.209
 4707SOL    HW125775   2.910   5.488   0.208
 4707SOL    HW225776   2.782   5.454   0.303
 4708SOL     OW25777   0.235   3.854   7.857
 4708SOL    HW125778   0.327   3.819   7.874
 4708SOL    HW225779   0.229   3.948   7.891
 4709SOL     OW25780   1.478   7.580   4.975
 4709SOL    HW125781   1.453   7.532   4.891
 4709SOL    HW225782   1.415   7.656   4.991
 4710SOL     OW25783   8.664   8.343   1.398
 4710SOL    HW125784   8.588   8.354   1.334
 4710SOL    HW225785   8.698   8.433   1.426
 4711SOL     OW25786   7.232   0.318   5.932
 4711SOL    HW125787   7.273   0.404   5.963
 4711SOL    HW225788   7.298   0.244   5.942
 4712SOL     OW25789   7.805   5.018   1.378
 4712SOL    HW125790   7.778   4.932   1.335
 4712SOL    HW225791   7.736   5.088   1.360
 4713SOL     OW25792   3.959   5.151   2.765
 4713SOL    HW125793   3.889   5.105   2.819
 4713SOL    HW225794   3.954   5.119   2.670
 4714SOL     OW25795   8.219   6.085   6.869
 4714SOL    HW125796   8.205   6.156   6.800
 4714SOL    HW225797   8.138   6.079   6.928
 4715SOL     OW25798   5.982   0.879   4.111
 4715SOL    HW125799   5.924   0.955   4.082
 4715SOL    HW225800   6.068   0.914   4.146
 4716SOL     OW25801   1.145   7.028   7.760
 4716SOL    HW125802   1.160   6.929   7.750
 4716SOL    HW225803   1.176   7.075   7.677
 4717SOL     OW25804   1.327   6.038   7.369
 4717SOL    HW125805   1.340   6.137   7.372
 4717SOL    HW225806   1.415   5.993   7.364
 4718SOL     OW25807   2.033   7.384   5.107
 4718SOL    HW125808   2.113   7.378   5.168
 4718SOL    HW225809   2.042   7.314   5.035
 4719SOL     OW25810   2.692   3.168   1.292
 4719SOL    HW125811   2.701   3.089   1.353
 4719SOL    HW225812   2.728   3.144   1.202
 4720SOL     OW25813   8.966   8.103   1.868
 4720SOL    HW125814   8.902   8.031   1.894
 4720SOL    HW225815   8.941   8.189   1.914
 4721SOL     OW25816   8.978   9.112   7.234
 4721SOL    HW125817   9.046   9.184   7.245
 4721SOL    HW225818   8.910   9.119   7.307
 4722SOL     OW25819   8.554   0.105   4.926
 4722SOL    HW125820   8.480   0.152   4.878
 4722SOL    HW225821   8.573   0.018   4.880
 4723SOL     OW25822   2.650   0.932   5.719
 4723SOL    HW125823   2.631   0.836   5.695
 4723SOL    HW225824   2.566   0.975   5.751
 4724SOL     OW25825   9.783   4.627   3.469
 4724SOL    HW125826   9.800   4.703   3.532
 4724SOL    HW225827   9.843   4.636   3.389
 4725SOL     OW25828   8.349   6.166   5.361
 4725SOL    HW125829   8.427   6.190   5.419
 4725SOL    HW225830   8.308   6.082   5.395
 4726SOL     OW25831   5.515   4.355   1.722
 4726SOL    HW125832   5.417   4.372   1.727
 4726SOL    HW225833   5.537   4.313   1.634
 4727SOL     OW25834   2.641   4.265   2.828
 4727SOL    HW125835   2.558   4.270   2.773
 4727SOL    HW225836   2.687   4.353   2.829
 4728SOL     OW25837   6.649   9.558   2.827
 4728SOL    HW125838   6.685   9.529   2.915
 4728SOL    HW225839   6.601   9.645   2.838
 4729SOL     OW25840   8.845   2.315   7.683
 4729SOL    HW125841   8.761   2.287   7.638
 4729SOL    HW225842   8.866   2.252   7.758
 4730SOL     OW25843   9.308   3.281   7.750
 4730SOL    HW125844   9.246   3.229   7.809
 4730SOL    HW225845   9.399   3.240   7.752
 4731SOL     OW25846   4.738   7.806   3.813
 4731SOL    HW125847   4.677   7.808   3.733
 4731SOL    HW225848   4.831   7.830   3.784
 4732SOL     OW25849   0.555   9.191   0.384
 4732SOL    HW125850   0.491   9.128   0.340
 4732SOL    HW225851   0.557   9.277   0.333
 4733SOL     OW25852   0.879   2.041   5.710
 4733SOL    HW125853   0.910   2.106   5.641
 4733SOL    HW225854   0.830   2.091   5.782
 4734SOL     OW25855   0.486   7.630   0.815
 4734SOL    HW125856   0.536   7.545   0.799
 4734SOL    HW225857   0.388   7.614   0.804
 4735SOL     OW25858   5.923   3.072   0.368
 4735SOL    HW125859   5.988   2.996   0.371
 4735SOL    HW225860   5.856   3.061   0.441
 4736SOL     OW25861   9.502   7.770   0.882
 4736SOL    HW125862   9.598   7.768   0.855
 4736SOL    HW225863   9.496   7.771   0.982
 4737SOL     OW25864   4.168   6.319   7.664
 4737SOL    HW125865   4.176   6.257   7.585
 4737SOL    HW225866   4.255   6.320   7.713
 4738SOL     OW25867   0.437   5.541   3.143
 4738SOL    HW125868   0.449   5.451   3.185
 4738SOL    HW225869   0.340   5.562   3.136
 4739SOL     OW25870   8.251   3.247   1.178
 4739SOL    HW125871   8.249   3.347   1.167
 4739SOL    HW225872   8.301   3.206   1.102
 4740SOL     OW25873   0.019   0.543   2.602
 4740SOL    HW125874   0.088   0.614   2.612
 4740SOL    HW225875   0.063   0.453   2.610
 4741SOL     OW25876   1.471   8.446   4.749
 4741SOL    HW125877   1.460   8.356   4.705
 4741SOL    HW225878   1.526   8.436   4.832
 4742SOL     OW25879   4.129   9.774   0.697
 4742SOL    HW125880   4.079   9.757   0.782
 4742SOL    HW225881   4.065   9.773   0.620
 4743SOL     OW25882   7.995   7.372   5.270
 4743SOL    HW125883   7.981   7.288   5.218
 4743SOL    HW225884   7.907   7.406   5.303
 4744SOL     OW25885   9.405   2.606   3.945
 4744SOL    HW125886   9.384   2.688   3.891
 4744SOL    HW225887   9.426   2.631   4.039
 4745SOL     OW25888   4.224   2.603   0.688
 4745SOL    HW125889   4.200   2.688   0.641
 4745SOL    HW225890   4.177   2.526   0.643
 4746SOL     OW25891   3.687   9.046   0.949
 4746SOL    HW125892   3.648   9.027   1.040
 4746SOL    HW225893   3.747   9.125   0.955
 4747SOL     OW25894   0.836   6.678   1.068
 4747SOL    HW125895   0.752   6.697   1.017
 4747SOL    HW225896   0.912   6.666   1.004
 4748SOL     OW25897   1.214   3.214   6.289
 4748SOL    HW125898   1.234   3.310   6.309
 4748SOL    HW225899   1.227   3.159   6.372
 4749SOL     OW25900   0.579   3.904   0.913
 4749SOL    HW125901   0.640   3.923   0.837
 4749SOL    HW225902   0.484   3.915   0.884
 4750SOL     OW25903   8.770   6.371   7.196
 4750SOL    HW125904   8.720   6.380   7.109
 4750SOL    HW225905   8.723   6.423   7.267
 4751SOL     OW25906   3.239   7.596   7.812
 4751SOL    HW125907   3.337   7.604   7.832
 4751SOL    HW225908   3.189   7.669   7.858
 4752SOL     OW25909   2.001   1.966   0.965
 4752SOL    HW125910   2.022   2.014   1.050
 4752SOL    HW225911   2.084   1.957   0.910
 4753SOL     OW25912   0.451   4.456   4.715
 4753SOL    HW125913   0.383   4.435   4.786
 4753SOL    HW225914   0.440   4.393   4.638
 4754SOL     OW25915   6.539   4.788   7.753
 4754SOL    HW125916   6.605   4.777   7.678
 4754SOL    HW225917   6.453   4.825   7.716
 4755SOL     OW25918   0.569   6.929   3.914
 4755SOL    HW125919   0.484   6.877   3.908
 4755SOL    HW225920   0.642   6.871   3.950
 4756SOL     OW25921   8.543   1.974   2.441
 4756SOL    HW125922   8.599   2.032   2.381
 4756SOL    HW225923   8.586   1.968   2.531
 4757SOL     OW25924   3.101   1.394   7.892
 4757SOL    HW125925   3.200   1.385   7.899
 4757SOL    HW225926   3.061   1.397   7.984
 4758SOL     OW25927   8.295   8.513   2.055
 4758SOL    HW125928   8.209   8.562   2.040
 4758SOL    HW225929   8.352   8.565   2.118
 4759SOL     OW25930   7.688   6.075   4.485
 4759SOL    HW125931   7.781   6.060   4.452
 4759SOL    HW225932   7.661   6.000   4.545
 4760SOL     OW25933   9.092   3.390   7.607
 4760SOL    HW125934   9.166   3.334   7.644
 4760SOL    HW225935   9.130   3.477   7.575
 4761SOL     OW25936   5.504   2.069   1.008
 4761SOL    HW125937   5.544   2.147   0.961
 4761SOL    HW225938   5.575   2.017   1.054
 4762SOL     OW25939   9.407   0.360   0.367
 4762SOL    HW125940   9.490   0.377   0.313
 4762SOL    HW225941   9.409   0.267   0.403
 4763SOL     OW25942   2.423   4.286   4.062
 4763SOL    HW125943   2.392   4.302   3.968
 4763SOL    HW225944   2.386   4.357   4.122
 4764SOL     OW25945   9.550   9.383   2.146
 4764SOL    HW125946   9.544   9.468   2.094
 4764SOL    HW225947   9.460   9.340   2.150
 4765SOL     OW25948   2.486   4.478   0.773
 4765SOL    HW125949   2.500   4.498   0.870
 4765SOL    HW225950   2.567   4.507   0.722
 4766SOL     OW25951   1.800   3.730   6.112
 4766SOL    HW125952   1.798   3.814   6.166
 4766SOL    HW225953   1.821   3.753   6.017
 4767SOL     OW25954   0.374   5.028   4.324
 4767SOL    HW125955   0.279   5.051   4.342
 4767SOL    HW225956   0.429   5.043   4.407
 4768SOL     OW25957   3.018   3.431   6.723
 4768SOL    HW125958   3.016   3.473   6.632
 4768SOL    HW225959   2.938   3.462   6.775
 4769SOL     OW25960   6.320   8.645   5.565
 4769SOL    HW125961   6.349   8.740   5.578
 4769SOL    HW225962   6.364   8.587   5.633
 4770SOL     OW25963   4.696   7.873   2.473
 4770SOL    HW125964   4.636   7.796   2.453
 4770SOL    HW225965   4.678   7.947   2.409
 4771SOL     OW25966   6.998   5.231   7.005
 4771SOL    HW125967   7.090   5.194   7.019
 4771SOL    HW225968   6.950   5.178   6.936
 4772SOL     OW25969   3.796   1.347   4.617
 4772SOL    HW125970   3.715   1.370   4.563
 4772SOL    HW225971   3.771   1.286   4.692
 4773SOL     OW25972   8.529   7.203   2.511
 4773SOL    HW125973   8.480   7.172   2.592
 4773SOL    HW225974   8.533   7.128   2.444
 4774SOL     OW25975   8.279   3.460   3.703
 4774SOL    HW125976   8.261   3.362   3.706
 4774SOL    HW225977   8.338   3.486   3.779
 4775SOL     OW25978   1.809   0.920   6.482
 4775SOL    HW125979   1.806   0.846   6.414
 4775SOL    HW225980   1.872   0.896   6.555
 4776SOL     OW25981   2.540   6.556   0.414
 4776SOL    HW125982   2.579   6.629   0.471
 4776SOL    HW225983   2.571   6.467   0.448
 4777SOL     OW25984   4.434   4.384   1.001
 4777SOL    HW125985   4.489   4.402   1.083
 4777SOL    HW225986   4.495   4.376   0.922
 4778SOL     OW25987   0.481   1.284   0.145
 4778SOL    HW125988   0.476   1.194   0.101
 4778SOL    HW225989   0.564   1.289   0.200
 4779SOL     OW25990   8.797   1.121   6.526
 4779SOL    HW125991   8.790   1.220   6.519
 4779SOL    HW225992   8.775   1.080   6.438
 4780SOL     OW25993   9.405   0.092   0.422
 4780SOL    HW125994   9.342   0.067   0.496
 4780SOL    HW225995   9.480   0.026   0.420
 4781SOL     OW25996   0.304   1.417   1.225
 4781SOL    HW125997   0.389   1.378   1.263
 4781SOL    HW225998   0.319   1.513   1.203
 4782SOL     OW25999   2.767   3.002   5.777
 4782SOL    HW126000   2.748   3.041   5.867
 4782SOL    HW226001   2.792   2.906   5.787
 4783SOL     OW26002   0.004   6.873   5.431
 4783SOL    HW126003   9.972   6.865   5.526
 4783SOL    HW226004   9.994   6.968   5.401
 4784SOL     OW26005   7.958   1.842   1.174
 4784SOL    HW126006   7.872   1.796   1.154
 4784SOL    HW226007   7.943   1.913   1.243
 4785SOL     OW26008   2.272   9.710   3.571
 4785SOL    HW126009   2.177   9.725   3.596
 4785SOL    HW226010   2.327   9.789   3.600
 4786SOL     OW26011   9.068   0.514   2.102
 4786SOL    HW126012   9.009   0.434   2.086
 4786SOL    HW226013   9.151   0.485   2.149
 4787SOL     OW26014   9.745   4.859   6.534
 4787SOL    HW126015   9.743   4.951   6.494
 4787SOL    HW226016   9.677   4.854   6.608
 4788SOL     OW26017   7.512   9.686   7.860
 4788SOL    HW126018   7.517   9.586   7.858
 4788SOL    HW226019   7.418   9.716   7.844
 4789SOL     OW26020   9.476   4.092   1.628
 4789SOL    HW126021   9.552   4.099   1.692
 4789SOL    HW226022   9.444   4.184   1.603
 4790SOL     OW26023   3.838   0.101   1.858
 4790SOL    HW126024   3.903   0.043   1.810
 4790SOL    HW226025   3.756   0.113   1.801
 4791SOL     OW26026   6.431   9.441   5.216
 4791SOL    HW126027   6.469   9.509   5.154
 4791SOL    HW226028   6.349   9.401   5.174
 4792SOL     OW26029   3.344   2.109   0.606
 4792SOL    HW126030   3.319   2.205   0.595
 4792SOL    HW226031   3.434   2.094   0.565
 4793SOL     OW26032   0.906   2.405   5.878
 4793SOL    HW126033   0.938   2.432   5.787
 4793SOL    HW226034   0.948   2.464   5.947
 4794SOL     OW26035   0.521   3.652   1.025
 4794SOL    HW126036   0.452   3.679   1.092
 4794SOL    HW226037   0.560   3.734   0.982
 4795SOL     OW26038   3.873   8.179   5.437
 4795SOL    HW126039   3.872   8.082   5.414
 4795SOL    HW226040   3.781   8.216   5.428
 4796SOL     OW26041   0.029   2.828   2.330
 4796SOL    HW126042   0.063   2.916   2.297
 4796SOL    HW226043   0.078   2.754   2.284
 4797SOL     OW26044   9.757   4.754   0.208
 4797SOL    HW126045   9.800   4.782   0.122
 4797SOL    HW226046   9.686   4.686   0.190
 4798SOL     OW26047   4.537   8.524   0.081
 4798SOL    HW126048   4.585   8.441   0.054
 4798SOL    HW226049   4.546   8.593   0.009
 4799SOL     OW26050   2.017   0.984   1.239
 4799SOL    HW126051   2.011   0.884   1.236
 4799SOL    HW226052   2.084   1.011   1.307
 4800SOL     OW26053   2.609   5.517   7.638
 4800SOL    HW126054   2.525   5.549   7.683
 4800SOL    HW226055   2.686   5.523   7.702
 4801SOL     OW26056   6.991   7.332   4.449
 4801SOL    HW126057   7.073   7.275   4.448
 4801SOL    HW226058   6.922   7.291   4.389
 4802SOL     OW26059   5.751   4.329   1.038
 4802SOL    HW126060   5.695   4.364   0.963
 4802SOL    HW226061   5.726   4.234   1.057
 4803SOL     OW26062   5.242   3.237   2.415
 4803SOL    HW126063   5.284   3.325   2.393
 4803SOL    HW226064   5.179   3.249   2.493
 4804SOL     OW26065   1.581   6.154   3.618
 4804SOL    HW126066   1.586   6.061   3.656
 4804SOL    HW226067   1.556   6.218   3.691
 4805SOL     OW26068   1.728   7.790   1.331
 4805SOL    HW126069   1.745   7.888   1.338
 4805SOL    HW226070   1.695   7.768   1.239
 4806SOL     OW26071   7.382   3.339   2.727
 4806SOL    HW126072   7.377   3.286   2.811
 4806SOL    HW226073   7.360   3.435   2.747
 4807SOL     OW26074   2.992   6.819   5.284
 4807SOL    HW126075   2.924   6.804   5.356
 4807SOL    HW226076   3.000   6.737   5.228
 4808SOL     OW26077   3.201   3.123   5.708
 4808SOL    HW126078   3.257   3.119   5.625
 4808SOL    HW226079   3.105   3.135   5.682
 4809SOL     OW26080   4.412   1.424   5.232
 4809SOL    HW126081   4.325   1.417   5.184
 4809SOL    HW226082   4.471   1.490   5.184
 4810SOL     OW26083   1.462   7.128   0.833
 4810SOL    HW126084   1.511   7.054   0.787
 4810SOL    HW226085   1.382   7.091   0.880
 4811SOL     OW26086   9.236   9.023   3.621
 4811SOL    HW126087   9.189   8.945   3.581
 4811SOL    HW226088   9.197   9.108   3.584
 4812SOL     OW26089   3.540   2.017   2.903
 4812SOL    HW126090   3.515   2.000   2.998
 4812SOL    HW226091   3.640   2.024   2.895
 4813SOL     OW26092   5.447   7.739   2.520
 4813SOL    HW126093   5.350   7.729   2.539
 4813SOL    HW226094   5.464   7.721   2.423
 4814SOL     OW26095   7.272   6.037   6.381
 4814SOL    HW126096   7.209   6.032   6.304
 4814SOL    HW226097   7.290   6.133   6.403
 4815SOL     OW26098   2.989   3.435   5.731
 4815SOL    HW126099   2.975   3.342   5.696
 4815SOL    HW226100   3.079   3.441   5.774
 4816SOL     OW26101   8.160   1.739   2.529
 4816SOL    HW126102   8.142   1.777   2.620
 4816SOL    HW226103   8.092   1.773   2.464
 4817SOL     OW26104   5.795   7.300   4.647
 4817SOL    HW126105   5.884   7.335   4.619
 4817SOL    HW226106   5.760   7.355   4.724
 4818SOL     OW26107   8.841   6.076   0.577
 4818SOL    HW126108   8.880   6.031   0.657
 4818SOL    HW226109   8.910   6.080   0.504
 4819SOL     OW26110   9.674   3.995   3.505
 4819SOL    HW126111   9.625   3.976   3.590
 4819SOL    HW226112   9.681   3.911   3.451
 4820SOL     OW26113   6.016   8.418   5.721
 4820SOL    HW126114   6.083   8.413   5.647
 4820SOL    HW226115   5.935   8.366   5.695
 4821SOL     OW26116   4.001   9.701   0.940
 4821SOL    HW126117   3.920   9.724   0.993
 4821SOL    HW226118   4.083   9.721   0.994
 4822SOL     OW26119   1.558   3.212   0.675
 4822SOL    HW126120   1.655   3.223   0.693
 4822SOL    HW226121   1.545   3.160   0.591
 4823SOL     OW26122   9.288   1.127   6.672
 4823SOL    HW126123   9.284   1.055   6.741
 4823SOL    HW226124   9.208   1.120   6.612
 4824SOL     OW26125   7.163   1.763   4.336
 4824SOL    HW126126   7.108   1.842   4.366
 4824SOL    HW226127   7.259   1.790   4.330
 4825SOL     OW26128   2.299   7.087   4.940
 4825SOL    HW126129   2.209   7.129   4.932
 4825SOL    HW226130   2.361   7.127   4.872
 4826SOL     OW26131   2.418   2.505   2.049
 4826SOL    HW126132   2.318   2.500   2.060
 4826SOL    HW226133   2.455   2.573   2.113
 4827SOL     OW26134   2.882   9.794   7.530
 4827SOL    HW126135   2.937   9.857   7.585
 4827SOL    HW226136   2.911   9.700   7.549
 4828SOL     OW26137   9.522   6.955   4.530
 4828SOL    HW126138   9.607   6.954   4.477
 4828SOL    HW226139   9.499   7.049   4.555
 4829SOL     OW26140   9.792   6.363   0.703
 4829SOL    HW126141   9.828   6.436   0.761
 4829SOL    HW226142   9.825   6.375   0.609
 4830SOL     OW26143   3.813   9.850   2.542
 4830SOL    HW126144   3.723   9.888   2.523
 4830SOL    HW226145   3.870   9.918   2.588
 4831SOL     OW26146   3.410   5.322   5.859
 4831SOL    HW126147   3.356   5.382   5.917
 4831SOL    HW226148   3.355   5.291   5.781
 4832SOL     OW26149   9.136   8.612   0.703
 4832SOL    HW126150   9.202   8.571   0.640
 4832SOL    HW226151   9.108   8.702   0.669
 4833SOL     OW26152   1.144   2.600   7.513
 4833SOL    HW126153   1.055   2.554   7.511
 4833SOL    HW226154   1.217   2.531   7.513
 4834SOL     OW26155   0.211   7.752   1.720
 4834SOL    HW126156   0.175   7.659   1.714
 4834SOL    HW226157   0.276   7.768   1.645
 4835SOL     OW26158   1.397   4.196   7.775
 4835SOL    HW126159   1.368   4.291   7.775
 4835SOL    HW226160   1.342   4.143   7.710
 4836SOL     OW26161   8.888   6.825   2.020
 4836SOL    HW126162   8.908   6.889   1.947
 4836SOL    HW226163   8.964   6.762   2.031
 4837SOL     OW26164   8.572   5.400   3.624
 4837SOL    HW126165   8.566   5.481   3.566
 4837SOL    HW226166   8.666   5.365   3.622
 4838SOL     OW26167   1.756   1.576   6.796
 4838SOL    HW126168   1.669   1.555   6.752
 4838SOL    HW226169   1.787   1.497   6.850
 4839SOL     OW26170   0.580   0.704   5.163
 4839SOL    HW126171   0.507   0.636   5.163
 4839SOL    HW226172   0.543   0.793   5.136
 4840SOL     OW26173   3.179   0.286   0.886
 4840SOL    HW126174   3.228   0.336   0.957
 4840SOL    HW226175   3.096   0.247   0.924
 4841SOL     OW26176   4.639   7.989   5.467
 4841SOL    HW126177   4.609   8.041   5.547
 4841SOL    HW226178   4.580   8.009   5.389
 4842SOL     OW26179   1.421   1.618   4.440
 4842SOL    HW126180   1.333   1.614   4.391
 4842SOL    HW226181   1.438   1.712   4.470
 4843SOL     OW26182   1.290   4.769   6.978
 4843SOL    HW126183   1.205   4.761   7.031
 4843SOL    HW226184   1.331   4.678   6.968
 4844SOL     OW26185   9.325   1.985   4.723
 4844SOL    HW126186   9.367   1.990   4.632
 4844SOL    HW226187   9.232   1.950   4.715
 4845SOL     OW26188   8.167   9.834   1.384
 4845SOL    HW126189   8.090   9.796   1.334
 4845SOL    HW226190   8.218   9.761   1.429
 4846SOL     OW26191   8.705   9.067   0.129
 4846SOL    HW126192   8.728   9.080   0.033
 4846SOL    HW226193   8.607   9.081   0.142
 4847SOL     OW26194   6.452   0.319   7.665
 4847SOL    HW126195   6.414   0.365   7.584
 4847SOL    HW226196   6.380   0.269   7.712
 4848SOL     OW26197   9.839   0.414   5.346
 4848SOL    HW126198   9.745   0.402   5.315
 4848SOL    HW226199   9.902   0.381   5.276
 4849SOL     OW26200   0.352   8.972   6.916
 4849SOL    HW126201   0.409   8.987   6.997
 4849SOL    HW226202   0.372   9.042   6.848
 4850SOL     OW26203   0.657   9.075   1.353
 4850SOL    HW126204   0.709   9.157   1.329
 4850SOL    HW226205   0.714   8.994   1.339
 4851SOL     OW26206   1.681   1.392   1.837
 4851SOL    HW126207   1.602   1.372   1.895
 4851SOL    HW226208   1.650   1.436   1.753
 4852SOL     OW26209   4.438   7.617   2.848
 4852SOL    HW126210   4.410   7.682   2.777
 4852SOL    HW226211   4.372   7.543   2.854
 4853SOL     OW26212   3.128   2.248   2.967
 4853SOL    HW126213   3.209   2.287   3.012
 4853SOL    HW226214   3.113   2.155   3.000
 4854SOL     OW26215   2.717   7.371   0.110
 4854SOL    HW126216   2.796   7.407   0.157
 4854SOL    HW226217   2.747   7.309   0.037
 4855SOL     OW26218   8.907   7.295   2.746
 4855SOL    HW126219   8.991   7.255   2.783
 4855SOL    HW226220   8.874   7.367   2.807
 4856SOL     OW26221   1.715   2.564   1.085
 4856SOL    HW126222   1.811   2.578   1.110
 4856SOL    HW226223   1.682   2.478   1.124
 4857SOL     OW26224   4.275   8.665   7.617
 4857SOL    HW126225   4.326   8.747   7.593
 4857SOL    HW226226   4.294   8.593   7.550
 4858SOL     OW26227   2.303   7.430   6.764
 4858SOL    HW126228   2.277   7.468   6.675
 4858SOL    HW226229   2.227   7.440   6.828
 4859SOL     OW26230   4.177   3.191   6.122
 4859SOL    HW126231   4.184   3.091   6.121
 4859SOL    HW226232   4.212   3.228   6.036
 4860SOL     OW26233   7.426   7.692   3.100
 4860SOL    HW126234   7.394   7.781   3.068
 4860SOL    HW226235   7.367   7.620   3.063
 4861SOL     OW26236   7.065   6.191   1.351
 4861SOL    HW126237   6.968   6.211   1.337
 4861SOL    HW226238   7.076   6.095   1.377
 4862SOL     OW26239   8.862   4.759   5.484
 4862SOL    HW126240   8.861   4.859   5.483
 4862SOL    HW226241   8.793   4.725   5.420
 4863SOL     OW26242   6.415   1.316   4.640
 4863SOL    HW126243   6.500   1.263   4.645
 4863SOL    HW226244   6.436   1.410   4.613
 4864SOL     OW26245   4.374   8.123   0.538
 4864SOL    HW126246   4.440   8.192   0.509
 4864SOL    HW226247   4.411   8.031   0.522
 4865SOL     OW26248   9.196   9.419   0.818
 4865SOL    HW126249   9.186   9.352   0.744
 4865SOL    HW226250   9.186   9.372   0.906
 4866SOL     OW26251   1.903   3.468   1.745
 4866SOL    HW126252   1.949   3.381   1.764
 4866SOL    HW226253   1.972   3.537   1.722
 4867SOL     OW26254   5.902   0.866   0.657
 4867SOL    HW126255   5.909   0.775   0.697
 4867SOL    HW226256   5.987   0.916   0.675
 4868SOL     OW26257   1.072   2.742   6.478
 4868SOL    HW126258   1.045   2.653   6.442
 4868SOL    HW226259   1.021   2.814   6.431
 4869SOL     OW26260   0.548   6.034   1.917
 4869SOL    HW126261   0.587   6.071   2.001
 4869SOL    HW226262   0.471   6.092   1.888
 4870SOL     OW26263   4.746   3.954   6.274
 4870SOL    HW126264   4.791   3.990   6.355
 4870SOL    HW226265   4.704   3.865   6.295
 4871SOL     OW26266   1.016   0.086   0.713
 4871SOL    HW126267   1.002   0.150   0.637
 4871SOL    HW226268   1.092   0.117   0.769
 4872SOL     OW26269   4.297   5.585   3.747
 4872SOL    HW126270   4.217   5.643   3.743
 4872SOL    HW226271   4.310   5.553   3.841
 4873SOL     OW26272   3.276   5.831   4.103
 4873SOL    HW126273   3.277   5.731   4.095
 4873SOL    HW226274   3.199   5.868   4.053
 4874SOL     OW26275   3.086   0.299   1.989
 4874SOL    HW126276   3.081   0.273   2.086
 4874SOL    HW226277   3.006   0.264   1.941
 4875SOL     OW26278   6.053   2.193   0.039
 4875SOL    HW126279   6.077   2.273   0.094
 4875SOL    HW226280   6.121   2.180  10.048
 4876SOL     OW26281   1.424   4.870   3.886
 4876SOL    HW126282   1.460   4.785   3.924
 4876SOL    HW226283   1.465   4.886   3.796
 4877SOL     OW26284   9.151   6.352   5.446
 4877SOL    HW126285   9.095   6.312   5.374
 4877SOL    HW226286   9.243   6.313   5.442
 4878SOL     OW26287   0.917   2.275   4.007
 4878SOL    HW126288   0.970   2.358   3.996
 4878SOL    HW226289   0.979   2.196   4.012
 4879SOL     OW26290   4.483   7.481   3.222
 4879SOL    HW126291   4.388   7.487   3.191
 4879SOL    HW226292   4.536   7.426   3.158
 4880SOL     OW26293   5.875   9.354   7.019
 4880SOL    HW126294   5.961   9.303   7.017
 4880SOL    HW226295   5.888   9.439   7.069
 4881SOL     OW26296   8.573   2.426   4.057
 4881SOL    HW126297   8.498   2.423   4.124
 4881SOL    HW226298   8.581   2.518   4.020
 4882SOL     OW26299   5.279   8.812   4.899
 4882SOL    HW126300   5.346   8.757   4.849
 4882SOL    HW226301   5.323   8.858   4.975
 4883SOL     OW26302   8.690   3.751   0.888
 4883SOL    HW126303   8.694   3.679   0.818
 4883SOL    HW226304   8.628   3.723   0.961
 4884SOL     OW26305   7.573   8.212   5.040
 4884SOL    HW126306   7.629   8.173   5.113
 4884SOL    HW226307   7.545   8.140   4.977
 4885SOL     OW26308   0.599   1.078   0.389
 4885SOL    HW126309   0.502   1.094   0.406
 4885SOL    HW226310   0.644   1.164   0.368
 4886SOL     OW26311   3.346   2.379   3.986
 4886SOL    HW126312   3.304   2.424   3.908
 4886SOL    HW226313   3.278   2.366   4.058
 4887SOL     OW26314   5.875   1.569   6.868
 4887SOL    HW126315   5.813   1.639   6.832
 4887SOL    HW226316   5.955   1.561   6.809
 4888SOL     OW26317   4.155   9.198   1.886
 4888SOL    HW126318   4.067   9.191   1.933
 4888SOL    HW226319   4.181   9.294   1.877
 4889SOL     OW26320   1.886   1.978   3.179
 4889SOL    HW126321   1.946   1.948   3.105
 4889SOL    HW226322   1.801   2.014   3.140
 4890SOL     OW26323   7.254   4.824   7.814
 4890SOL    HW126324   7.252   4.836   7.914
 4890SOL    HW226325   7.305   4.899   7.773
 4891SOL     OW26326   8.099   7.890   2.740
 4891SOL    HW126327   8.030   7.881   2.668
 4891SOL    HW226328   8.174   7.826   2.722
 4892SOL     OW26329   3.413   0.916   6.345
 4892SOL    HW126330   3.494   0.868   6.311
 4892SOL    HW226331   3.379   0.870   6.427
 4893SOL     OW26332   8.410   8.681   4.460
 4893SOL    HW126333   8.410   8.780   4.474
 4893SOL    HW226334   8.399   8.661   4.363
 4894SOL     OW26335   3.739   8.499   2.988
 4894SOL    HW126336   3.723   8.518   2.891
 4894SOL    HW226337   3.801   8.567   3.026
 4895SOL     OW26338   3.057   8.581   2.822
 4895SOL    HW126339   2.966   8.622   2.828
 4895SOL    HW226340   3.050   8.488   2.785
 4896SOL     OW26341   8.211   3.194   1.899
 4896SOL    HW126342   8.127   3.248   1.895
 4896SOL    HW226343   8.206   3.119   1.833
 4897SOL     OW26344   2.780   0.310   6.011
 4897SOL    HW126345   2.780   0.410   6.013
 4897SOL    HW226346   2.745   0.278   5.923
 4898SOL     OW26347   0.457   9.055   1.166
 4898SOL    HW126348   0.530   9.066   1.234
 4898SOL    HW226349   0.405   9.141   1.160
 4899SOL     OW26350   2.949   0.972   4.934
 4899SOL    HW126351   2.915   1.062   4.962
 4899SOL    HW226352   2.882   0.901   4.959
 4900SOL     OW26353   8.549   9.956   6.977
 4900SOL    HW126354   8.610   9.911   6.913
 4900SOL    HW226355   8.456   9.956   6.940
 4901SOL     OW26356   1.612   0.450   2.916
 4901SOL    HW126357   1.618   0.520   2.987
 4901SOL    HW226358   1.702   0.409   2.903
 4902SOL     OW26359   7.540   7.171   2.992
 4902SOL    HW126360   7.585   7.260   3.002
 4902SOL    HW226361   7.601   7.100   3.026
 4903SOL     OW26362   9.491   2.877   2.814
 4903SOL    HW126363   9.422   2.947   2.792
 4903SOL    HW226364   9.503   2.872   2.913
 4904SOL     OW26365   6.351   9.896   6.065
 4904SOL    HW126366   6.438   9.849   6.051
 4904SOL    HW226367   6.368   9.985   6.108
 4905SOL     OW26368   3.466   2.793   2.867
 4905SOL    HW126369   3.537   2.803   2.797
 4905SOL    HW226370   3.435   2.698   2.869
 4906SOL     OW26371   0.991   5.069   2.327
 4906SOL    HW126372   0.908   5.020   2.354
 4906SOL    HW226373   0.975   5.167   2.331
 4907SOL     OW26374   7.032   1.576   2.376
 4907SOL    HW126375   6.940   1.554   2.342
 4907SOL    HW226376   7.090   1.496   2.368
 4908SOL     OW26377   0.563   0.831   5.876
 4908SOL    HW126378   0.527   0.833   5.783
 4908SOL    HW226379   0.609   0.917   5.895
 4909SOL     OW26380   1.876   0.526   1.491
 4909SOL    HW126381   1.893   0.445   1.436
 4909SOL    HW226382   1.959   0.583   1.494
 4910SOL     OW26383   0.271   7.617   4.860
 4910SOL    HW126384   0.352   7.675   4.871
 4910SOL    HW226385   0.292   7.525   4.894
 4911SOL     OW26386   7.796   7.020   5.898
 4911SOL    HW126387   7.869   7.055   5.838
 4911SOL    HW226388   7.751   6.942   5.854
 4912SOL     OW26389   7.569   5.543   1.841
 4912SOL    HW126390   7.663   5.527   1.810
 4912SOL    HW226391   7.511   5.469   1.808
 4913SOL     OW26392   3.529   8.362   7.234
 4913SOL    HW126393   3.546   8.380   7.331
 4913SOL    HW226394   3.599   8.405   7.178
 4914SOL     OW26395   8.960   2.230   2.652
 4914SOL    HW126396   8.861   2.230   2.658
 4914SOL    HW226397   8.990   2.298   2.585
 4915SOL     OW26398   5.227   7.816   6.357
 4915SOL    HW126399   5.159   7.746   6.381
 4915SOL    HW226400   5.312   7.799   6.407
 4916SOL     OW26401   0.257   3.007   2.936
 4916SOL    HW126402   0.206   2.925   2.914
 4916SOL    HW226403   0.345   3.005   2.888
 4917SOL     OW26404   4.500   1.143   7.461
 4917SOL    HW126405   4.514   1.220   7.523
 4917SOL    HW226406   4.504   1.057   7.512
 4918SOL     OW26407   8.575   4.536   7.451
 4918SOL    HW126408   8.576   4.464   7.521
 4918SOL    HW226409   8.485   4.538   7.408
 4919SOL     OW26410   2.636   1.826   3.633
 4919SOL    HW126411   2.670   1.734   3.652
 4919SOL    HW226412   2.689   1.867   3.559
 4920SOL     OW26413   0.628   9.250   5.229
 4920SOL    HW126414   0.651   9.338   5.187
 4920SOL    HW226415   0.542   9.216   5.190
 4921SOL     OW26416   0.437   6.124   2.796
 4921SOL    HW126417   0.448   6.025   2.800
 4921SOL    HW226418   0.393   6.150   2.710
 4922SOL     OW26419   8.092   2.929   1.459
 4922SOL    HW126420   8.176   2.884   1.427
 4922SOL    HW226421   8.028   2.938   1.383
 4923SOL     OW26422   0.765   6.159   1.778
 4923SOL    HW126423   0.701   6.097   1.823
 4923SOL    HW226424   0.742   6.167   1.681
 4924SOL     OW26425   9.299   1.565   6.809
 4924SOL    HW126426   9.394   1.591   6.791
 4924SOL    HW226427   9.261   1.519   6.728
 4925SOL     OW26428   6.149   9.743   2.019
 4925SOL    HW126429   6.199   9.735   2.105
 4925SOL    HW226430   6.153   9.656   1.970
 4926SOL     OW26431   5.739   0.133   2.344
 4926SOL    HW126432   5.785   0.077   2.413
 4926SOL    HW226433   5.806   0.165   2.277
 4927SOL     OW26434   0.125   1.891   1.312
 4927SOL    HW126435   0.130   1.865   1.216
 4927SOL    HW226436   0.173   1.823   1.367
 4928SOL     OW26437   8.011   3.811   2.785
 4928SOL    HW126438   7.914   3.834   2.780
 4928SOL    HW226439   8.026   3.720   2.746
 4929SOL     OW26440   0.817   8.285   0.799
 4929SOL    HW126441   0.915   8.286   0.781
 4929SOL    HW226442   0.800   8.253   0.892
 4930SOL     OW26443   8.539   0.458   4.887
 4930SOL    HW126444   8.540   0.535   4.823
 4930SOL    HW226445   8.471   0.391   4.859
 4931SOL     OW26446   8.961   2.149   6.925
 4931SOL    HW126447   8.994   2.186   7.011
 4931SOL    HW226448   8.927   2.223   6.867
 4932SOL     OW26449   0.620   1.332   3.597
 4932SOL    HW126450   0.543   1.393   3.616
 4932SOL    HW226451   0.617   1.253   3.658
 4933SOL     OW26452   2.985   6.895   2.458
 4933SOL    HW126453   3.068   6.849   2.488
 4933SOL    HW226454   3.001   6.940   2.371
 4934SOL     OW26455   3.668   4.814   2.583
 4934SOL    HW126456   3.709   4.884   2.641
 4934SOL    HW226457   3.597   4.855   2.527
 4935SOL     OW26458   5.639   1.909   1.817
 4935SOL    HW126459   5.686   1.831   1.859
 4935SOL    HW226460   5.608   1.883   1.726
 4936SOL     OW26461   8.964   0.060   3.506
 4936SOL    HW126462   8.959   0.049   3.407
 4936SOL    HW226463   9.036   0.001   3.543
 4937SOL     OW26464   9.014   3.095   1.131
 4937SOL    HW126465   8.952   3.161   1.089
 4937SOL    HW226466   9.108   3.129   1.125
 4938SOL     OW26467   8.812   3.827   3.690
 4938SOL    HW126468   8.735   3.861   3.637
 4938SOL    HW226469   8.779   3.763   3.760
 4939SOL     OW26470   9.977   9.607   4.189
 4939SOL    HW126471   0.011   9.560   4.270
 4939SOL    HW226472   9.933   9.692   4.216
 4940SOL     OW26473   4.793   3.232   0.048
 4940SOL    HW126474   4.887   3.253   0.073
 4940SOL    HW226475   4.732   3.251   0.125
 4941SOL     OW26476   3.097   7.244   3.546
 4941SOL    HW126477   3.039   7.163   3.557
 4941SOL    HW226478   3.179   7.219   3.494
 4942SOL     OW26479   0.924   7.659   2.785
 4942SOL    HW126480   0.981   7.584   2.750
 4942SOL    HW226481   0.887   7.633   2.874
 4943SOL     OW26482   0.251   1.161   0.689
 4943SOL    HW126483   0.255   1.082   0.751
 4943SOL    HW226484   0.155   1.181   0.668
 4944SOL     OW26485   3.039   2.675   4.808
 4944SOL    HW126486   3.104   2.712   4.874
 4944SOL    HW226487   2.948   2.674   4.848
 4945SOL     OW26488   4.096   2.209   6.526
 4945SOL    HW126489   4.033   2.146   6.482
 4945SOL    HW226490   4.047   2.292   6.553
 4946SOL     OW26491   4.980   2.132   5.253
 4946SOL    HW126492   5.030   2.103   5.172
 4946SOL    HW226493   4.949   2.227   5.241
 4947SOL     OW26494   0.960   0.065   1.121
 4947SOL    HW126495   0.997   9.995   1.183
 4947SOL    HW226496   0.989   0.155   1.153
 4948SOL     OW26497   8.766   8.148   6.709
 4948SOL    HW126498   8.745   8.245   6.696
 4948SOL    HW226499   8.826   8.117   6.635
 4949SOL     OW26500   6.658   3.032   1.608
 4949SOL    HW126501   6.644   3.105   1.674
 4949SOL    HW226502   6.626   3.061   1.518
 4950SOL     OW26503   3.738   5.175   4.538
 4950SOL    HW126504   3.782   5.181   4.449
 4950SOL    HW226505   3.768   5.091   4.584
 4951SOL     OW26506   1.725   5.366   0.262
 4951SOL    HW126507   1.768   5.456   0.253
 4951SOL    HW226508   1.639   5.365   0.212
 4952SOL     OW26509   1.748   0.636   4.363
 4952SOL    HW126510   1.841   0.616   4.332
 4952SOL    HW226511   1.687   0.640   4.284
 4953SOL     OW26512   9.297   7.889   7.728
 4953SOL    HW126513   9.198   7.871   7.732
 4953SOL    HW226514   9.313   7.987   7.727
 4954SOL     OW26515   6.050   0.757   1.838
 4954SOL    HW126516   6.113   0.682   1.821
 4954SOL    HW226517   5.956   0.724   1.829
 4955SOL     OW26518   7.599   3.161   5.056
 4955SOL    HW126519   7.674   3.128   5.113
 4955SOL    HW226520   7.513   3.125   5.091
 4956SOL     OW26521   9.980   3.095   1.042
 4956SOL    HW126522   9.951   3.179   1.088
 4956SOL    HW226523   9.975   3.019   1.107
 4957SOL     OW26524   1.884   5.152   4.086
 4957SOL    HW126525   1.980   5.179   4.087
 4957SOL    HW226526   1.864   5.101   4.002
 4958SOL     OW26527   0.582   4.185   4.111
 4958SOL    HW126528   0.487   4.156   4.106
 4958SOL    HW226529   0.634   4.139   4.039
 4959SOL     OW26530   7.778   8.004   6.544
 4959SOL    HW126531   7.825   8.073   6.489
 4959SOL    HW226532   7.776   7.917   6.495
 4960SOL     OW26533   4.923   9.975   6.911
 4960SOL    HW126534   4.925   9.941   7.005
 4960SOL    HW226535   4.888   0.068   6.909
 4961SOL     OW26536   4.337   6.104   4.460
 4961SOL    HW126537   4.277   6.087   4.382
 4961SOL    HW226538   4.291   6.162   4.526
 4962SOL     OW26539   9.364   7.336   2.318
 4962SOL    HW126540   9.457   7.372   2.320
 4962SOL    HW226541   9.341   7.299   2.408
 4963SOL     OW26542   8.502   8.768   5.129
 4963SOL    HW126543   8.417   8.781   5.181
 4963SOL    HW226544   8.535   8.675   5.143
 4964SOL     OW26545   1.883   7.110   4.508
 4964SOL    HW126546   1.806   7.095   4.570
 4964SOL    HW226547   1.913   7.022   4.471
 4965SOL     OW26548   2.764   3.511   6.829
 4965SOL    HW126549   2.669   3.518   6.798
 4965SOL    HW226550   2.781   3.580   6.900
 4966SOL     OW26551   1.197   0.632   6.883
 4966SOL    HW126552   1.130   0.560   6.865
 4966SOL    HW226553   1.197   0.696   6.807
 4967SOL     OW26554   2.897   3.969   3.079
 4967SOL    HW126555   2.825   3.965   3.147
 4967SOL    HW226556   2.859   3.999   2.991
 4968SOL     OW26557   1.357   0.449   5.961
 4968SOL    HW126558   1.422   0.524   5.952
 4968SOL    HW226559   1.371   0.403   6.048
 4969SOL     OW26560   8.174   9.998   2.138
 4969SOL    HW126561   8.150   0.074   2.077
 4969SOL    HW226562   8.103   9.928   2.134
 4970SOL     OW26563   9.710   0.946   2.833
 4970SOL    HW126564   9.774   1.016   2.865
 4970SOL    HW226565   9.743   0.907   2.747
 4971SOL     OW26566   7.386   6.339   3.496
 4971SOL    HW126567   7.426   6.336   3.404
 4971SOL    HW226568   7.365   6.246   3.526
 4972SOL     OW26569   1.960   4.962   4.655
 4972SOL    HW126570   2.056   4.986   4.645
 4972SOL    HW226571   1.918   4.951   4.565
 4973SOL     OW26572   4.752   4.725   7.235
 4973SOL    HW126573   4.721   4.663   7.163
 4973SOL    HW226574   4.844   4.698   7.265
 4974SOL     OW26575   4.522   3.502   6.079
 4974SOL    HW126576   4.511   3.508   5.979
 4974SOL    HW226577   4.565   3.415   6.102
 4975SOL     OW26578   3.762   0.205   2.728
 4975SOL    HW126579   3.785   0.282   2.789
 4975SOL    HW226580   3.666   0.181   2.740
 4976SOL     OW26581   0.850   6.618   7.182
 4976SOL    HW126582   0.876   6.692   7.121
 4976SOL    HW226583   0.889   6.532   7.149
 4977SOL     OW26584   6.116   9.937   3.052
 4977SOL    HW126585   6.142   9.962   2.958
 4977SOL    HW226586   6.017   9.928   3.057
 4978SOL     OW26587   3.900   6.493   4.709
 4978SOL    HW126588   4.000   6.489   4.711
 4978SOL    HW226589   3.870   6.555   4.637
 4979SOL     OW26590   7.428   9.928   3.641
 4979SOL    HW126591   7.445   9.831   3.624
 4979SOL    HW226592   7.459   9.952   3.733
 4980SOL     OW26593   4.068   1.096   4.778
 4980SOL    HW126594   4.017   1.098   4.865
 4980SOL    HW226595   4.007   1.070   4.704
 4981SOL     OW26596   8.279   7.181   4.531
 4981SOL    HW126597   8.208   7.126   4.488
 4981SOL    HW226598   8.369   7.153   4.495
 4982SOL     OW26599   8.726   5.062   4.796
 4982SOL    HW126600   8.826   5.064   4.809
 4982SOL    HW226601   8.682   5.104   4.875
 4983SOL     OW26602   5.293   9.040   6.339
 4983SOL    HW126603   5.193   9.039   6.339
 4983SOL    HW226604   5.327   9.070   6.250
 4984SOL     OW26605   0.733   0.879   0.251
 4984SOL    HW126606   0.681   0.954   0.293
 4984SOL    HW226607   0.816   0.862   0.304
 4985SOL     OW26608   1.728   3.940   2.521
 4985SOL    HW126609   1.663   3.927   2.446
 4985SOL    HW226610   1.763   4.033   2.519
 4986SOL     OW26611   2.843   7.229   0.399
 4986SOL    HW126612   2.836   7.202   0.495
 4986SOL    HW226613   2.758   7.206   0.352
 4987SOL     OW26614   3.698   2.961   1.907
 4987SOL    HW126615   3.673   3.051   1.944
 4987SOL    HW226616   3.615   2.906   1.895
 4988SOL     OW26617   2.469   7.216   5.959
 4988SOL    HW126618   2.424   7.301   5.933
 4988SOL    HW226619   2.427   7.139   5.910
 4989SOL     OW26620   9.671   8.100   1.995
 4989SOL    HW126621   9.756   8.063   1.957
 4989SOL    HW226622   9.685   8.124   2.091
 4990SOL     OW26623   4.830   1.889   1.047
 4990SOL    HW126624   4.740   1.845   1.042
 4990SOL    HW226625   4.822   1.977   1.094
 4991SOL     OW26626   1.876   7.213   6.862
 4991SOL    HW126627   1.908   7.173   6.776
 4991SOL    HW226628   1.777   7.223   6.860
 4992SOL     OW26629   0.028   3.626   0.763
 4992SOL    HW126630   9.965   3.690   0.718
 4992SOL    HW226631   9.984   3.537   0.773
 4993SOL     OW26632   7.948   8.781   6.896
 4993SOL    HW126633   7.910   8.691   6.874
 4993SOL    HW226634   7.950   8.793   6.995
 4994SOL     OW26635   6.106   1.066   5.888
 4994SOL    HW126636   6.073   1.121   5.965
 4994SOL    HW226637   6.048   0.984   5.879
 4995SOL     OW26638   8.564   3.996   4.062
 4995SOL    HW126639   8.554   4.009   3.964
 4995SOL    HW226640   8.648   3.946   4.081
 4996SOL     OW26641   3.444   5.510   3.340
 4996SOL    HW126642   3.502   5.537   3.263
 4996SOL    HW226643   3.401   5.422   3.320
 4997SOL     OW26644   3.736   9.033   2.274
 4997SOL    HW126645   3.691   9.030   2.363
 4997SOL    HW226646   3.675   8.994   2.205
 4998SOL     OW26647   5.849   7.790   2.987
 4998SOL    HW126648   5.750   7.784   2.997
 4998SOL    HW226649   5.882   7.872   3.033
 4999SOL     OW26650   8.389   7.606   5.023
 4999SOL    HW126651   8.299   7.594   5.065
 4999SOL    HW226652   8.442   7.673   5.076
 5000SOL     OW26653   8.100   7.875   0.979
 5000SOL    HW126654   8.107   7.950   1.044
 5000SOL    HW226655   8.131   7.906   0.889
 5001SOL     OW26656   9.382   4.609   4.095
 5001SOL    HW126657   9.425   4.686   4.049
 5001SOL    HW226658   9.335   4.552   4.028
 5002SOL     OW26659   9.077   6.320   2.318
 5002SOL    HW126660   9.017   6.304   2.396
 5002SOL    HW226661   9.171   6.331   2.350
 5003SOL     OW26662   4.464   5.694   3.555
 5003SOL    HW126663   4.404   5.659   3.627
 5003SOL    HW226664   4.527   5.622   3.525
 5004SOL     OW26665   7.004   6.078   2.217
 5004SOL    HW126666   7.036   6.160   2.266
 5004SOL    HW226667   6.962   6.105   2.130
 5005SOL     OW26668   6.152   1.554   2.150
 5005SOL    HW126669   6.181   1.496   2.226
 5005SOL    HW226670   6.072   1.608   2.177
 5006SOL     OW26671   3.654   8.895   3.613
 5006SOL    HW126672   3.734   8.839   3.593
 5006SOL    HW226673   3.633   8.890   3.711
 5007SOL     OW26674   3.162   8.152   0.250
 5007SOL    HW126675   3.152   8.229   0.314
 5007SOL    HW226676   3.142   8.067   0.298
 5008SOL     OW26677   3.091   6.317   7.870
 5008SOL    HW126678   3.147   6.387   7.827
 5008SOL    HW226679   3.010   6.360   7.911
 5009SOL     OW26680   5.243   6.498   0.118
 5009SOL    HW126681   5.334   6.477   0.153
 5009SOL    HW226682   5.189   6.414   0.112
 5010SOL     OW26683   1.593   1.603   3.091
 5010SOL    HW126684   1.673   1.544   3.099
 5010SOL    HW226685   1.608   1.672   3.021
 5011SOL     OW26686   4.020   5.264   3.705
 5011SOL    HW126687   3.946   5.229   3.649
 5011SOL    HW226688   4.023   5.214   3.792
 5012SOL     OW26689   9.984   6.155   2.349
 5012SOL    HW126690   9.932   6.240   2.342
 5012SOL    HW226691   0.005   6.137   2.445
 5013SOL     OW26692   3.174   1.883   7.310
 5013SOL    HW126693   3.207   1.801   7.264
 5013SOL    HW226694   3.089   1.862   7.359
 5014SOL     OW26695   4.109   2.590   4.610
 5014SOL    HW126696   4.155   2.654   4.672
 5014SOL    HW226697   4.125   2.618   4.515
 5015SOL     OW26698   8.605   1.752   4.066
 5015SOL    HW126699   8.673   1.701   4.013
 5015SOL    HW226700   8.651   1.824   4.117
 5016SOL     OW26701   7.626   6.489   3.268
 5016SOL    HW126702   7.637   6.391   3.284
 5016SOL    HW226703   7.644   6.539   3.352
 5017SOL     OW26704   2.854   7.855   7.178
 5017SOL    HW126705   2.849   7.831   7.081
 5017SOL    HW226706   2.849   7.773   7.234
 5018SOL     OW26707   2.252   0.484   4.401
 5018SOL    HW126708   2.316   0.516   4.331
 5018SOL    HW226709   2.272   0.529   4.488
 5019SOL     OW26710   4.786   3.788   5.086
 5019SOL    HW126711   4.818   3.769   5.179
 5019SOL    HW226712   4.847   3.854   5.042
 5020SOL     OW26713   9.729   8.108   3.073
 5020SOL    HW126714   9.804   8.044   3.090
 5020SOL    HW226715   9.643   8.067   3.104
 5021SOL     OW26716   7.643   0.205   7.534
 5021SOL    HW126717   7.562   0.150   7.554
 5021SOL    HW226718   7.665   0.262   7.614
 5022SOL     OW26719   2.059   3.147   7.686
 5022SOL    HW126720   2.088   3.207   7.760
 5022SOL    HW226721   2.138   3.101   7.647
 5023SOL     OW26722   9.519   2.239   3.762
 5023SOL    HW126723   9.452   2.224   3.835
 5023SOL    HW226724   9.472   2.273   3.681
 5024SOL     OW26725   8.054   9.841   3.521
 5024SOL    HW126726   7.969   9.795   3.547
 5024SOL    HW226727   8.042   9.940   3.529
 5025SOL     OW26728   0.711   0.267   3.643
 5025SOL    HW126729   0.754   0.298   3.558
 5025SOL    HW226730   0.672   0.176   3.630
 5026SOL     OW26731   9.391   6.663   1.772
 5026SOL    HW126732   9.315   6.599   1.764
 5026SOL    HW226733   9.359   6.748   1.815
 5027SOL     OW26734   3.113   1.267   3.899
 5027SOL    HW126735   3.112   1.342   3.966
 5027SOL    HW226736   3.092   1.181   3.945
 5028SOL     OW26737   3.044   8.455   3.170
 5028SOL    HW126738   3.041   8.523   3.244
 5028SOL    HW226739   3.117   8.480   3.106
 5029SOL     OW26740   5.835   5.175   1.873
 5029SOL    HW126741   5.745   5.216   1.862
 5029SOL    HW226742   5.873   5.200   1.962
 5030SOL     OW26743   0.318   7.945   3.065
 5030SOL    HW126744   0.276   7.854   3.066
 5030SOL    HW226745   0.321   7.982   3.158
 5031SOL     OW26746   4.277   8.421   1.349
 5031SOL    HW126747   4.260   8.400   1.445
 5031SOL    HW226748   4.198   8.392   1.294
 5032SOL     OW26749   6.875   2.984   2.003
 5032SOL    HW126750   6.924   2.911   2.050
 5032SOL    HW226751   6.782   2.992   2.041
 5033SOL     OW26752   0.575   6.279   7.752
 5033SOL    HW126753   0.496   6.272   7.812
 5033SOL    HW226754   0.559   6.351   7.684
 5034SOL     OW26755   2.188   9.553   3.356
 5034SOL    HW126756   2.126   9.615   3.306
 5034SOL    HW226757   2.233   9.604   3.429
 5035SOL     OW26758   8.049   5.019   3.004
 5035SOL    HW126759   7.975   4.952   3.012
 5035SOL    HW226760   8.049   5.058   2.912
 5036SOL     OW26761   7.707   8.598   2.717
 5036SOL    HW126762   7.703   8.684   2.767
 5036SOL    HW226763   7.757   8.611   2.632
 5037SOL     OW26764   6.116   0.001   1.223
 5037SOL    HW126765   6.039   0.049   1.182
 5037SOL    HW226766   6.087   9.911   1.255
 5038SOL     OW26767   4.999   7.849   3.747
 5038SOL    HW126768   5.027   7.753   3.739
 5038SOL    HW226769   5.072   7.901   3.792
 5039SOL     OW26770   2.707   1.816   4.514
 5039SOL    HW126771   2.675   1.881   4.445
 5039SOL    HW226772   2.648   1.735   4.513
 5040SOL     OW26773   1.794   2.467   4.493
 5040SOL    HW126774   1.776   2.380   4.447
 5040SOL    HW226775   1.838   2.530   4.429
 5041SOL     OW26776   3.820   4.905   7.115
 5041SOL    HW126777   3.915   4.935   7.121
 5041SOL    HW226778   3.805   4.858   7.028
 5042SOL     OW26779   2.201   8.148   6.027
 5042SOL    HW126780   2.212   8.232   6.079
 5042SOL    HW226781   2.213   8.166   5.929
 5043SOL     OW26782   3.395   5.038   0.485
 5043SOL    HW126783   3.296   5.051   0.490
 5043SOL    HW226784   3.434   5.051   0.577
 5044SOL     OW26785   8.752   4.331   0.045
 5044SOL    HW126786   8.762   4.265   0.120
 5044SOL    HW226787   8.706   4.287  10.050
 5045SOL     OW26788   6.076   9.708   3.955
 5045SOL    HW126789   6.099   9.805   3.958
 5045SOL    HW226790   5.989   9.695   3.909
 5046SOL     OW26791   5.990   0.489   4.572
 5046SOL    HW126792   5.927   0.542   4.627
 5046SOL    HW226793   5.987   0.521   4.477
 5047SOL     OW26794   7.170   2.379   0.879
 5047SOL    HW126795   7.165   2.279   0.872
 5047SOL    HW226796   7.145   2.407   0.971
 5048SOL     OW26797   0.554   6.486   7.584
 5048SOL    HW126798   0.615   6.561   7.610
 5048SOL    HW226799   0.481   6.521   7.525
 5049SOL     OW26800   3.238   7.409   6.753
 5049SOL    HW126801   3.269   7.380   6.843
 5049SOL    HW226802   3.203   7.330   6.702
 5050SOL     OW26803   6.748   1.182   7.264
 5050SOL    HW126804   6.803   1.117   7.211
 5050SOL    HW226805   6.694   1.132   7.332
 5051SOL     OW26806   5.208   4.841   7.770
 5051SOL    HW126807   5.168   4.749   7.764
 5051SOL    HW226808   5.307   4.835   7.763
 5052SOL     OW26809   4.751   3.023   5.790
 5052SOL    HW126810   4.778   2.968   5.869
 5052SOL    HW226811   4.665   2.987   5.752
 5053SOL     OW26812   3.746   6.388   4.936
 5053SOL    HW126813   3.679   6.327   4.896
 5053SOL    HW226814   3.816   6.410   4.868
 5054SOL     OW26815   7.244   5.575   7.185
 5054SOL    HW126816   7.214   5.534   7.271
 5054SOL    HW226817   7.283   5.665   7.202
 5055SOL     OW26818   4.689   1.985   0.537
 5055SOL    HW126819   4.625   2.003   0.462
 5055SOL    HW226820   4.745   1.906   0.515
 5056SOL     OW26821   1.672   5.228   1.854
 5056SOL    HW126822   1.600   5.185   1.909
 5056SOL    HW226823   1.760   5.185   1.875
 5057SOL     OW26824   0.191   2.512   6.723
 5057SOL    HW126825   0.235   2.511   6.634
 5057SOL    HW226826   0.167   2.418   6.749
 5058SOL     OW26827   3.301   3.687   1.568
 5058SOL    HW126828   3.393   3.648   1.563
 5058SOL    HW226829   3.304   3.784   1.545
 5059SOL     OW26830   0.961   0.838   0.415
 5059SOL    HW126831   0.939   0.824   0.511
 5059SOL    HW226832   0.999   0.754   0.376
 5060SOL     OW26833   8.075   0.408   4.661
 5060SOL    HW126834   8.150   0.348   4.634
 5060SOL    HW226835   8.041   0.457   4.581
 5061SOL     OW26836   2.868   9.630   2.883
 5061SOL    HW126837   2.822   9.549   2.920
 5061SOL    HW226838   2.800   9.696   2.852
 5062SOL     OW26839   8.256   5.498   4.503
 5062SOL    HW126840   8.289   5.513   4.410
 5062SOL    HW226841   8.306   5.421   4.544
 5063SOL     OW26842   6.495   8.921   4.624
 5063SOL    HW126843   6.549   8.888   4.546
 5063SOL    HW226844   6.507   8.859   4.701
 5064SOL     OW26845   7.667   3.971   0.775
 5064SOL    HW126846   7.617   3.974   0.689
 5064SOL    HW226847   7.765   3.959   0.756
 5065SOL     OW26848   4.571   7.680   4.433
 5065SOL    HW126849   4.532   7.754   4.488
 5065SOL    HW226850   4.504   7.651   4.364
 5066SOL     OW26851   2.954   7.028   4.348
 5066SOL    HW126852   2.886   7.084   4.301
 5066SOL    HW226853   3.007   7.085   4.411
 5067SOL     OW26854   8.419   8.860   3.494
 5067SOL    HW126855   8.400   8.790   3.426
 5067SOL    HW226856   8.361   8.845   3.575
 5068SOL     OW26857   3.780   9.187   5.101
 5068SOL    HW126858   3.864   9.197   5.047
 5068SOL    HW226859   3.716   9.261   5.077
 5069SOL     OW26860   7.864   5.856   3.418
 5069SOL    HW126861   7.773   5.821   3.395
 5069SOL    HW226862   7.896   5.814   3.503
 5070SOL     OW26863   9.521   3.228   2.806
 5070SOL    HW126864   9.589   3.213   2.734
 5070SOL    HW226865   9.436   3.182   2.783
 5071SOL     OW26866   5.593   1.238   0.750
 5071SOL    HW126867   5.595   1.268   0.846
 5071SOL    HW226868   5.523   1.168   0.739
 5072SOL     OW26869   2.068   8.312   7.094
 5072SOL    HW126870   2.019   8.345   7.013
 5072SOL    HW226871   2.047   8.371   7.172
 5073SOL     OW26872   2.842   5.860   5.520
 5073SOL    HW126873   2.742   5.854   5.519
 5073SOL    HW226874   2.873   5.913   5.442
 5074SOL     OW26875   6.976   6.573   5.357
 5074SOL    HW126876   7.058   6.516   5.361
 5074SOL    HW226877   6.992   6.659   5.406
 5075SOL     OW26878   5.717   3.726   1.730
 5075SOL    HW126879   5.714   3.822   1.759
 5075SOL    HW226880   5.794   3.680   1.774
 5076SOL     OW26881   9.394   6.217   5.430
 5076SOL    HW126882   9.382   6.150   5.503
 5076SOL    HW226883   9.429   6.171   5.348
 5077SOL     OW26884   5.981   8.277   4.528
 5077SOL    HW126885   5.971   8.274   4.428
 5077SOL    HW226886   6.078   8.271   4.552
 5078SOL     OW26887   3.826   8.621   7.747
 5078SOL    HW126888   3.881   8.663   7.675
 5078SOL    HW226889   3.735   8.662   7.749
 5079SOL     OW26890   9.740   7.664   7.392
 5079SOL    HW126891   9.834   7.644   7.363
 5079SOL    HW226892   9.696   7.724   7.326
 5080SOL     OW26893   1.481   9.030   4.837
 5080SOL    HW126894   1.555   9.036   4.770
 5080SOL    HW226895   1.518   8.999   4.925
 5081SOL     OW26896   2.211   7.874   1.554
 5081SOL    HW126897   2.261   7.919   1.479
 5081SOL    HW226898   2.175   7.786   1.521
 5082SOL     OW26899   8.356   0.701   6.467
 5082SOL    HW126900   8.286   0.764   6.433
 5082SOL    HW226901   8.370   0.715   6.564
 5083SOL     OW26902   7.089   4.588   2.717
 5083SOL    HW126903   7.037   4.672   2.730
 5083SOL    HW226904   7.028   4.509   2.722
 5084SOL     OW26905   9.922   8.306   7.083
 5084SOL    HW126906   9.926   8.342   7.177
 5084SOL    HW226907   9.899   8.381   7.021
 5085SOL     OW26908   8.884   1.674   6.062
 5085SOL    HW126909   8.904   1.634   5.972
 5085SOL    HW226910   8.939   1.756   6.075
 5086SOL     OW26911   3.316   0.406   6.968
 5086SOL    HW126912   3.406   0.450   6.966
 5086SOL    HW226913   3.249   0.463   6.920
 5087SOL     OW26914   8.384   1.261   4.467
 5087SOL    HW126915   8.447   1.329   4.428
 5087SOL    HW226916   8.296   1.304   4.485
 5088SOL     OW26917   7.742   7.063   7.234
 5088SOL    HW126918   7.757   7.064   7.135
 5088SOL    HW226919   7.673   6.995   7.257
 5089SOL     OW26920   1.628   3.828   2.180
 5089SOL    HW126921   1.551   3.813   2.242
 5089SOL    HW226922   1.651   3.742   2.135
 5090SOL     OW26923   8.085   7.560   1.781
 5090SOL    HW126924   8.042   7.498   1.715
 5090SOL    HW226925   8.142   7.626   1.732
 5091SOL     OW26926   9.483   0.106   2.335
 5091SOL    HW126927   9.533   0.178   2.383
 5091SOL    HW226928   9.546   0.057   2.274
 5092SOL     OW26929   2.895   9.269   6.899
 5092SOL    HW126930   2.886   9.341   6.830
 5092SOL    HW226931   2.823   9.200   6.885
 5093SOL     OW26932   6.148   4.736   0.954
 5093SOL    HW126933   6.077   4.763   1.020
 5093SOL    HW226934   6.207   4.667   0.994
 5094SOL     OW26935   4.992   5.232   7.590
 5094SOL    HW126936   5.063   5.191   7.647
 5094SOL    HW226937   5.034   5.295   7.525
 5095SOL     OW26938   8.942   6.131   7.524
 5095SOL    HW126939   8.956   6.065   7.598
 5095SOL    HW226940   9.012   6.117   7.453
 5096SOL     OW26941   2.170   1.450   1.579
 5096SOL    HW126942   2.262   1.447   1.619
 5096SOL    HW226943   2.156   1.371   1.521
 5097SOL     OW26944   1.642   8.787   6.345
 5097SOL    HW126945   1.604   8.862   6.400
 5097SOL    HW226946   1.725   8.753   6.389
 5098SOL     OW26947   1.051   2.028   3.451
 5098SOL    HW126948   1.087   2.089   3.380
 5098SOL    HW226949   1.056   2.073   3.540
 5099SOL     OW26950   8.240   7.120   6.336
 5099SOL    HW126951   8.330   7.128   6.294
 5099SOL    HW226952   8.172   7.166   6.279
 5100SOL     OW26953   4.157   2.905   6.626
 5100SOL    HW126954   4.151   2.908   6.526
 5100SOL    HW226955   4.226   2.839   6.653
 5101SOL     OW26956   1.817   5.620   0.223
 5101SOL    HW126957   1.803   5.687   0.296
 5101SOL    HW226958   1.910   5.629   0.187
 5102SOL     OW26959   0.135   7.397   5.599
 5102SOL    HW126960   0.225   7.355   5.600
 5102SOL    HW226961   0.128   7.459   5.520
 5103SOL     OW26962   2.761   5.748   5.850
 5103SOL    HW126963   2.788   5.656   5.822
 5103SOL    HW226964   2.830   5.814   5.821
 5104SOL     OW26965   0.092   8.400   0.289
 5104SOL    HW126966   0.053   8.463   0.222
 5104SOL    HW226967   0.023   8.335   0.319
 5105SOL     OW26968   8.642   3.600   0.192
 5105SOL    HW126969   8.742   3.601   0.201
 5105SOL    HW226970   8.611   3.507   0.172
 5106SOL     OW26971   1.895   6.348   0.887
 5106SOL    HW126972   1.923   6.434   0.845
 5106SOL    HW226973   1.865   6.364   0.981
 5107SOL     OW26974   2.010   1.988   6.787
 5107SOL    HW126975   2.110   1.977   6.788
 5107SOL    HW226976   1.979   2.014   6.878
 5108SOL     OW26977   8.566   7.010   4.241
 5108SOL    HW126978   8.522   7.047   4.159
 5108SOL    HW226979   8.663   7.035   4.241
 5109SOL     OW26980   8.293   7.912   5.117
 5109SOL    HW126981   8.267   7.962   5.034
 5109SOL    HW226982   8.390   7.888   5.112
 5110SOL     OW26983   9.451   9.868   2.946
 5110SOL    HW126984   9.380   9.810   2.907
 5110SOL    HW226985   9.535   9.859   2.892
 5111SOL     OW26986   9.335   4.460   2.730
 5111SOL    HW126987   9.343   4.367   2.694
 5111SOL    HW226988   9.238   4.485   2.734
 5112SOL     OW26989   2.688   7.058   4.826
 5112SOL    HW126990   2.725   6.965   4.818
 5112SOL    HW226991   2.758   7.118   4.866
 5113SOL     OW26992   4.979   9.266   1.737
 5113SOL    HW126993   4.927   9.352   1.734
 5113SOL    HW226994   5.005   9.240   1.644
 5114SOL     OW26995   2.256   3.448   7.248
 5114SOL    HW126996   2.281   3.458   7.151
 5114SOL    HW226997   2.183   3.513   7.270
 5115SOL     OW26998   4.689   2.116   1.713
 5115SOL    HW126999   4.742   2.100   1.796
 5115SOL    HW227000   4.594   2.090   1.728
 5116SOL     OW27001   2.849   2.482   4.213
 5116SOL    HW127002   2.801   2.544   4.275
 5116SOL    HW227003   2.902   2.416   4.267
 5117SOL     OW27004   9.713   5.798   2.107
 5117SOL    HW127005   9.687   5.894   2.091
 5117SOL    HW227006   9.630   5.743   2.115
 5118SOL     OW27007   9.850   2.168   6.766
 5118SOL    HW127008   9.787   2.100   6.729
 5118SOL    HW227009   9.838   2.254   6.716
 5119SOL     OW27010   6.663   2.407   2.500
 5119SOL    HW127011   6.763   2.403   2.502
 5119SOL    HW227012   6.627   2.317   2.474
 5120SOL     OW27013   8.198   9.873   5.097
 5120SOL    HW127014   8.250   9.922   5.167
 5120SOL    HW227015   8.179   9.934   5.020
 5121SOL     OW27016   5.042   6.809   1.815
 5121SOL    HW127017   5.008   6.715   1.819
 5121SOL    HW227018   4.983   6.868   1.871
 5122SOL     OW27019   7.351   2.312   5.448
 5122SOL    HW127020   7.425   2.350   5.393
 5122SOL    HW227021   7.269   2.303   5.392
 5123SOL     OW27022   9.500   0.680   4.792
 5123SOL    HW127023   9.473   0.730   4.709
 5123SOL    HW227024   9.574   0.616   4.770
 5124SOL     OW27025   5.494   8.956   1.803
 5124SOL    HW127026   5.469   8.877   1.748
 5124SOL    HW227027   5.432   9.032   1.783
 5125SOL     OW27028   4.110   5.324   4.484
 5125SOL    HW127029   4.197   5.371   4.466
 5125SOL    HW227030   4.129   5.235   4.526
 5126SOL     OW27031   3.546   1.835   7.521
 5126SOL    HW127032   3.601   1.844   7.605
 5126SOL    HW227033   3.475   1.906   7.521
 5127SOL     OW27034   4.149   2.991   7.368
 5127SOL    HW127035   4.132   3.019   7.463
 5127SOL    HW227036   4.247   2.987   7.352
 5128SOL     OW27037   1.879   4.682   2.100
 5128SOL    HW127038   1.852   4.768   2.144
 5128SOL    HW227039   1.919   4.702   2.011
 5129SOL     OW27040   2.224   5.408   1.382
 5129SOL    HW127041   2.281   5.351   1.322
 5129SOL    HW227042   2.280   5.478   1.425
 5130SOL     OW27043   4.214   2.878   5.275
 5130SOL    HW127044   4.173   2.893   5.185
 5130SOL    HW227045   4.279   2.802   5.270
 5131SOL     OW27046   7.882   9.495   4.064
 5131SOL    HW127047   7.889   9.590   4.033
 5131SOL    HW227048   7.973   9.453   4.065
 5132SOL     OW27049   0.840   0.595   2.395
 5132SOL    HW127050   0.789   0.681   2.401
 5132SOL    HW227051   0.906   0.600   2.319
 5133SOL     OW27052   4.068   7.983   4.929
 5133SOL    HW127053   4.023   8.031   5.004
 5133SOL    HW227054   4.134   8.044   4.886
 5134SOL     OW27055   5.038   0.264   5.060
 5134SOL    HW127056   4.958   0.325   5.051
 5134SOL    HW227057   5.069   0.237   4.969
 5135SOL     OW27058   4.010   8.236   7.743
 5135SOL    HW127059   4.065   8.192   7.814
 5135SOL    HW227060   3.942   8.295   7.785
 5136SOL     OW27061   6.173   9.998   2.788
 5136SOL    HW127062   6.181   9.906   2.749
 5136SOL    HW227063   6.144   0.062   2.717
 5137SOL     OW27064   8.195   1.783   1.305
 5137SOL    HW127065   8.101   1.775   1.272
 5137SOL    HW227066   8.233   1.871   1.274
 5138SOL     OW27067   7.999   2.021   5.043
 5138SOL    HW127068   8.001   1.922   5.036
 5138SOL    HW227069   7.908   2.051   5.074
 5139SOL     OW27070   2.798   8.721   4.058
 5139SOL    HW127071   2.822   8.809   4.016
 5139SOL    HW227072   2.783   8.734   4.156
 5140SOL     OW27073   9.956   1.687   3.216
 5140SOL    HW127074   0.004   1.620   3.272
 5140SOL    HW227075   9.988   1.682   3.122
 5141SOL     OW27076   8.968   1.876   7.786
 5141SOL    HW127077   8.990   1.814   7.861
 5141SOL    HW227078   9.052   1.919   7.752
 5142SOL     OW27079   7.866   7.309   2.037
 5142SOL    HW127080   7.883   7.281   1.942
 5142SOL    HW227081   7.915   7.247   2.099
 5143SOL     OW27082   1.047   1.417   6.333
 5143SOL    HW127083   1.000   1.341   6.287
 5143SOL    HW227084   0.989   1.498   6.330
 5144SOL     OW27085   2.464   6.047   4.859
 5144SOL    HW127086   2.424   6.000   4.938
 5144SOL    HW227087   2.486   5.979   4.788
 5145SOL     OW27088   9.577   6.595   5.732
 5145SOL    HW127089   9.510   6.667   5.752
 5145SOL    HW227090   9.584   6.583   5.634
 5146SOL     OW27091   1.149   2.343   1.919
 5146SOL    HW127092   1.200   2.286   1.984
 5146SOL    HW227093   1.102   2.416   1.968
 5147SOL     OW27094   3.553   6.745   3.755
 5147SOL    HW127095   3.466   6.778   3.716
 5147SOL    HW227096   3.619   6.731   3.681
 5148SOL     OW27097   2.248   3.099   2.373
 5148SOL    HW127098   2.340   3.096   2.333
 5148SOL    HW227099   2.248   3.160   2.452
 5149SOL     OW27100   2.711   6.622   0.812
 5149SOL    HW127101   2.655   6.647   0.891
 5149SOL    HW227102   2.714   6.522   0.804
 5150SOL     OW27103   8.424   9.808   5.365
 5150SOL    HW127104   8.520   9.802   5.391
 5150SOL    HW227105   8.404   9.900   5.330
 5151SOL     OW27106   1.508   1.180   6.923
 5151SOL    HW127107   1.416   1.139   6.924
 5151SOL    HW227108   1.532   1.209   7.015
 5152SOL     OW27109   1.870   3.546   4.274
 5152SOL    HW127110   1.818   3.518   4.354
 5152SOL    HW227111   1.949   3.485   4.262
 5153SOL     OW27112   9.333   2.145   7.179
 5153SOL    HW127113   9.390   2.218   7.142
 5153SOL    HW227114   9.340   2.064   7.121
 5154SOL     OW27115   4.997   1.079   5.163
 5154SOL    HW127116   4.898   1.080   5.176
 5154SOL    HW227117   5.041   1.128   5.239
 5155SOL     OW27118   1.910   7.001   2.511
 5155SOL    HW127119   1.909   6.950   2.597
 5155SOL    HW227120   1.817   7.034   2.491
 5156SOL     OW27121   9.112   8.113   6.896
 5156SOL    HW127122   9.088   8.189   6.836
 5156SOL    HW227123   9.180   8.142   6.963
 5157SOL     OW27124   4.934   0.773   5.590
 5157SOL    HW127125   4.995   0.703   5.626
 5157SOL    HW227126   4.897   0.743   5.502
 5158SOL     OW27127   7.738   2.046   4.093
 5158SOL    HW127128   7.690   1.959   4.109
 5158SOL    HW227129   7.832   2.039   4.126
 5159SOL     OW27130   0.289   3.231   3.079
 5159SOL    HW127131   0.207   3.285   3.092
 5159SOL    HW227132   0.269   3.154   3.018
 5160SOL     OW27133   8.691   0.830   3.127
 5160SOL    HW127134   8.617   0.812   3.192
 5160SOL    HW227135   8.682   0.768   3.049
 5161SOL     OW27136   6.820   7.529   2.884
 5161SOL    HW127137   6.736   7.509   2.935
 5161SOL    HW227138   6.815   7.484   2.794
 5162SOL     OW27139   6.084   7.621   4.695
 5162SOL    HW127140   6.175   7.612   4.734
 5162SOL    HW227141   6.064   7.541   4.638
 5163SOL     OW27142   0.819   4.654   3.285
 5163SOL    HW127143   0.736   4.611   3.252
 5163SOL    HW227144   0.797   4.738   3.334
 5164SOL     OW27145   9.875   8.138   1.039
 5164SOL    HW127146   9.795   8.102   1.087
 5164SOL    HW227147   9.941   8.173   1.105
 5165SOL     OW27148   1.953   5.990   3.426
 5165SOL    HW127149   1.855   5.982   3.442
 5165SOL    HW227150   1.998   6.024   3.508
 5166SOL     OW27151   8.458   3.910   2.738
 5166SOL    HW127152   8.415   3.983   2.685
 5166SOL    HW227153   8.407   3.825   2.726
 5167SOL     OW27154   9.447   2.641   7.877
 5167SOL    HW127155   9.480   2.726   7.835
 5167SOL    HW227156   9.355   2.620   7.842
 5168SOL     OW27157   6.720   2.238   4.523
 5168SOL    HW127158   6.643   2.294   4.492
 5168SOL    HW227159   6.689   2.180   4.599
 5169SOL     OW27160   1.831   8.496   4.899
 5169SOL    HW127161   1.920   8.463   4.929
 5169SOL    HW227162   1.759   8.437   4.936
 5170SOL     OW27163   8.957   5.977   6.205
 5170SOL    HW127164   9.050   5.967   6.240
 5170SOL    HW227165   8.923   6.069   6.226
 5171SOL     OW27166   3.223   9.444   3.767
 5171SOL    HW127167   3.238   9.533   3.811
 5171SOL    HW227168   3.167   9.456   3.685
 5172SOL     OW27169   0.013   3.314   5.089
 5172SOL    HW127170   0.006   3.409   5.059
 5172SOL    HW227171   0.009   3.254   5.009
 5173SOL     OW27172   1.910   1.704   1.381
 5173SOL    HW127173   1.898   1.611   1.348
 5173SOL    HW227174   1.975   1.752   1.322
 5174SOL     OW27175   4.329   4.345   3.804
 5174SOL    HW127176   4.260   4.296   3.750
 5174SOL    HW227177   4.384   4.279   3.855
 5175SOL     OW27178   4.478   9.330   1.654
 5175SOL    HW127179   4.427   9.257   1.609
 5175SOL    HW227180   4.509   9.299   1.744
 5176SOL     OW27181   0.591   3.922   5.880
 5176SOL    HW127182   0.505   3.946   5.834
 5176SOL    HW227183   0.576   3.920   5.979
 5177SOL     OW27184   8.867   4.820   3.846
 5177SOL    HW127185   8.935   4.852   3.912
 5177SOL    HW227186   8.882   4.865   3.758
 5178SOL     OW27187   9.471   5.630   1.696
 5178SOL    HW127188   9.413   5.613   1.616
 5178SOL    HW227189   9.433   5.582   1.775
 5179SOL     OW27190   0.800   7.687   2.183
 5179SOL    HW127191   0.894   7.658   2.200
 5179SOL    HW227192   0.748   7.678   2.268
 5180SOL     OW27193   3.668   3.048   4.584
 5180SOL    HW127194   3.656   3.013   4.677
 5180SOL    HW227195   3.712   2.978   4.528
 5181SOL     OW27196   5.486   2.322   0.635
 5181SOL    HW127197   5.462   2.261   0.560
 5181SOL    HW227198   5.411   2.324   0.702
 5182SOL     OW27199   7.566   5.447   3.233
 5182SOL    HW127200   7.610   5.359   3.250
 5182SOL    HW227201   7.505   5.470   3.309
 5183SOL     OW27202   2.033   7.684   5.329
 5183SOL    HW127203   2.028   7.688   5.229
 5183SOL    HW227204   1.952   7.639   5.366
 5184SOL     OW27205   7.599   4.195   1.969
 5184SOL    HW127206   7.684   4.173   2.017
 5184SOL    HW227207   7.522   4.152   2.015
 5185SOL     OW27208   7.053   8.970   4.951
 5185SOL    HW127209   7.118   8.898   4.978
 5185SOL    HW227210   6.972   8.964   5.009
 5186SOL     OW27211   6.632   1.290   7.042
 5186SOL    HW127212   6.674   1.257   7.127
 5186SOL    HW227213   6.597   1.382   7.057
 5187SOL     OW27214   9.524   6.142   4.231
 5187SOL    HW127215   9.458   6.217   4.234
 5187SOL    HW227216   9.526   6.096   4.320
 5188SOL     OW27217   1.637   9.724   5.515
 5188SOL    HW127218   1.624   9.815   5.553
 5188SOL    HW227219   1.552   9.696   5.469
 5189SOL     OW27220   9.056   1.267   2.643
 5189SOL    HW127221   9.129   1.296   2.582
 5189SOL    HW227222   9.015   1.183   2.608
 5190SOL     OW27223   3.963   7.727   4.927
 5190SOL    HW127224   3.945   7.698   5.022
 5190SOL    HW227225   4.011   7.814   4.928
 5191SOL     OW27226   2.304   8.658   0.673
 5191SOL    HW127227   2.325   8.616   0.761
 5191SOL    HW227228   2.339   8.751   0.671
 5192SOL     OW27229   0.119   9.563   1.745
 5192SOL    HW127230   0.024   9.572   1.715
 5192SOL    HW227231   0.130   9.605   1.835
 5193SOL     OW27232   0.252   5.336   0.410
 5193SOL    HW127233   0.153   5.334   0.397
 5193SOL    HW227234   0.290   5.417   0.366
 5194SOL     OW27235   8.080   0.130   5.232
 5194SOL    HW127236   8.017   0.197   5.192
 5194SOL    HW227237   8.028   0.061   5.283
 5195SOL     OW27238   3.614   6.731   6.298
 5195SOL    HW127239   3.689   6.729   6.232
 5195SOL    HW227240   3.599   6.639   6.335
 5196SOL     OW27241   8.605   0.647   4.447
 5196SOL    HW127242   8.544   0.577   4.410
 5196SOL    HW227243   8.595   0.731   4.395
 5197SOL     OW27244   0.721   1.941   7.716
 5197SOL    HW127245   0.660   1.988   7.779
 5197SOL    HW227246   0.668   1.884   7.653
 5198SOL     OW27247   7.952   2.819   4.551
 5198SOL    HW127248   7.996   2.895   4.503
 5198SOL    HW227249   7.952   2.837   4.650
 5199SOL     OW27250   9.067   9.516   4.864
 5199SOL    HW127251   8.988   9.463   4.834
 5199SOL    HW227252   9.072   9.600   4.810
 5200SOL     OW27253   9.891   5.530   7.583
 5200SOL    HW127254   9.887   5.475   7.666
 5200SOL    HW227255   9.986   5.551   7.562
 5201SOL     OW27256   3.345   0.560   7.663
 5201SOL    HW127257   3.330   0.574   7.565
 5201SOL    HW227258   3.260   0.531   7.706
 5202SOL     OW27259   1.027   2.805   4.053
 5202SOL    HW127260   0.995   2.776   3.962
 5202SOL    HW227261   0.961   2.776   4.122
 5203SOL     OW27262   8.077   1.871   3.315
 5203SOL    HW127263   8.097   1.915   3.402
 5203SOL    HW227264   7.983   1.893   3.288
 5204SOL     OW27265   0.531   5.443   0.898
 5204SOL    HW127266   0.620   5.398   0.895
 5204SOL    HW227267   0.460   5.375   0.919
 5205SOL     OW27268   6.836   9.580   6.174
 5205SOL    HW127269   6.869   9.644   6.243
 5205SOL    HW227270   6.836   9.624   6.085
 5206SOL     OW27271   0.736   5.467   0.337
 5206SOL    HW127272   0.720   5.564   0.354
 5206SOL    HW227273   0.722   5.416   0.422
 5207SOL     OW27274   2.212   4.885   4.072
 5207SOL    HW127275   2.176   4.866   3.981
 5207SOL    HW227276   2.204   4.982   4.091
 5208SOL     OW27277   3.973   6.743   0.874
 5208SOL    HW127278   4.014   6.792   0.952
 5208SOL    HW227279   4.046   6.699   0.821
 5209SOL     OW27280   1.548   2.575   5.859
 5209SOL    HW127281   1.621   2.641   5.846
 5209SOL    HW227282   1.562   2.497   5.797
 5210SOL     OW27283   0.111   3.895   2.429
 5210SOL    HW127284   0.203   3.857   2.445
 5210SOL    HW227285   0.087   3.954   2.506
 5211SOL     OW27286   1.808   0.999   3.940
 5211SOL    HW127287   1.824   0.946   3.857
 5211SOL    HW227288   1.718   1.042   3.936
 5212SOL     OW27289   9.301   4.240   4.101
 5212SOL    HW127290   9.219   4.189   4.074
 5212SOL    HW227291   9.381   4.197   4.060
 5213SOL     OW27292   7.752   2.500   3.757
 5213SOL    HW127293   7.703   2.521   3.672
 5213SOL    HW227294   7.687   2.494   3.832
 5214SOL     OW27295   2.916   8.192   1.697
 5214SOL    HW127296   2.858   8.239   1.630
 5214SOL    HW227297   2.862   8.170   1.778
 5215SOL     OW27298   4.043   7.672   3.866
 5215SOL    HW127299   3.984   7.597   3.896
 5215SOL    HW227300   4.135   7.638   3.848
 5216SOL     OW27301   8.317   3.204   4.840
 5216SOL    HW127302   8.387   3.195   4.769
 5216SOL    HW227303   8.331   3.289   4.890
 5217SOL     OW27304   0.948   6.209   4.677
 5217SOL    HW127305   0.870   6.224   4.617
 5217SOL    HW227306   0.979   6.297   4.715
 5218SOL     OW27307   0.357   6.485   3.283
 5218SOL    HW127308   0.376   6.390   3.310
 5218SOL    HW227309   0.432   6.543   3.312
 5219SOL     OW27310   4.974   4.172   1.867
 5219SOL    HW127311   4.904   4.230   1.825
 5219SOL    HW227312   5.042   4.230   1.913
 5220SOL     OW27313   3.832   5.754   0.151
 5220SOL    HW127314   3.844   5.852   0.131
 5220SOL    HW227315   3.771   5.743   0.229
 5221SOL     OW27316   8.481   6.827   6.667
 5221SOL    HW127317   8.559   6.822   6.729
 5221SOL    HW227318   8.504   6.885   6.589
 5222SOL     OW27319   5.437   2.230   1.468
 5222SOL    HW127320   5.498   2.157   1.435
 5222SOL    HW227321   5.439   2.306   1.403
 5223SOL     OW27322   6.685   4.649   0.465
 5223SOL    HW127323   6.603   4.618   0.417
 5223SOL    HW227324   6.685   4.615   0.559
 5224SOL     OW27325   3.218   5.247   5.233
 5224SOL    HW127326   3.222   5.265   5.135
 5224SOL    HW227327   3.232   5.333   5.283
 5225SOL     OW27328   9.263   6.570   2.592
 5225SOL    HW127329   9.177   6.606   2.556
 5225SOL    HW227330   9.328   6.644   2.606
 5226SOL     OW27331   0.252   0.256   0.588
 5226SOL    HW127332   0.299   0.179   0.632
 5226SOL    HW227333   0.193   0.222   0.516
 5227SOL     OW27334   7.186   0.277   1.639
 5227SOL    HW127335   7.238   0.220   1.575
 5227SOL    HW227336   7.237   0.361   1.657
 5228SOL     OW27337   7.526   7.892   3.483
 5228SOL    HW127338   7.459   7.964   3.464
 5228SOL    HW227339   7.568   7.862   3.398
 5229SOL     OW27340   2.018   2.915   0.170
 5229SOL    HW127341   2.066   2.995   0.134
 5229SOL    HW227342   2.085   2.848   0.203
 5230SOL     OW27343   1.840   6.804   4.870
 5230SOL    HW127344   1.834   6.708   4.842
 5230SOL    HW227345   1.909   6.850   4.816
 5231SOL     OW27346   0.638   3.113   4.167
 5231SOL    HW127347   0.614   3.028   4.120
 5231SOL    HW227348   0.597   3.191   4.119
 5232SOL     OW27349   3.778   9.761   1.087
 5232SOL    HW127350   3.751   9.750   1.183
 5232SOL    HW227351   3.762   9.855   1.058
 5233SOL     OW27352   1.391   3.635   5.376
 5233SOL    HW127353   1.409   3.709   5.312
 5233SOL    HW227354   1.399   3.669   5.469
 5234SOL     OW27355   2.376   6.441   2.929
 5234SOL    HW127356   2.441   6.408   2.998
 5234SOL    HW227357   2.410   6.526   2.889
 5235SOL     OW27358   2.338   6.780   3.985
 5235SOL    HW127359   2.421   6.800   3.934
 5235SOL    HW227360   2.273   6.855   3.976
 5236SOL     OW27361   4.948   3.302   1.114
 5236SOL    HW127362   5.028   3.300   1.174
 5236SOL    HW227363   4.967   3.360   1.035
 5237SOL     OW27364   8.827   5.479   7.405
 5237SOL    HW127365   8.889   5.554   7.382
 5237SOL    HW227366   8.833   5.460   7.503
 5238SOL     OW27367   3.591   9.259   6.971
 5238SOL    HW127368   3.542   9.197   7.032
 5238SOL    HW227369   3.645   9.324   7.025
 5239SOL     OW27370   5.372   7.992   2.007
 5239SOL    HW127371   5.379   8.026   1.913
 5239SOL    HW227372   5.436   8.042   2.066
 5240SOL     OW27373   2.168   8.062   6.730
 5240SOL    HW127374   2.206   8.067   6.822
 5240SOL    HW227375   2.218   7.992   6.677
 5241SOL     OW27376   1.894   2.518   3.703
 5241SOL    HW127377   1.925   2.582   3.773
 5241SOL    HW227378   1.819   2.462   3.740
 5242SOL     OW27379   4.117   3.069   7.630
 5242SOL    HW127380   4.120   3.168   7.615
 5242SOL    HW227381   4.119   3.050   7.728
 5243SOL     OW27382   4.325   8.819   1.540
 5243SOL    HW127383   4.278   8.882   1.602
 5243SOL    HW227384   4.265   8.796   1.463
 5244SOL     OW27385   2.575   2.773   3.180
 5244SOL    HW127386   2.665   2.804   3.211
 5244SOL    HW227387   2.573   2.673   3.178
 5245SOL     OW27388   7.510   4.337   0.828
 5245SOL    HW127389   7.515   4.306   0.733
 5245SOL    HW227390   7.562   4.275   0.886
 5246SOL     OW27391   5.012   9.787   2.308
 5246SOL    HW127392   5.036   9.710   2.367
 5246SOL    HW227393   5.081   9.859   2.316
 5247SOL     OW27394   2.742   8.972   0.145
 5247SOL    HW127395   2.717   8.985   0.241
 5247SOL    HW227396   2.694   8.892   0.109
 5248SOL     OW27397   3.016   0.421   1.468
 5248SOL    HW127398   3.009   0.322   1.458
 5248SOL    HW227399   3.006   0.446   1.564
 5249SOL     OW27400   9.501   5.542   7.643
 5249SOL    HW127401   9.470   5.522   7.736
 5249SOL    HW227402   9.570   5.614   7.646
 5250SOL     OW27403   1.666   3.614   5.766
 5250SOL    HW127404   1.739   3.675   5.796
 5250SOL    HW227405   1.580   3.642   5.807
 5251SOL     OW27406   3.206   3.480   7.263
 5251SOL    HW127407   3.150   3.543   7.316
 5251SOL    HW227408   3.228   3.522   7.175
 5252SOL     OW27409   2.078   5.518   6.155
 5252SOL    HW127410   2.005   5.538   6.089
 5252SOL    HW227411   2.089   5.595   6.217
 5253SOL     OW27412   3.217   0.284   6.452
 5253SOL    HW127413   3.123   0.314   6.471
 5253SOL    HW227414   3.237   0.202   6.506
 5254SOL     OW27415   4.306   8.639   6.384
 5254SOL    HW127416   4.268   8.721   6.341
 5254SOL    HW227417   4.232   8.574   6.403
 5255SOL     OW27418   6.297   4.561   1.105
 5255SOL    HW127419   6.335   4.637   1.157
 5255SOL    HW227420   6.237   4.507   1.165
 5256SOL     OW27421   0.955   6.686   5.192
 5256SOL    HW127422   0.894   6.618   5.234
 5256SOL    HW227423   1.025   6.713   5.258
 5257SOL     OW27424   0.552   8.890   0.964
 5257SOL    HW127425   0.603   8.815   1.005
 5257SOL    HW227426   0.511   8.946   1.036
 5258SOL     OW27427   0.983   6.399   7.062
 5258SOL    HW127428   1.067   6.429   7.017
 5258SOL    HW227429   0.929   6.343   6.999
 5259SOL     OW27430   8.334   4.531   7.325
 5259SOL    HW127431   8.257   4.590   7.302
 5259SOL    HW227432   8.302   4.438   7.339
 5260SOL     OW27433   1.424   1.614   0.509
 5260SOL    HW127434   1.478   1.585   0.589
 5260SOL    HW227435   1.466   1.578   0.426
 5261SOL     OW27436   2.989   2.458   7.861
 5261SOL    HW127437   2.931   2.488   7.786
 5261SOL    HW227438   2.985   2.358   7.869
 5262SOL     OW27439   9.066   1.565   7.267
 5262SOL    HW127440   9.111   1.599   7.350
 5262SOL    HW227441   9.135   1.546   7.197
 5263SOL     OW27442   3.697   7.376   4.278
 5263SOL    HW127443   3.776   7.410   4.329
 5263SOL    HW227444   3.686   7.429   4.194
 5264SOL     OW27445   3.737   1.392   7.535
 5264SOL    HW127446   3.732   1.435   7.444
 5264SOL    HW227447   3.829   1.357   7.550
 5265SOL     OW27448   4.164   1.622   1.020
 5265SOL    HW127449   4.173   1.713   0.980
 5265SOL    HW227450   4.069   1.606   1.048
 5266SOL     OW27451   4.995   8.788   7.524
 5266SOL    HW127452   4.936   8.799   7.444
 5266SOL    HW227453   5.046   8.873   7.540
 5267SOL     OW27454   8.145   2.197   4.640
 5267SOL    HW127455   8.083   2.276   4.633
 5267SOL    HW227456   8.105   2.119   4.591
 5268SOL     OW27457   7.922   6.585   7.532
 5268SOL    HW127458   7.847   6.527   7.561
 5268SOL    HW227459   7.981   6.606   7.611
 5269SOL     OW27460   8.577   2.550   2.265
 5269SOL    HW127461   8.527   2.474   2.307
 5269SOL    HW227462   8.627   2.517   2.185
 5270SOL     OW27463   3.886   7.222   0.122
 5270SOL    HW127464   3.874   7.177   0.033
 5270SOL    HW227465   3.802   7.215   0.175
 5271SOL     OW27466   5.265   0.027   3.780
 5271SOL    HW127467   5.185   0.011   3.837
 5271SOL    HW227468   5.332   0.082   3.830
 5272SOL     OW27469   0.572   5.982   5.543
 5272SOL    HW127470   0.602   6.047   5.473
 5272SOL    HW227471   0.514   6.030   5.609
 5273SOL     OW27472   7.703   0.329   1.867
 5273SOL    HW127473   7.706   0.251   1.930
 5273SOL    HW227474   7.646   0.307   1.788
 5274SOL     OW27475   9.580   2.394   5.245
 5274SOL    HW127476   9.575   2.324   5.317
 5274SOL    HW227477   9.665   2.383   5.194
 5275SOL     OW27478   7.939   2.655   0.614
 5275SOL    HW127479   7.917   2.571   0.563
 5275SOL    HW227480   7.855   2.692   0.654
 5276SOL     OW27481   0.333   0.691   5.936
 5276SOL    HW127482   0.417   0.739   5.911
 5276SOL    HW227483   0.356   0.603   5.980
 5277SOL     OW27484   0.556   4.361   0.498
 5277SOL    HW127485   0.552   4.457   0.471
 5277SOL    HW227486   0.650   4.336   0.522
 5278SOL     OW27487   0.137   6.723   7.377
 5278SOL    HW127488   0.064   6.678   7.326
 5278SOL    HW227489   0.126   6.823   7.368
 5279SOL     OW27490   0.763   1.444   4.555
 5279SOL    HW127491   0.710   1.504   4.615
 5279SOL    HW227492   0.722   1.353   4.555
 5280SOL     OW27493   9.834   6.153   5.545
 5280SOL    HW127494   9.815   6.227   5.610
 5280SOL    HW227495   9.933   6.137   5.541
 5281SOL     OW27496   7.056   6.813   5.469
 5281SOL    HW127497   7.053   6.854   5.378
 5281SOL    HW227498   7.030   6.882   5.537
 5282SOL     OW27499   4.816   9.786   4.513
 5282SOL    HW127500   4.769   9.766   4.599
 5282SOL    HW227501   4.915   9.790   4.529
 5283SOL     OW27502   0.424   7.356   6.712
 5283SOL    HW127503   0.335   7.400   6.725
 5283SOL    HW227504   0.496   7.426   6.707
 5284SOL     OW27505   8.190   9.982   2.414
 5284SOL    HW127506   8.206   9.993   2.316
 5284SOL    HW227507   8.103   0.024   2.439
 5285SOL     OW27508   0.274   3.334   1.118
 5285SOL    HW127509   0.228   3.337   1.030
 5285SOL    HW227510   0.325   3.248   1.127
 5286SOL     OW27511   0.550   2.396   7.210
 5286SOL    HW127512   0.539   2.360   7.118
 5286SOL    HW227513   0.604   2.332   7.265
 5287SOL     OW27514   1.416   9.855   5.963
 5287SOL    HW127515   1.409   9.775   6.023
 5287SOL    HW227516   1.512   9.885   5.960
 5288SOL     OW27517   2.854   7.793   2.442
 5288SOL    HW127518   2.858   7.876   2.497
 5288SOL    HW227519   2.829   7.817   2.348
 5289SOL     OW27520   7.918   1.065   3.933
 5289SOL    HW127521   7.966   1.107   3.856
 5289SOL    HW227522   7.956   0.974   3.950
 5290SOL     OW27523   2.352   2.244   5.752
 5290SOL    HW127524   2.266   2.285   5.783
 5290SOL    HW227525   2.339   2.145   5.739
 5291SOL     OW27526   5.928   2.186   1.520
 5291SOL    HW127527   5.918   2.126   1.600
 5291SOL    HW227528   5.877   2.270   1.535
 5292SOL     OW27529   8.548   5.490   5.744
 5292SOL    HW127530   8.622   5.472   5.809
 5292SOL    HW227531   8.523   5.405   5.698
 5293SOL     OW27532   8.926   7.643   0.721
 5293SOL    HW127533   8.963   7.633   0.629
 5293SOL    HW227534   8.828   7.662   0.715
 5294SOL     OW27535   5.634   8.413   7.178
 5294SOL    HW127536   5.561   8.362   7.225
 5294SOL    HW227537   5.634   8.507   7.211
 5295SOL     OW27538   4.967   9.867   6.376
 5295SOL    HW127539   5.061   9.833   6.368
 5295SOL    HW227540   4.953   9.904   6.468
 5296SOL     OW27541   6.177   0.611   1.514
 5296SOL    HW127542   6.156   0.662   1.430
 5296SOL    HW227543   6.133   0.521   1.510
 5297SOL     OW27544   9.642   7.302   0.951
 5297SOL    HW127545   9.566   7.261   0.899
 5297SOL    HW227546   9.686   7.230   1.005
 5298SOL     OW27547   6.876   8.303   6.707
 5298SOL    HW127548   6.844   8.286   6.614
 5298SOL    HW227549   6.975   8.319   6.706
 5299SOL     OW27550   3.860   5.870   4.827
 5299SOL    HW127551   3.922   5.925   4.770
 5299SOL    HW227552   3.908   5.787   4.857
 5300SOL     OW27553   0.324   2.099   7.184
 5300SOL    HW127554   0.393   2.052   7.130
 5300SOL    HW227555   0.361   2.121   7.274
 5301SOL     OW27556   3.811   4.540   7.084
 5301SOL    HW127557   3.901   4.508   7.058
 5301SOL    HW227558   3.817   4.591   7.170
 5302SOL     OW27559   8.873   6.386   3.950
 5302SOL    HW127560   8.934   6.463   3.929
 5302SOL    HW227561   8.923   6.318   4.003
 5303SOL     OW27562   1.386   8.363   3.412
 5303SOL    HW127563   1.433   8.427   3.351
 5303SOL    HW227564   1.289   8.361   3.389
 5304SOL     OW27565   0.619   1.992   6.677
 5304SOL    HW127566   0.563   2.010   6.758
 5304SOL    HW227567   0.643   1.895   6.674
 5305SOL     OW27568   9.262   4.429   5.182
 5305SOL    HW127569   9.198   4.392   5.114
 5305SOL    HW227570   9.244   4.526   5.195
 5306SOL     OW27571   6.354   1.307   0.241
 5306SOL    HW127572   6.366   1.234   0.308
 5306SOL    HW227573   6.271   1.292   0.187
 5307SOL     OW27574   8.507   3.093   2.961
 5307SOL    HW127575   8.427   3.153   2.963
 5307SOL    HW227576   8.478   2.999   2.940
 5308SOL     OW27577   6.006   3.638   0.475
 5308SOL    HW127578   5.998   3.674   0.568
 5308SOL    HW227579   5.920   3.594   0.449
 5309SOL     OW27580   5.268   0.481   6.378
 5309SOL    HW127581   5.283   0.509   6.283
 5309SOL    HW227582   5.307   0.550   6.440
 5310SOL     OW27583   0.826   4.149   0.146
 5310SOL    HW127584   0.774   4.167   0.062
 5310SOL    HW227585   0.890   4.224   0.162
 5311SOL     OW27586   1.217   0.455   4.271
 5311SOL    HW127587   1.302   0.407   4.250
 5311SOL    HW227588   1.146   0.388   4.294
 5312SOL     OW27589   2.378   8.314   7.464
 5312SOL    HW127590   2.373   8.241   7.532
 5312SOL    HW227591   2.443   8.289   7.393
 5313SOL     OW27592   2.351   1.961   1.961
 5313SOL    HW127593   2.370   2.056   1.986
 5313SOL    HW227594   2.273   1.927   2.013
 5314SOL     OW27595   7.180   0.684   6.994
 5314SOL    HW127596   7.193   0.744   7.073
 5314SOL    HW227597   7.215   0.593   7.016
 5315SOL     OW27598   0.031   1.238   4.415
 5315SOL    HW127599   0.012   1.324   4.463
 5315SOL    HW227600   9.966   1.227   4.340
 5316SOL     OW27601   8.033   2.492   2.776
 5316SOL    HW127602   8.050   2.424   2.704
 5316SOL    HW227603   8.008   2.445   2.860
 5317SOL     OW27604   7.320   0.295   7.782
 5317SOL    HW127605   7.255   0.282   7.706
 5317SOL    HW227606   7.339   0.207   7.825
 5318SOL     OW27607   9.683   4.263   4.402
 5318SOL    HW127608   9.758   4.269   4.468
 5318SOL    HW227609   9.627   4.183   4.421
 5319SOL     OW27610   2.739   0.243   3.647
 5319SOL    HW127611   2.754   0.329   3.599
 5319SOL    HW227612   2.641   0.230   3.663
 5320SOL     OW27613   2.558   4.092   1.134
 5320SOL    HW127614   2.555   3.997   1.104
 5320SOL    HW227615   2.471   4.136   1.111
 5321SOL     OW27616   9.068   1.318   5.386
 5321SOL    HW127617   9.032   1.317   5.479
 5321SOL    HW227618   9.064   1.226   5.347
 5322SOL     OW27619   3.181   1.736   1.941
 5322SOL    HW127620   3.174   1.703   1.847
 5322SOL    HW227621   3.106   1.798   1.961
 5323SOL     OW27622   9.198   4.223   0.895
 5323SOL    HW127623   9.266   4.169   0.844
 5323SOL    HW227624   9.113   4.170   0.903
 5324SOL     OW27625   8.419   5.005   0.775
 5324SOL    HW127626   8.470   5.055   0.845
 5324SOL    HW227627   8.419   5.058   0.690
 5325SOL     OW27628   2.505   1.826   5.152
 5325SOL    HW127629   2.413   1.815   5.114
 5325SOL    HW227630   2.552   1.737   5.151
 5326SOL     OW27631   3.989   8.575   1.436
 5326SOL    HW127632   3.929   8.616   1.505
 5326SOL    HW227633   4.015   8.483   1.465
 5327SOL     OW27634   9.996   2.128   3.470
 5327SOL    HW127635   0.082   2.115   3.520
 5327SOL    HW227636   9.960   2.040   3.442
 5328SOL     OW27637   8.443   6.143   2.217
 5328SOL    HW127638   8.447   6.049   2.183
 5328SOL    HW227639   8.383   6.148   2.296
 5329SOL     OW27640   7.359   0.528   4.520
 5329SOL    HW127641   7.376   0.621   4.553
 5329SOL    HW227642   7.444   0.488   4.487
 5330SOL     OW27643   8.319   0.430   6.399
 5330SOL    HW127644   8.396   0.404   6.341
 5330SOL    HW227645   8.325   0.528   6.421
 5331SOL     OW27646   2.804   1.675   7.210
 5331SOL    HW127647   2.834   1.625   7.291
 5331SOL    HW227648   2.864   1.653   7.133
 5332SOL     OW27649   1.441   0.865   7.472
 5332SOL    HW127650   1.419   0.957   7.438
 5332SOL    HW227651   1.487   0.813   7.400
 5333SOL     OW27652   1.371   7.286   4.375
 5333SOL    HW127653   1.383   7.374   4.330
 5333SOL    HW227654   1.425   7.216   4.328
 5334SOL     OW27655   0.333   0.154   1.364
 5334SOL    HW127656   0.393   0.204   1.301
 5334SOL    HW227657   0.298   0.072   1.318
 5335SOL     OW27658   3.887   2.563   0.738
 5335SOL    HW127659   3.909   2.646   0.789
 5335SOL    HW227660   3.823   2.507   0.791
 5336SOL     OW27661   2.019   3.890   7.230
 5336SOL    HW127662   2.006   3.869   7.134
 5336SOL    HW227663   2.101   3.947   7.241
 5337SOL     OW27664   4.966   6.073   0.389
 5337SOL    HW127665   4.885   6.019   0.411
 5337SOL    HW227666   5.009   6.036   0.307
 5338SOL     OW27667   1.135   6.713   0.537
 5338SOL    HW127668   1.169   6.801   0.569
 5338SOL    HW227669   1.051   6.690   0.587
 5339SOL     OW27670   8.432   1.766   6.584
 5339SOL    HW127671   8.392   1.674   6.591
 5339SOL    HW227672   8.466   1.781   6.491
 5340SOL     OW27673   1.242   4.882   0.599
 5340SOL    HW127674   1.165   4.905   0.539
 5340SOL    HW227675   1.328   4.893   0.549
 5341SOL     OW27676   2.165   6.657   5.172
 5341SOL    HW127677   2.218   6.701   5.245
 5341SOL    HW227678   2.166   6.716   5.091
 5342SOL     OW27679  10.000   3.565   4.982
 5342SOL    HW127680   0.093   3.584   5.012
 5342SOL    HW227681   9.997   3.559   4.883
 5343SOL     OW27682   5.248   8.056   2.456
 5343SOL    HW127683   5.337   8.101   2.454
 5343SOL    HW227684   5.226   8.029   2.550
 5344SOL     OW27685   1.409   3.362   1.878
 5344SOL    HW127686   1.487   3.420   1.857
 5344SOL    HW227687   1.332   3.419   1.908
 5345SOL     OW27688   3.627   8.095   7.574
 5345SOL    HW127689   3.577   8.023   7.622
 5345SOL    HW227690   3.725   8.075   7.577
 5346SOL     OW27691   4.464   9.594   7.841
 5346SOL    HW127692   4.381   9.648   7.824
 5346SOL    HW227693   4.443   9.497   7.837
 5347SOL     OW27694   7.880   8.025   6.173
 5347SOL    HW127695   7.829   8.099   6.129
 5347SOL    HW227696   7.917   8.056   6.260
 5348SOL     OW27697   6.045   9.603   3.314
 5348SOL    HW127698   6.007   9.609   3.221
 5348SOL    HW227699   5.992   9.661   3.376
 5349SOL     OW27700   7.036   3.050   2.312
 5349SOL    HW127701   7.068   3.083   2.401
 5349SOL    HW227702   7.106   2.992   2.271
 5350SOL     OW27703   7.896   8.128   7.708
 5350SOL    HW127704   7.897   8.151   7.611
 5350SOL    HW227705   7.911   8.030   7.720
 5351SOL     OW27706   8.911   4.980   2.700
 5351SOL    HW127707   8.952   4.901   2.745
 5351SOL    HW227708   8.853   5.029   2.766
 5352SOL     OW27709   8.035   9.642   6.656
 5352SOL    HW127710   7.995   9.550   6.655
 5352SOL    HW227711   7.963   9.709   6.677
 5353SOL     OW27712   1.702   7.912   3.905
 5353SOL    HW127713   1.659   7.954   3.825
 5353SOL    HW227714   1.788   7.869   3.877
 5354SOL     OW27715   2.460   2.090   0.757
 5354SOL    HW127716   2.511   2.010   0.726
 5354SOL    HW227717   2.498   2.173   0.715
 5355SOL     OW27718   0.435   3.657   6.115
 5355SOL    HW127719   0.489   3.741   6.121
 5355SOL    HW227720   0.496   3.579   6.102
 5356SOL     OW27721   5.235   6.388   1.280
 5356SOL    HW127722   5.324   6.364   1.239
 5356SOL    HW227723   5.248   6.463   1.345
 5357SOL     OW27724   8.707   3.744   2.098
 5357SOL    HW127725   8.716   3.683   2.177
 5357SOL    HW227726   8.768   3.822   2.110
 5358SOL     OW27727   3.008   5.310   6.847
 5358SOL    HW127728   2.999   5.266   6.757
 5358SOL    HW227729   3.105   5.313   6.873
 5359SOL     OW27730   7.284   7.754   5.319
 5359SOL    HW127731   7.206   7.699   5.291
 5359SOL    HW227732   7.293   7.833   5.258
 5360SOL     OW27733   3.412   0.878   7.102
 5360SOL    HW127734   3.336   0.846   7.045
 5360SOL    HW227735   3.397   0.974   7.127
 5361SOL     OW27736   7.899   8.301   2.624
 5361SOL    HW127737   7.950   8.344   2.550
 5361SOL    HW227738   7.852   8.372   2.678
 5362SOL     OW27739   0.355   8.182   6.242
 5362SOL    HW127740   0.317   8.100   6.199
 5362SOL    HW227741   0.335   8.262   6.185
 5363SOL     OW27742   2.439   7.162   3.405
 5363SOL    HW127743   2.524   7.182   3.357
 5363SOL    HW227744   2.417   7.238   3.466
 5364SOL     OW27745   9.509   0.949   3.434
 5364SOL    HW127746   9.583   0.973   3.497
 5364SOL    HW227747   9.532   0.979   3.342
 5365SOL     OW27748   0.376   0.128   2.344
 5365SOL    HW127749   0.355   0.210   2.398
 5365SOL    HW227750   0.328   0.049   2.383
 5366SOL     OW27751   9.761   8.453   0.093
 5366SOL    HW127752   9.702   8.526   0.127
 5366SOL    HW227753   9.852   8.489   0.076
 5367SOL     OW27754   2.686   6.044   3.376
 5367SOL    HW127755   2.587   6.037   3.384
 5367SOL    HW227756   2.729   5.982   3.441
 5368SOL     OW27757   4.775   6.804   1.049
 5368SOL    HW127758   4.781   6.871   0.975
 5368SOL    HW227759   4.766   6.852   1.137
 5369SOL     OW27760   0.348   3.933   3.287
 5369SOL    HW127761   0.355   3.916   3.189
 5369SOL    HW227762   0.269   3.885   3.324
 5370SOL     OW27763   2.593   6.823   6.168
 5370SOL    HW127764   2.690   6.804   6.153
 5370SOL    HW227765   2.583   6.893   6.239
 5371SOL     OW27766   3.111   7.426   2.343
 5371SOL    HW127767   3.189   7.365   2.332
 5371SOL    HW227768   3.033   7.390   2.293
 5372SOL     OW27769   7.676   4.004   1.218
 5372SOL    HW127770   7.671   4.058   1.302
 5372SOL    HW227771   7.685   3.907   1.241
 5373SOL     OW27772   1.509   4.871   5.561
 5373SOL    HW127773   1.609   4.866   5.554
 5373SOL    HW227774   1.469   4.859   5.470
 5374SOL     OW27775   7.475   6.500   3.025
 5374SOL    HW127776   7.521   6.494   3.114
 5374SOL    HW227777   7.454   6.409   2.992
 5375SOL     OW27778   6.618   3.005   2.103
 5375SOL    HW127779   6.570   2.930   2.149
 5375SOL    HW227780   6.560   3.042   2.030
 5376SOL     OW27781   2.267   5.330   6.637
 5376SOL    HW127782   2.281   5.428   6.653
 5376SOL    HW227783   2.197   5.296   6.699
 5377SOL     OW27784   9.739   2.885   5.649
 5377SOL    HW127785   9.738   2.786   5.636
 5377SOL    HW227786   9.832   2.914   5.673
 5378SOL     OW27787   5.614   5.879   0.296
 5378SOL    HW127788   5.625   5.908   0.391
 5378SOL    HW227789   5.526   5.912   0.262
 5379SOL     OW27790   2.208   8.780   4.349
 5379SOL    HW127791   2.181   8.685   4.364
 5379SOL    HW227792   2.292   8.799   4.400
 5380SOL     OW27793   0.643   5.105   0.306
 5380SOL    HW127794   0.661   5.169   0.381
 5380SOL    HW227795   0.689   5.137   0.223
 5381SOL     OW27796   9.687   7.391   2.634
 5381SOL    HW127797   9.764   7.434   2.680
 5381SOL    HW227798   9.698   7.292   2.635
 5382SOL     OW27799   5.378   7.819   3.171
 5382SOL    HW127800   5.295   7.855   3.128
 5382SOL    HW227801   5.419   7.890   3.228
 5383SOL     OW27802   7.166   7.341   4.696
 5383SOL    HW127803   7.239   7.367   4.632
 5383SOL    HW227804   7.077   7.350   4.650
 5384SOL     OW27805   4.486   2.598   0.772
 5384SOL    HW127806   4.391   2.601   0.742
 5384SOL    HW227807   4.495   2.535   0.849
 5385SOL     OW27808   1.460   8.634   2.359
 5385SOL    HW127809   1.381   8.579   2.387
 5385SOL    HW227810   1.443   8.673   2.268
 5386SOL     OW27811   5.373   3.477   2.336
 5386SOL    HW127812   5.408   3.550   2.394
 5386SOL    HW227813   5.426   3.472   2.252
 5387SOL     OW27814   1.014   6.147   1.369
 5387SOL    HW127815   1.090   6.207   1.343
 5387SOL    HW227816   0.931   6.177   1.322
 5388SOL     OW27817   2.677   4.033   5.383
 5388SOL    HW127818   2.684   4.063   5.478
 5388SOL    HW227819   2.591   3.983   5.371
 5389SOL     OW27820   0.727   5.654   5.111
 5389SOL    HW127821   0.673   5.672   5.193
 5389SOL    HW227822   0.769   5.563   5.117
 5390SOL     OW27823   2.444   2.946   0.625
 5390SOL    HW127824   2.502   2.875   0.586
 5390SOL    HW227825   2.498   3.028   0.643
 5391SOL     OW27826   4.145   4.543   4.551
 5391SOL    HW127827   4.203   4.465   4.576
 5391SOL    HW227828   4.201   4.611   4.504
 5392SOL     OW27829   1.380   9.326   0.438
 5392SOL    HW127830   1.459   9.370   0.480
 5392SOL    HW227831   1.338   9.262   0.504
 5393SOL     OW27832   4.100   7.713   1.080
 5393SOL    HW127833   4.133   7.647   1.147
 5393SOL    HW227834   4.177   7.747   1.025
 5394SOL     OW27835   4.548   7.173   2.808
 5394SOL    HW127836   4.623   7.111   2.785
 5394SOL    HW227837   4.567   7.216   2.896
 5395SOL     OW27838   8.716   6.126   2.791
 5395SOL    HW127839   8.768   6.074   2.724
 5395SOL    HW227840   8.745   6.099   2.883
 5396SOL     OW27841   6.843   7.285   4.751
 5396SOL    HW127842   6.753   7.328   4.765
 5396SOL    HW227843   6.838   7.223   4.673
 5397SOL     OW27844   8.177   3.028   0.731
 5397SOL    HW127845   8.107   2.994   0.668
 5397SOL    HW227846   8.207   3.118   0.701
 5398SOL     OW27847   9.668   5.751   1.145
 5398SOL    HW127848   9.685   5.816   1.219
 5398SOL    HW227849   9.755   5.710   1.116
 5399SOL     OW27850   0.625   9.950   0.634
 5399SOL    HW127851   0.693   9.881   0.657
 5399SOL    HW227852   0.669   0.026   0.587
 5400SOL     OW27853   8.902   7.898   0.868
 5400SOL    HW127854   8.815   7.943   0.846
 5400SOL    HW227855   8.915   7.819   0.809
 5401SOL     OW27856   1.538   3.870   0.214
 5401SOL    HW127857   1.588   3.956   0.219
 5401SOL    HW227858   1.589   3.799   0.264
 5402SOL     OW27859   8.633   7.631   6.123
 5402SOL    HW127860   8.612   7.611   6.218
 5402SOL    HW227861   8.676   7.551   6.081
 5403SOL     OW27862   7.845   4.306   0.844
 5403SOL    HW127863   7.789   4.243   0.897
 5403SOL    HW227864   7.850   4.274   0.749
 5404SOL     OW27865   7.523   7.518   3.734
 5404SOL    HW127866   7.622   7.527   3.721
 5404SOL    HW227867   7.496   7.422   3.720
 5405SOL     OW27868   0.063   4.005   7.024
 5405SOL    HW127869   9.970   3.970   7.034
 5405SOL    HW227870   0.119   3.976   7.102
 5406SOL     OW27871   7.157   5.493   7.831
 5406SOL    HW127872   7.240   5.531   7.872
 5406SOL    HW227873   7.106   5.566   7.785
 5407SOL     OW27874   8.948   0.612   7.746
 5407SOL    HW127875   8.988   0.613   7.655
 5407SOL    HW227876   8.856   0.574   7.741
 5408SOL     OW27877   0.892   2.765   3.446
 5408SOL    HW127878   0.891   2.770   3.346
 5408SOL    HW227879   0.799   2.772   3.481
 5409SOL     OW27880   9.696   5.335   2.461
 5409SOL    HW127881   9.650   5.411   2.416
 5409SOL    HW227882   9.725   5.363   2.553
 5410SOL     OW27883   8.267   2.078   3.803
 5410SOL    HW127884   8.327   2.158   3.805
 5410SOL    HW227885   8.316   1.999   3.842
 5411SOL     OW27886   1.682   3.971   3.502
 5411SOL    HW127887   1.728   3.968   3.591
 5411SOL    HW227888   1.642   4.062   3.488
 5412SOL     OW27889   6.703   7.806   3.933
 5412SOL    HW127890   6.666   7.879   3.990
 5412SOL    HW227891   6.675   7.717   3.969
 5413SOL     OW27892   6.073   1.464   1.905
 5413SOL    HW127893   6.111   1.493   1.993
 5413SOL    HW227894   6.118   1.514   1.831
 5414SOL     OW27895   3.152   0.228   7.606
 5414SOL    HW127896   3.186   0.258   7.517
 5414SOL    HW227897   3.057   0.201   7.598
 5415SOL     OW27898   4.571   6.298   0.566
 5415SOL    HW127899   4.671   6.300   0.573
 5415SOL    HW227900   4.544   6.254   0.481
 5416SOL     OW27901   3.186   2.728   5.590
 5416SOL    HW127902   3.149   2.758   5.678
 5416SOL    HW227903   3.284   2.747   5.587
 5417SOL     OW27904   6.949   1.278   7.440
 5417SOL    HW127905   6.928   1.230   7.525
 5417SOL    HW227906   6.875   1.264   7.374
 5418SOL     OW27907   8.066   0.297   6.355
 5418SOL    HW127908   8.071   0.221   6.420
 5418SOL    HW227909   8.148   0.354   6.364
 5419SOL     OW27910   3.722   8.333   5.918
 5419SOL    HW127911   3.771   8.412   5.956
 5419SOL    HW227912   3.654   8.302   5.983
 5420SOL     OW27913   4.435   8.852   0.896
 5420SOL    HW127914   4.424   8.799   0.980
 5420SOL    HW227915   4.532   8.874   0.884
 5421SOL     OW27916   1.193   0.639   1.977
 5421SOL    HW127917   1.182   0.630   1.878
 5421SOL    HW227918   1.243   0.724   1.997
 5422SOL     OW27919   2.066   7.321   2.039
 5422SOL    HW127920   2.029   7.300   1.949
 5422SOL    HW227921   2.002   7.289   2.109
 5423SOL     OW27922   1.481   0.410   6.813
 5423SOL    HW127923   1.435   0.379   6.896
 5423SOL    HW227924   1.412   0.437   6.745
 5424SOL     OW27925   1.008   4.474   6.605
 5424SOL    HW127926   0.922   4.452   6.558
 5424SOL    HW227927   0.994   4.472   6.704
 5425SOL     OW27928   2.735   0.018   3.476
 5425SOL    HW127929   2.734   0.102   3.531
 5425SOL    HW227930   2.791   9.949   3.522
 5426SOL     OW27931   1.091   6.160   1.632
 5426SOL    HW127932   1.069   6.154   1.535
 5426SOL    HW227933   1.062   6.076   1.678
 5427SOL     OW27934   7.991   9.366   1.648
 5427SOL    HW127935   7.993   9.302   1.570
 5427SOL    HW227936   8.082   9.404   1.661
 5428SOL     OW27937   8.788   5.665   6.985
 5428SOL    HW127938   8.785   5.569   7.013
 5428SOL    HW227939   8.707   5.687   6.930
 5429SOL     OW27940   8.179   1.423   2.890
 5429SOL    HW127941   8.129   1.406   2.805
 5429SOL    HW227942   8.185   1.522   2.905
 5430SOL     OW27943   1.894   2.582   0.746
 5430SOL    HW127944   1.873   2.637   0.666
 5430SOL    HW227945   1.811   2.537   0.779
 5431SOL     OW27946   3.084   5.708   6.430
 5431SOL    HW127947   3.146   5.640   6.390
 5431SOL    HW227948   2.999   5.710   6.378
 5432SOL     OW27949   2.973   4.308   1.870
 5432SOL    HW127950   2.881   4.292   1.906
 5432SOL    HW227951   2.992   4.406   1.872
 5433SOL     OW27952   2.245   6.006   2.087
 5433SOL    HW127953   2.226   6.082   2.149
 5433SOL    HW227954   2.208   6.027   1.996
 5434SOL     OW27955   2.632   4.491   5.564
 5434SOL    HW127956   2.538   4.473   5.594
 5434SOL    HW227957   2.695   4.433   5.615
 5435SOL     OW27958   9.069   5.775   2.921
 5435SOL    HW127959   9.003   5.758   2.847
 5435SOL    HW227960   9.143   5.833   2.887
 5436SOL     OW27961   0.223   0.071   3.347
 5436SOL    HW127962   0.244   0.107   3.438
 5436SOL    HW227963   0.301   0.086   3.286
 5437SOL     OW27964   4.397   7.823   5.081
 5437SOL    HW127965   4.444   7.737   5.102
 5437SOL    HW227966   4.299   7.812   5.093
 5438SOL     OW27967   2.512   7.951   0.324
 5438SOL    HW127968   2.586   7.922   0.264
 5438SOL    HW227969   2.473   7.872   0.371
 5439SOL     OW27970   9.365   3.699   5.264
 5439SOL    HW127971   9.288   3.706   5.327
 5439SOL    HW227972   9.331   3.676   5.173
 5440SOL     OW27973   1.702   8.798   2.678
 5440SOL    HW127974   1.703   8.726   2.608
 5440SOL    HW227975   1.781   8.858   2.665
 5441SOL     OW27976   9.650   1.836   4.311
 5441SOL    HW127977   9.579   1.790   4.365
 5441SOL    HW227978   9.639   1.813   4.215
 5442SOL     OW27979   8.274   0.250   4.550
 5442SOL    HW127980   8.359   0.209   4.517
 5442SOL    HW227981   8.196   0.201   4.509
 5443SOL     OW27982   1.965   9.932   2.008
 5443SOL    HW127983   1.869   9.906   2.007
 5443SOL    HW227984   2.001   9.931   1.914
 5444SOL     OW27985   5.888   7.901   7.126
 5444SOL    HW127986   5.867   7.980   7.069
 5444SOL    HW227987   5.813   7.835   7.120
 5445SOL     OW27988   1.931   5.265   5.728
 5445SOL    HW127989   1.912   5.213   5.811
 5445SOL    HW227990   2.024   5.300   5.730
 5446SOL     OW27991   4.715   6.609   1.775
 5446SOL    HW127992   4.692   6.635   1.869
 5446SOL    HW227993   4.810   6.577   1.771
 5447SOL     OW27994   8.541   4.930   1.810
 5447SOL    HW127995   8.527   5.029   1.804
 5447SOL    HW227996   8.638   4.909   1.801
 5448SOL     OW27997   2.951   4.337   4.252
 5448SOL    HW127998   2.859   4.321   4.218
 5448SOL    HW227999   3.013   4.266   4.216
 5449SOL     OW28000   9.138   2.765   3.140
 5449SOL    HW128001   9.225   2.809   3.162
 5449SOL    HW228002   9.141   2.669   3.170
 5450SOL     OW28003   3.379   0.118   0.136
 5450SOL    HW128004   3.473   0.096   0.112
 5450SOL    HW228005   3.331   0.036   0.166
 5451SOL     OW28006   6.958   5.070   7.629
 5451SOL    HW128007   6.886   5.117   7.577
 5451SOL    HW228008   7.007   5.137   7.685
 5452SOL     OW28009   2.547   1.333   3.711
 5452SOL    HW128010   2.519   1.390   3.634
 5452SOL    HW228011   2.542   1.386   3.795
 5453SOL     OW28012   3.515   7.372   7.204
 5453SOL    HW128013   3.574   7.303   7.245
 5453SOL    HW228014   3.437   7.390   7.264
 5454SOL     OW28015   1.251   7.984   4.806
 5454SOL    HW128016   1.187   8.057   4.781
 5454SOL    HW228017   1.267   7.926   4.726
 5455SOL     OW28018   7.601   2.506   4.461
 5455SOL    HW128019   7.570   2.538   4.551
 5455SOL    HW228020   7.683   2.558   4.435
 5456SOL     OW28021   3.736   0.651   2.216
 5456SOL    HW128022   3.723   0.554   2.235
 5456SOL    HW228023   3.733   0.667   2.118
 5457SOL     OW28024   3.248   5.707   6.812
 5457SOL    HW128025   3.162   5.691   6.762
 5457SOL    HW228026   3.236   5.784   6.874
 5458SOL     OW28027   6.068   4.024   1.147
 5458SOL    HW128028   6.048   4.107   1.200
 5458SOL    HW228029   6.041   4.038   1.052
 5459SOL     OW28030   6.427   3.900   2.343
 5459SOL    HW128031   6.397   3.807   2.363
 5459SOL    HW228032   6.470   3.940   2.424
 5460SOL     OW28033   9.748   8.140   2.264
 5460SOL    HW128034   9.826   8.083   2.290
 5460SOL    HW228035   9.752   8.226   2.314
 5461SOL     OW28036   2.752   5.301   6.532
 5461SOL    HW128037   2.841   5.262   6.553
 5461SOL    HW228038   2.743   5.391   6.575
 5462SOL     OW28039   0.672   3.539   4.256
 5462SOL    HW128040   0.707   3.600   4.327
 5462SOL    HW228041   0.654   3.592   4.173
 5463SOL     OW28042   2.386   5.618   7.757
 5463SOL    HW128043   2.297   5.649   7.724
 5463SOL    HW228044   2.439   5.696   7.791
 5464SOL     OW28045   2.119   5.486   5.206
 5464SOL    HW128046   2.087   5.490   5.112
 5464SOL    HW228047   2.165   5.398   5.222
 5465SOL     OW28048   0.728   6.731   2.512
 5465SOL    HW128049   0.651   6.705   2.571
 5465SOL    HW228050   0.787   6.795   2.561
 5466SOL     OW28051   4.747   8.160   3.392
 5466SOL    HW128052   4.791   8.119   3.472
 5466SOL    HW228053   4.736   8.258   3.407
 5467SOL     OW28054   4.232   3.042   4.523
 5467SOL    HW128055   4.290   3.011   4.599
 5467SOL    HW228056   4.160   3.101   4.559
 5468SOL     OW28057   8.247   7.329   3.112
 5468SOL    HW128058   8.175   7.284   3.059
 5468SOL    HW228059   8.249   7.291   3.204
 5469SOL     OW28060   7.800   0.511   7.264
 5469SOL    HW128061   7.724   0.446   7.268
 5469SOL    HW228062   7.818   0.547   7.355
 5470SOL     OW28063   1.425   0.805   4.752
 5470SOL    HW128064   1.357   0.752   4.700
 5470SOL    HW228065   1.411   0.789   4.850
 5471SOL     OW28066   1.617   3.967   5.892
 5471SOL    HW128067   1.620   4.019   5.977
 5471SOL    HW228068   1.586   4.026   5.817
 5472SOL     OW28069   2.250   4.590   4.828
 5472SOL    HW128070   2.177   4.625   4.770
 5472SOL    HW228071   2.237   4.492   4.843
 5473SOL     OW28072   8.968   7.212   2.475
 5473SOL    HW128073   8.939   7.223   2.570
 5473SOL    HW228074   9.026   7.289   2.449
 5474SOL     OW28075   6.778   0.496   6.688
 5474SOL    HW128076   6.853   0.464   6.746
 5474SOL    HW228077   6.745   0.421   6.631
 5475SOL     OW28078   4.608   2.200   4.657
 5475SOL    HW128079   4.663   2.173   4.577
 5475SOL    HW228080   4.629   2.138   4.733
 5476SOL     OW28081   0.347   6.210   1.824
 5476SOL    HW128082   0.397   6.252   1.748
 5476SOL    HW228083   0.249   6.211   1.803
 5477SOL     OW28084   3.416   3.224   0.632
 5477SOL    HW128085   3.328   3.216   0.584
 5477SOL    HW228086   3.457   3.312   0.610
 5478SOL     OW28087   0.498   2.607   2.060
 5478SOL    HW128088   0.512   2.705   2.078
 5478SOL    HW228089   0.582   2.568   2.023
 5479SOL     OW28090   3.484   3.900   2.571
 5479SOL    HW128091   3.478   3.873   2.475
 5479SOL    HW228092   3.446   3.828   2.628
 5480SOL     OW28093   0.838   0.342   3.412
 5480SOL    HW128094   0.813   0.312   3.320
 5480SOL    HW228095   0.923   0.296   3.440
 5481SOL     OW28096   8.485   3.833   1.812
 5481SOL    HW128097   8.580   3.804   1.824
 5481SOL    HW228098   8.479   3.895   1.734
 5482SOL     OW28099   4.403   2.679   6.605
 5482SOL    HW128100   4.412   2.630   6.518
 5482SOL    HW228101   4.465   2.637   6.673
 5483SOL     OW28102   9.772   3.262   5.431
 5483SOL    HW128103   9.724   3.280   5.517
 5483SOL    HW228104   9.721   3.304   5.356
 5484SOL     OW28105   2.894   1.592   3.177
 5484SOL    HW128106   2.979   1.594   3.124
 5484SOL    HW228107   2.869   1.497   3.196
 5485SOL     OW28108   1.686   7.307   3.510
 5485SOL    HW128109   1.756   7.240   3.535
 5485SOL    HW228110   1.621   7.316   3.586
 5486SOL     OW28111   4.098   7.158   4.422
 5486SOL    HW128112   4.095   7.070   4.376
 5486SOL    HW228113   4.191   7.175   4.457
 5487SOL     OW28114   2.955   5.287   7.743
 5487SOL    HW128115   2.934   5.264   7.648
 5487SOL    HW228116   2.912   5.220   7.803
 5488SOL     OW28117   6.778   8.770   7.086
 5488SOL    HW128118   6.742   8.734   7.000
 5488SOL    HW228119   6.714   8.750   7.160
 5489SOL     OW28120   9.557   0.514   2.804
 5489SOL    HW128121   9.656   0.525   2.804
 5489SOL    HW228122   9.514   0.592   2.849
 5490SOL     OW28123   9.671   0.685   3.093
 5490SOL    HW128124   9.605   0.717   3.026
 5490SOL    HW228125   9.761   0.679   3.051
 5491SOL     OW28126   2.825   4.449   2.610
 5491SOL    HW128127   2.809   4.476   2.514
 5491SOL    HW228128   2.915   4.406   2.618
 5492SOL     OW28129   9.707   5.077   2.562
 5492SOL    HW128130   9.705   5.168   2.520
 5492SOL    HW228131   9.737   5.010   2.495
 5493SOL     OW28132   5.387   7.882   3.694
 5493SOL    HW128133   5.461   7.833   3.738
 5493SOL    HW228134   5.317   7.906   3.762
 5494SOL     OW28135   8.033   7.464   2.548
 5494SOL    HW128136   8.127   7.447   2.517
 5494SOL    HW228137   8.032   7.472   2.648
 5495SOL     OW28138   7.693   8.811   2.903
 5495SOL    HW128139   7.771   8.871   2.884
 5495SOL    HW228140   7.711   8.757   2.985
 5496SOL     OW28141   9.656   2.654   1.996
 5496SOL    HW128142   9.726   2.583   1.983
 5496SOL    HW228143   9.577   2.614   2.042
 5497SOL     OW28144   3.976   2.787   0.203
 5497SOL    HW128145   3.986   2.877   0.160
 5497SOL    HW228146   3.887   2.748   0.179
 5498SOL     OW28147   4.188   2.077   6.145
 5498SOL    HW128148   4.158   2.017   6.071
 5498SOL    HW228149   4.186   2.027   6.232
 5499SOL     OW28150   7.052   8.238   5.319
 5499SOL    HW128151   7.033   8.242   5.221
 5499SOL    HW228152   7.146   8.205   5.334
 5500SOL     OW28153   8.440   0.972   4.954
 5500SOL    HW128154   8.435   0.931   5.045
 5500SOL    HW228155   8.403   0.909   4.886
 5501SOL     OW28156   1.011   5.910   0.175
 5501SOL    HW128157   1.031   5.857   0.093
 5501SOL    HW228158   0.932   5.969   0.158
 5502SOL     OW28159   2.620   4.841   7.629
 5502SOL    HW128160   2.715   4.813   7.643
 5502SOL    HW228161   2.561   4.761   7.625
 5503SOL     OW28162   3.098   7.065   0.434
 5503SOL    HW128163   3.018   7.115   0.399
 5503SOL    HW228164   3.085   7.046   0.531
 5504SOL     OW28165   5.059   6.639   0.673
 5504SOL    HW128166   4.992   6.641   0.747
 5504SOL    HW228167   5.135   6.579   0.699
 5505SOL     OW28168   2.150   2.450   2.101
 5505SOL    HW128169   2.072   2.502   2.138
 5505SOL    HW228170   2.124   2.411   2.013
 5506SOL     OW28171   4.928   9.242   7.268
 5506SOL    HW128172   4.937   9.294   7.183
 5506SOL    HW228173   4.967   9.151   7.257
 5507SOL     OW28174   6.969   4.080   0.303
 5507SOL    HW128175   7.044   4.018   0.327
 5507SOL    HW228176   6.881   4.033   0.315
 5508SOL     OW28177   7.907   3.291   2.978
 5508SOL    HW128178   7.873   3.377   2.939
 5508SOL    HW228179   7.913   3.222   2.906
 5509SOL     OW28180   6.451   8.135   5.164
 5509SOL    HW128181   6.425   8.081   5.244
 5509SOL    HW228182   6.368   8.168   5.118
 5510SOL     OW28183   3.004   8.413   7.603
 5510SOL    HW128184   3.047   8.329   7.635
 5510SOL    HW228185   2.905   8.402   7.603
 5511SOL     OW28186   2.962   3.315   2.299
 5511SOL    HW128187   2.903   3.235   2.288
 5511SOL    HW228188   2.925   3.391   2.246
 5512SOL     OW28189   0.781   9.404   6.869
 5512SOL    HW128190   0.818   9.496   6.881
 5512SOL    HW228191   0.779   9.357   6.958
 5513SOL     OW28192   0.797   3.101   2.493
 5513SOL    HW128193   0.812   3.002   2.490
 5513SOL    HW228194   0.830   3.136   2.581
 5514SOL     OW28195   0.653   9.853   7.708
 5514SOL    HW128196   0.702   9.940   7.714
 5514SOL    HW228197   0.623   9.825   7.799
 5515SOL     OW28198   6.020   9.162   3.258
 5515SOL    HW128199   6.045   9.066   3.264
 5515SOL    HW228200   6.001   9.186   3.162
 5516SOL     OW28201   3.351   6.893   7.716
 5516SOL    HW128202   3.286   6.969   7.726
 5516SOL    HW228203   3.442   6.923   7.742
 5517SOL     OW28204   6.767   1.071   3.900
 5517SOL    HW128205   6.689   1.062   3.962
 5517SOL    HW228206   6.734   1.085   3.807
 5518SOL     OW28207   7.640   9.041   5.557
 5518SOL    HW128208   7.580   9.117   5.581
 5518SOL    HW228209   7.602   8.992   5.478
 5519SOL     OW28210   1.936   0.612   2.184
 5519SOL    HW128211   1.911   0.577   2.093
 5519SOL    HW228212   2.031   0.590   2.203
 5520SOL     OW28213   8.427   1.264   7.574
 5520SOL    HW128214   8.389   1.250   7.482
 5520SOL    HW228215   8.473   1.353   7.578
 5521SOL     OW28216   7.548   8.163   5.745
 5521SOL    HW128217   7.566   8.097   5.818
 5521SOL    HW228218   7.477   8.129   5.684
 5522SOL     OW28219   9.434   1.718   7.266
 5522SOL    HW128220   9.489   1.799   7.246
 5522SOL    HW228221   9.492   1.647   7.305
 5523SOL     OW28222   1.225   4.694   2.093
 5523SOL    HW128223   1.179   4.673   2.008
 5523SOL    HW228224   1.158   4.701   2.167
 5524SOL     OW28225   9.115   9.081   3.863
 5524SOL    HW128226   9.037   9.141   3.842
 5524SOL    HW228227   9.172   9.072   3.782
 5525SOL     OW28228   3.331   0.902   1.650
 5525SOL    HW128229   3.365   0.840   1.579
 5525SOL    HW228230   3.409   0.939   1.701
 5526SOL     OW28231   2.286   5.795   7.381
 5526SOL    HW128232   2.372   5.812   7.429
 5526SOL    HW228233   2.238   5.882   7.367
 5527SOL     OW28234   1.973   7.299   3.742
 5527SOL    HW128235   2.066   7.325   3.718
 5527SOL    HW228236   1.940   7.230   3.678
 5528SOL     OW28237   1.745   2.892   4.004
 5528SOL    HW128238   1.705   2.911   3.914
 5528SOL    HW228239   1.841   2.920   4.004
 5529SOL     OW28240   0.626   4.843   0.223
 5529SOL    HW128241   0.536   4.836   0.181
 5529SOL    HW228242   0.637   4.936   0.261
 5530SOL     OW28243   6.167   1.920   1.454
 5530SOL    HW128244   6.073   1.896   1.477
 5530SOL    HW228245   6.168   1.974   1.370
 5531SOL     OW28246   0.228   8.623   4.299
 5531SOL    HW128247   0.209   8.714   4.264
 5531SOL    HW228248   0.319   8.593   4.268
 5532SOL     OW28249   2.884   2.762   2.200
 5532SOL    HW128250   2.799   2.710   2.204
 5532SOL    HW228251   2.896   2.812   2.286
 5533SOL     OW28252   5.664   9.977   4.823
 5533SOL    HW128253   5.677   9.878   4.818
 5533SOL    HW228254   5.704   0.012   4.908
 5534SOL     OW28255   9.194   6.741   5.541
 5534SOL    HW128256   9.145   6.817   5.583
 5534SOL    HW228257   9.129   6.676   5.503
 5535SOL     OW28258   1.488   7.566   2.417
 5535SOL    HW128259   1.558   7.637   2.417
 5535SOL    HW228260   1.443   7.564   2.328
 5536SOL     OW28261   8.282   1.373   6.551
 5536SOL    HW128262   8.202   1.431   6.538
 5536SOL    HW228263   8.316   1.383   6.645
 5537SOL     OW28264   8.848   8.665   7.461
 5537SOL    HW128265   8.907   8.721   7.404
 5537SOL    HW228266   8.884   8.663   7.555
 5538SOL     OW28267   1.992   1.411   2.426
 5538SOL    HW128268   2.064   1.481   2.422
 5538SOL    HW228269   1.918   1.436   2.364
 5539SOL     OW28270   7.210   5.053   7.509
 5539SOL    HW128271   7.270   5.066   7.588
 5539SOL    HW228272   7.116   5.043   7.540
 5540SOL     OW28273   0.115   5.842   4.775
 5540SOL    HW128274   0.020   5.843   4.807
 5540SOL    HW228275   0.122   5.896   4.691
 5541SOL     OW28276   9.154   8.313   7.646
 5541SOL    HW128277   9.176   8.410   7.659
 5541SOL    HW228278   9.236   8.258   7.661
 5542SOL     OW28279   0.505   3.603   5.662
 5542SOL    HW128280   0.516   3.504   5.650
 5542SOL    HW228281   0.412   3.629   5.636
 5543SOL     OW28282   8.864   9.395   3.280
 5543SOL    HW128283   8.772   9.392   3.241
 5543SOL    HW228284   8.915   9.471   3.240
 5544SOL     OW28285   8.173   2.706   1.767
 5544SOL    HW128286   8.174   2.647   1.848
 5544SOL    HW228287   8.080   2.707   1.728
 5545SOL     OW28288   3.203   8.883   1.798
 5545SOL    HW128289   3.230   8.980   1.801
 5545SOL    HW228290   3.284   8.827   1.783
 5546SOL     OW28291   7.690   4.840   1.753
 5546SOL    HW128292   7.713   4.768   1.687
 5546SOL    HW228293   7.598   4.823   1.789
 5547SOL     OW28294   3.871   4.289   5.257
 5547SOL    HW128295   3.819   4.348   5.196
 5547SOL    HW228296   3.962   4.328   5.272
 5548SOL     OW28297   2.414   8.908   0.620
 5548SOL    HW128298   2.403   8.892   0.522
 5548SOL    HW228299   2.511   8.904   0.644
 5549SOL     OW28300   1.598   3.862   6.425
 5549SOL    HW128301   1.617   3.764   6.419
 5549SOL    HW228302   1.670   3.912   6.375
 5550SOL     OW28303   7.675   0.919   0.304
 5550SOL    HW128304   7.721   0.982   0.242
 5550SOL    HW228305   7.723   0.832   0.305
 5551SOL     OW28306   0.060   9.500   4.892
 5551SOL    HW128307   0.047   9.512   4.991
 5551SOL    HW228308   0.057   9.403   4.869
 5552SOL     OW28309   9.347   7.541   2.964
 5552SOL    HW128310   9.393   7.626   2.989
 5552SOL    HW228311   9.371   7.516   2.871
 5553SOL     OW28312   4.494   7.172   2.536
 5553SOL    HW128313   4.528   7.178   2.630
 5553SOL    HW228314   4.571   7.167   2.473
 5554SOL     OW28315   9.785   0.620   1.075
 5554SOL    HW128316   9.870   0.608   1.024
 5554SOL    HW228317   9.759   0.533   1.117
 5555SOL     OW28318   1.293   6.708   1.182
 5555SOL    HW128319   1.376   6.760   1.200
 5555SOL    HW228320   1.317   6.616   1.152
 5556SOL     OW28321   2.085   5.106   2.574
 5556SOL    HW128322   2.158   5.055   2.529
 5556SOL    HW228323   2.093   5.096   2.673
 5557SOL     OW28324   7.771   3.318   3.954
 5557SOL    HW128325   7.806   3.404   3.992
 5557SOL    HW228326   7.732   3.334   3.864
 5558SOL     OW28327   5.466   3.824   0.721
 5558SOL    HW128328   5.376   3.784   0.736
 5558SOL    HW228329   5.457   3.907   0.666
 5559SOL     OW28330   5.530   1.937   0.303
 5559SOL    HW128331   5.468   1.858   0.303
 5559SOL    HW228332   5.599   1.925   0.231
 5560SOL     OW28333   4.067   2.897   4.348
 5560SOL    HW128334   4.125   2.944   4.414
 5560SOL    HW228335   4.098   2.803   4.337
 5561SOL     OW28336   9.923   0.291   4.447
 5561SOL    HW128337   9.844   0.349   4.467
 5561SOL    HW228338   9.971   0.326   4.366
 5562SOL     OW28339   9.559   4.568   1.550
 5562SOL    HW128340   9.612   4.594   1.470
 5562SOL    HW228341   9.610   4.592   1.633
 5563SOL     OW28342   1.674   4.356   7.489
 5563SOL    HW128343   1.641   4.413   7.564
 5563SOL    HW228344   1.598   4.305   7.450
 5564SOL     OW28345   3.199   2.990   4.629
 5564SOL    HW128346   3.242   2.900   4.619
 5564SOL    HW228347   3.261   3.060   4.595
 5565SOL     OW28348   3.262   0.215   1.423
 5565SOL    HW128349   3.171   0.201   1.385
 5565SOL    HW228350   3.299   0.127   1.455
 5566SOL     OW28351   7.979   7.120   1.153
 5566SOL    HW128352   7.993   7.218   1.164
 5566SOL    HW228353   8.032   7.070   1.221
 5567SOL     OW28354   3.927   6.165   7.675
 5567SOL    HW128355   3.935   6.066   7.671
 5567SOL    HW228356   4.017   6.207   7.666
 5568SOL     OW28357   1.981   3.673   0.811
 5568SOL    HW128358   1.953   3.594   0.865
 5568SOL    HW228359   1.992   3.752   0.871
 5569SOL     OW28360   0.010   7.940   5.040
 5569SOL    HW128361   0.072   8.010   5.005
 5569SOL    HW228362   9.919   7.980   5.053
 5570SOL     OW28363   3.624   2.971   6.758
 5570SOL    HW128364   3.559   3.015   6.697
 5570SOL    HW228365   3.708   2.951   6.708
 5571SOL     OW28366   3.927   1.746   3.518
 5571SOL    HW128367   3.969   1.730   3.429
 5571SOL    HW228368   3.971   1.690   3.588
 5572SOL     OW28369   2.190   8.178   0.982
 5572SOL    HW128370   2.208   8.232   0.900
 5572SOL    HW228371   2.099   8.138   0.976
 5573SOL     OW28372   9.263   3.554   2.861
 5573SOL    HW128373   9.214   3.506   2.934
 5573SOL    HW228374   9.350   3.588   2.897
 5574SOL     OW28375   3.869   6.550   7.201
 5574SOL    HW128376   3.803   6.502   7.143
 5574SOL    HW228377   3.846   6.535   7.297
 5575SOL     OW28378   2.864   8.466   7.879
 5575SOL    HW128379   2.864   8.560   7.912
 5575SOL    HW228380   2.958   8.436   7.863
 5576SOL     OW28381   9.967   5.393   4.044
 5576SOL    HW128382   9.986   5.431   3.953
 5576SOL    HW228383   0.027   5.315   4.060
 5577SOL     OW28384   8.598   3.462   1.299
 5577SOL    HW128385   8.601   3.362   1.300
 5577SOL    HW228386   8.538   3.494   1.373
 5578SOL     OW28387   0.080   2.434   0.238
 5578SOL    HW128388   0.173   2.433   0.201
 5578SOL    HW228389   0.049   2.340   0.250
 5579SOL     OW28390   8.835   9.934   5.816
 5579SOL    HW128391   8.934   9.941   5.830
 5579SOL    HW228392   8.799   9.863   5.876
 5580SOL     OW28393   9.518   6.026   7.381
 5580SOL    HW128394   9.444   6.012   7.316
 5580SOL    HW228395   9.580   5.948   7.379
 5581SOL     OW28396   8.364   2.931   5.840
 5581SOL    HW128397   8.300   3.006   5.855
 5581SOL    HW228398   8.338   2.881   5.757
 5582SOL     OW28399   7.327   5.514   2.774
 5582SOL    HW128400   7.360   5.597   2.729
 5582SOL    HW228401   7.379   5.499   2.857
 5583SOL     OW28402   1.915   3.000   7.276
 5583SOL    HW128403   1.858   3.042   7.347
 5583SOL    HW228404   1.867   2.920   7.239
 5584SOL     OW28405   5.480   1.292   7.417
 5584SOL    HW128406   5.474   1.193   7.426
 5584SOL    HW228407   5.575   1.319   7.401
 5585SOL     OW28408   7.463   1.187   3.788
 5585SOL    HW128409   7.460   1.168   3.887
 5585SOL    HW228410   7.403   1.263   3.767
 5586SOL     OW28411   3.753   2.478   0.322
 5586SOL    HW128412   3.676   2.438   0.371
 5586SOL    HW228413   3.797   2.547   0.379
 5587SOL     OW28414   3.092   4.934   3.823
 5587SOL    HW128415   3.039   5.019   3.826
 5587SOL    HW228416   3.180   4.948   3.868
 5588SOL     OW28417   3.530   1.121   3.952
 5588SOL    HW128418   3.559   1.037   3.998
 5588SOL    HW228419   3.515   1.102   3.855
 5589SOL     OW28420   4.105   1.303   6.912
 5589SOL    HW128421   4.109   1.208   6.882
 5589SOL    HW228422   4.014   1.340   6.895
 5590SOL     OW28423   2.482   7.356   4.022
 5590SOL    HW128424   2.552   7.389   3.959
 5590SOL    HW228425   2.416   7.299   3.972
 5591SOL     OW28426   8.760   7.553   7.294
 5591SOL    HW128427   8.741   7.512   7.204
 5591SOL    HW228428   8.809   7.639   7.281
 5592SOL     OW28429   5.832   1.652   1.149
 5592SOL    HW128430   5.767   1.644   1.224
 5592SOL    HW228431   5.898   1.578   1.154
 5593SOL     OW28432   8.032   2.459   3.242
 5593SOL    HW128433   7.943   2.497   3.217
 5593SOL    HW228434   8.104   2.513   3.198
 5594SOL     OW28435   3.417   3.305   2.352
 5594SOL    HW128436   3.467   3.224   2.321
 5594SOL    HW228437   3.470   3.352   2.423
 5595SOL     OW28438   8.738   9.192   1.850
 5595SOL    HW128439   8.673   9.159   1.782
 5595SOL    HW228440   8.831   9.190   1.812
 5596SOL     OW28441   9.440   6.181   2.901
 5596SOL    HW128442   9.392   6.097   2.875
 5596SOL    HW228443   9.394   6.259   2.860
 5597SOL     OW28444   4.689   8.107   3.134
 5597SOL    HW128445   4.668   8.193   3.088
 5597SOL    HW228446   4.703   8.124   3.232
 5598SOL     OW28447   1.941   4.098   5.093
 5598SOL    HW128448   1.976   4.172   5.151
 5598SOL    HW228449   1.891   4.032   5.150
 5599SOL     OW28450   7.741   8.090   2.544
 5599SOL    HW128451   7.653   8.089   2.592
 5599SOL    HW228452   7.798   8.164   2.581
 5600SOL     OW28453   8.459   3.312   0.800
 5600SOL    HW128454   8.438   3.408   0.815
 5600SOL    HW228455   8.540   3.304   0.743
 5601SOL     OW28456   7.963   6.129   3.987
 5601SOL    HW128457   7.899   6.114   3.911
 5601SOL    HW228458   8.041   6.068   3.978
 5602SOL     OW28459   2.382   7.622   0.740
 5602SOL    HW128460   2.333   7.543   0.706
 5602SOL    HW228461   2.481   7.606   0.733
 5603SOL     OW28462   4.412   1.593   1.135
 5603SOL    HW128463   4.319   1.601   1.100
 5603SOL    HW228464   4.412   1.606   1.234
 5604SOL     OW28465   8.327   5.583   5.885
 5604SOL    HW128466   8.403   5.545   5.831
 5604SOL    HW228467   8.303   5.519   5.958
 5605SOL     OW28468   8.662   6.620   0.401
 5605SOL    HW128469   8.667   6.541   0.340
 5605SOL    HW228470   8.631   6.700   0.349
 5606SOL     OW28471   3.614   8.423   7.495
 5606SOL    HW128472   3.623   8.522   7.485
 5606SOL    HW228473   3.589   8.401   7.589
 5607SOL     OW28474   9.054   6.585   3.898
 5607SOL    HW128475   9.132   6.529   3.869
 5607SOL    HW228476   9.084   6.649   3.968
 5608SOL     OW28477   9.032   0.890   4.634
 5608SOL    HW128478   9.078   0.835   4.564
 5608SOL    HW228479   8.951   0.841   4.666
 5609SOL     OW28480   0.324   6.001   0.243
 5609SOL    HW128481   0.259   6.074   0.268
 5609SOL    HW228482   0.409   6.042   0.211
 5610SOL     OW28483   2.581   2.373   2.287
 5610SOL    HW128484   2.482   2.366   2.303
 5610SOL    HW228485   2.606   2.470   2.278
 5611SOL     OW28486   0.912   4.888   6.943
 5611SOL    HW128487   0.818   4.885   6.911
 5611SOL    HW228488   0.948   4.981   6.933
 5612SOL     OW28489   3.648   8.348   0.754
 5612SOL    HW128490   3.707   8.363   0.833
 5612SOL    HW228491   3.688   8.390   0.673
 5613SOL     OW28492   9.868   7.734   3.747
 5613SOL    HW128493   9.941   7.743   3.678
 5613SOL    HW228494   9.835   7.824   3.772
 5614SOL     OW28495   2.155   3.109   1.180
 5614SOL    HW128496   2.253   3.107   1.199
 5614SOL    HW228497   2.136   3.177   1.108
 5615SOL     OW28498   5.485   9.836   1.647
 5615SOL    HW128499   5.482   9.924   1.693
 5615SOL    HW228500   5.557   9.836   1.578
 5616SOL     OW28501   1.200   6.389   6.637
 5616SOL    HW128502   1.129   6.358   6.575
 5616SOL    HW228503   1.258   6.456   6.592
 5617SOL     OW28504   9.784   7.535   5.366
 5617SOL    HW128505   9.811   7.520   5.271
 5617SOL    HW228506   9.766   7.447   5.410
 5618SOL     OW28507   9.006   0.780   5.123
 5618SOL    HW128508   8.977   0.867   5.083
 5618SOL    HW228509   9.053   0.726   5.054
 5619SOL     OW28510   4.068   1.713   1.798
 5619SOL    HW128511   4.016   1.788   1.755
 5619SOL    HW228512   4.160   1.746   1.821
 5620SOL     OW28513   9.348   8.685   5.868
 5620SOL    HW128514   9.384   8.663   5.777
 5620SOL    HW228515   9.391   8.627   5.936
 5621SOL     OW28516   7.585   5.274   7.647
 5621SOL    HW128517   7.629   5.348   7.697
 5621SOL    HW228518   7.655   5.222   7.598
 5622SOL     OW28519   5.120   6.086   1.962
 5622SOL    HW128520   5.108   5.993   1.927
 5622SOL    HW228521   5.141   6.083   2.060
 5623SOL     OW28522   1.964   6.228   2.667
 5623SOL    HW128523   1.947   6.298   2.736
 5623SOL    HW228524   1.903   6.241   2.589
 5624SOL     OW28525   7.520   0.025   1.010
 5624SOL    HW128526   7.528   0.084   0.929
 5624SOL    HW228527   7.604   0.030   1.063
 5625SOL     OW28528   6.385   5.394   7.098
 5625SOL    HW128529   6.381   5.415   7.001
 5625SOL    HW228530   6.456   5.450   7.141
 5626SOL     OW28531   9.284   8.477   3.977
 5626SOL    HW128532   9.357   8.542   3.956
 5626SOL    HW228533   9.226   8.465   3.896
 5627SOL     OW28534   6.839   6.894   4.262
 5627SOL    HW128535   6.931   6.867   4.293
 5627SOL    HW228536   6.825   6.864   4.168
 5628SOL     OW28537   3.277   4.430   3.120
 5628SOL    HW128538   3.317   4.386   3.040
 5628SOL    HW228539   3.346   4.439   3.191
 5629SOL     OW28540   9.983   7.236   4.984
 5629SOL    HW128541   0.043   7.185   4.923
 5629SOL    HW228542   0.037   7.294   5.044
 5630SOL     OW28543   3.790   9.015   5.307
 5630SOL    HW128544   3.792   9.071   5.224
 5630SOL    HW228545   3.821   8.922   5.286
 5631SOL     OW28546   8.121   8.090   1.153
 5631SOL    HW128547   8.127   8.104   1.252
 5631SOL    HW228548   8.205   8.120   1.109
 5632SOL     OW28549   3.144   2.093   5.003
 5632SOL    HW128550   3.179   2.015   4.951
 5632SOL    HW228551   3.140   2.173   4.943
 5633SOL     OW28552   4.223   8.173   4.788
 5633SOL    HW128553   4.163   8.252   4.802
 5633SOL    HW228554   4.318   8.201   4.798
 5634SOL     OW28555   1.726   4.595   1.018
 5634SOL    HW128556   1.711   4.651   0.937
 5634SOL    HW228557   1.758   4.504   0.991
 5635SOL     OW28558   3.677   3.808   5.982
 5635SOL    HW128559   3.733   3.795   6.064
 5635SOL    HW228560   3.656   3.719   5.942
 5636SOL     OW28561   1.273   3.804   0.242
 5636SOL    HW128562   1.365   3.830   0.214
 5636SOL    HW228563   1.217   3.886   0.250
 5637SOL     OW28564   5.600   7.764   3.837
 5637SOL    HW128565   5.581   7.688   3.900
 5637SOL    HW228566   5.662   7.733   3.765
 5638SOL     OW28567   7.798   9.053   4.852
 5638SOL    HW128568   7.876   9.089   4.902
 5638SOL    HW228569   7.713   9.080   4.898
 5639SOL     OW28570   8.218   6.774   6.701
 5639SOL    HW128571   8.193   6.727   6.616
 5639SOL    HW228572   8.313   6.805   6.695
 5640SOL     OW28573   4.750   3.487   1.539
 5640SOL    HW128574   4.695   3.494   1.457
 5640SOL    HW228575   4.721   3.407   1.592
 5641SOL     OW28576   4.358   7.410   2.507
 5641SOL    HW128577   4.414   7.492   2.514
 5641SOL    HW228578   4.416   7.329   2.521
 5642SOL     OW28579   2.037   4.243   4.392
 5642SOL    HW128580   2.129   4.277   4.412
 5642SOL    HW228581   2.038   4.143   4.391
 5643SOL     OW28582   2.834   1.375   2.524
 5643SOL    HW128583   2.741   1.356   2.557
 5643SOL    HW228584   2.828   1.428   2.440
 5644SOL     OW28585   9.273   1.565   4.115
 5644SOL    HW128586   9.366   1.546   4.083
 5644SOL    HW228587   9.234   1.641   4.064
 5645SOL     OW28588   6.270   5.144   7.432
 5645SOL    HW128589   6.207   5.074   7.465
 5645SOL    HW228590   6.262   5.151   7.332
 5646SOL     OW28591   8.955   0.111   7.432
 5646SOL    HW128592   8.980   0.025   7.387
 5646SOL    HW228593   8.857   0.109   7.453
 5647SOL     OW28594   7.028   0.978   1.358
 5647SOL    HW128595   7.023   1.014   1.265
 5647SOL    HW228596   6.951   0.916   1.374
 5648SOL     OW28597   4.963   9.396   7.043
 5648SOL    HW128598   4.931   9.487   7.069
 5648SOL    HW228599   4.900   9.356   6.976
 5649SOL     OW28600   8.889   8.219   5.927
 5649SOL    HW128601   8.870   8.292   5.993
 5649SOL    HW228602   8.902   8.132   5.976
 5650SOL     OW28603   4.322   2.882   0.245
 5650SOL    HW128604   4.383   2.931   0.307
 5650SOL    HW228605   4.262   2.947   0.198
 5651SOL     OW28606   0.574   9.553   7.128
 5651SOL    HW128607   0.547   9.510   7.042
 5651SOL    HW228608   0.531   9.505   7.204
 5652SOL     OW28609   7.120   6.320   1.856
 5652SOL    HW128610   7.100   6.414   1.884
 5652SOL    HW228611   7.128   6.315   1.756
 5653SOL     OW28612   8.462   2.624   3.631
 5653SOL    HW128613   8.524   2.556   3.670
 5653SOL    HW228614   8.424   2.589   3.546
 5654SOL     OW28615   7.906   4.583   1.194
 5654SOL    HW128616   7.971   4.560   1.122
 5654SOL    HW228617   7.834   4.514   1.198
 5655SOL     OW28618   4.502   0.441   2.842
 5655SOL    HW128619   4.565   0.428   2.766
 5655SOL    HW228620   4.440   0.518   2.823
 5656SOL     OW28621   1.626   8.307   4.955
 5656SOL    HW128622   1.540   8.255   4.962
 5656SOL    HW228623   1.688   8.259   4.894
 5657SOL     OW28624   0.405   2.523   6.903
 5657SOL    HW128625   0.440   2.432   6.925
 5657SOL    HW228626   0.323   2.514   6.845
 5658SOL     OW28627   6.837   7.712   5.331
 5658SOL    HW128628   6.874   7.801   5.357
 5658SOL    HW228629   6.760   7.724   5.269
 5659SOL     OW28630   0.301   6.612   4.856
 5659SOL    HW128631   0.222   6.668   4.830
 5659SOL    HW228632   0.372   6.621   4.787
 5660SOL     OW28633   3.809   8.119   3.408
 5660SOL    HW128634   3.713   8.142   3.391
 5660SOL    HW228635   3.834   8.037   3.356
 5661SOL     OW28636   2.663   6.374   5.302
 5661SOL    HW128637   2.737   6.370   5.370
 5661SOL    HW228638   2.700   6.404   5.214
 5662SOL     OW28639   2.061   1.452   4.532
 5662SOL    HW128640   2.027   1.358   4.533
 5662SOL    HW228641   2.132   1.462   4.602
 5663SOL     OW28642   8.124   2.936   3.674
 5663SOL    HW128643   8.063   2.932   3.753
 5663SOL    HW228644   8.084   2.884   3.599
 5664SOL     OW28645   2.341   4.829   0.593
 5664SOL    HW128646   2.439   4.838   0.610
 5664SOL    HW228647   2.297   4.918   0.606
 5665SOL     OW28648   4.543   6.909   0.795
 5665SOL    HW128649   4.636   6.939   0.815
 5665SOL    HW228650   4.482   6.988   0.796
 5666SOL     OW28651   4.528   8.391   5.723
 5666SOL    HW128652   4.504   8.468   5.665
 5666SOL    HW228653   4.549   8.423   5.815
 5667SOL     OW28654   9.850   4.510   5.015
 5667SOL    HW128655   9.930   4.567   4.996
 5667SOL    HW228656   9.826   4.456   4.935
 5668SOL     OW28657   8.203   9.473   2.458
 5668SOL    HW128658   8.239   9.564   2.438
 5668SOL    HW228659   8.275   9.415   2.495
 5669SOL     OW28660   2.129   2.885   2.046
 5669SOL    HW128661   2.188   2.860   1.969
 5669SOL    HW228662   2.170   2.852   2.132
 5670SOL     OW28663   2.487   3.285   6.578
 5670SOL    HW128664   2.461   3.189   6.585
 5670SOL    HW228665   2.429   3.330   6.510
 5671SOL     OW28666   1.883   8.432   6.359
 5671SOL    HW128667   1.791   8.448   6.395
 5671SOL    HW228668   1.895   8.335   6.339
 5672SOL     OW28669   9.396   5.506   4.223
 5672SOL    HW128670   9.300   5.499   4.249
 5672SOL    HW228671   9.436   5.589   4.261
 5673SOL     OW28672   6.241   9.806   3.552
 5673SOL    HW128673   6.181   9.734   3.518
 5673SOL    HW228674   6.187   9.886   3.576
 5674SOL     OW28675   7.018   9.900   4.857
 5674SOL    HW128676   7.055   9.980   4.905
 5674SOL    HW228677   7.093   9.837   4.834
 5675SOL     OW28678   5.110   4.526   0.608
 5675SOL    HW128679   5.169   4.588   0.661
 5675SOL    HW228680   5.025   4.573   0.585
 5676SOL     OW28681   2.534   5.909   6.546
 5676SOL    HW128682   2.437   5.933   6.542
 5676SOL    HW228683   2.544   5.812   6.523
 5677SOL     OW28684   3.643   6.855   1.911
 5677SOL    HW128685   3.715   6.791   1.883
 5677SOL    HW228686   3.684   6.945   1.929
 5678SOL     OW28687   4.454   1.826   5.968
 5678SOL    HW128688   4.384   1.761   5.999
 5678SOL    HW228689   4.543   1.779   5.962
 5679SOL     OW28690   4.410   7.093   1.088
 5679SOL    HW128691   4.389   7.109   0.991
 5679SOL    HW228692   4.394   6.997   1.110
 5680SOL     OW28693   6.106   4.922   0.599
 5680SOL    HW128694   6.073   4.976   0.676
 5680SOL    HW228695   6.032   4.864   0.565
 5681SOL     OW28696   9.980   1.756   0.468
 5681SOL    HW128697   9.995   1.658   0.483
 5681SOL    HW228698   0.061   1.806   0.500
 5682SOL     OW28699   1.934   9.175   5.759
 5682SOL    HW128700   2.011   9.164   5.822
 5682SOL    HW228701   1.886   9.088   5.750
 5683SOL     OW28702   8.360   4.388   2.068
 5683SOL    HW128703   8.455   4.416   2.086
 5683SOL    HW228704   8.310   4.463   2.027
 5684SOL     OW28705   5.268   7.982   3.466
 5684SOL    HW128706   5.342   8.003   3.402
 5684SOL    HW228707   5.306   7.938   3.548
 5685SOL     OW28708   9.382   4.397   7.719
 5685SOL    HW128709   9.301   4.356   7.760
 5685SOL    HW228710   9.355   4.449   7.638
 5686SOL     OW28711   1.156   5.150   2.052
 5686SOL    HW128712   1.069   5.100   2.051
 5686SOL    HW228713   1.218   5.107   2.117
 5687SOL     OW28714   2.822   6.774   5.494
 5687SOL    HW128715   2.817   6.687   5.544
 5687SOL    HW228716   2.847   6.847   5.557
 5688SOL     OW28717   1.736   9.400   2.147
 5688SOL    HW128718   1.643   9.395   2.112
 5688SOL    HW228719   1.797   9.350   2.086
 5689SOL     OW28720   9.004   6.584   5.431
 5689SOL    HW128721   9.051   6.496   5.436
 5689SOL    HW228722   8.911   6.575   5.467
 5690SOL     OW28723   5.084   1.361   4.760
 5690SOL    HW128724   5.165   1.344   4.703
 5690SOL    HW228725   5.054   1.275   4.801
 5691SOL     OW28726   7.627   3.467   1.305
 5691SOL    HW128727   7.532   3.445   1.324
 5691SOL    HW228728   7.665   3.400   1.241
 5692SOL     OW28729   0.716   9.698   6.237
 5692SOL    HW128730   0.795   9.733   6.288
 5692SOL    HW228731   0.706   9.749   6.152
 5693SOL     OW28732   5.468   3.293   0.364
 5693SOL    HW128733   5.458   3.227   0.438
 5693SOL    HW228734   5.490   3.245   0.279
 5694SOL     OW28735   1.214   4.407   5.340
 5694SOL    HW128736   1.194   4.412   5.242
 5694SOL    HW228737   1.129   4.406   5.392
 5695SOL     OW28738   8.923   0.531   4.797
 5695SOL    HW128739   8.872   0.615   4.779
 5695SOL    HW228740   9.004   0.553   4.852
 5696SOL     OW28741   9.113   7.429   1.590
 5696SOL    HW128742   9.206   7.458   1.613
 5696SOL    HW228743   9.118   7.350   1.528
 5697SOL     OW28744   9.136   4.021   5.316
 5697SOL    HW128745   9.116   3.978   5.404
 5697SOL    HW228746   9.169   4.114   5.330
 5698SOL     OW28747   8.270   4.716   5.173
 5698SOL    HW128748   8.259   4.666   5.259
 5698SOL    HW228749   8.300   4.652   5.101
 5699SOL     OW28750   5.517   8.715   6.242
 5699SOL    HW128751   5.439   8.694   6.183
 5699SOL    HW228752   5.485   8.761   6.325
 5700SOL     OW28753   3.924   2.067   5.007
 5700SOL    HW128754   3.962   2.154   5.038
 5700SOL    HW228755   3.826   2.064   5.026
 5701SOL     OW28756   0.784   9.039   0.893
 5701SOL    HW128757   0.700   8.985   0.902
 5701SOL    HW228758   0.830   9.042   0.982
 5702SOL     OW28759   7.848   5.774   3.912
 5702SOL    HW128760   7.888   5.734   3.995
 5702SOL    HW228761   7.810   5.863   3.933
 5703SOL     OW28762   0.457   0.537   4.406
 5703SOL    HW128763   0.530   0.562   4.342
 5703SOL    HW228764   0.440   0.613   4.468
 5704SOL     OW28765   1.259   2.802   0.559
 5704SOL    HW128766   1.326   2.753   0.615
 5704SOL    HW228767   1.302   2.829   0.473
 5705SOL     OW28768   7.585   0.236   6.180
 5705SOL    HW128769   7.600   0.161   6.244
 5705SOL    HW228770   7.662   0.299   6.184
 5706SOL     OW28771   0.249   3.418   2.026
 5706SOL    HW128772   0.264   3.453   1.934
 5706SOL    HW228773   0.219   3.492   2.086
 5707SOL     OW28774   3.197   5.978   6.410
 5707SOL    HW128775   3.156   5.887   6.406
 5707SOL    HW228776   3.161   6.027   6.490
 5708SOL     OW28777   6.286   8.468   5.211
 5708SOL    HW128778   6.363   8.436   5.266
 5708SOL    HW228779   6.257   8.396   5.148
 5709SOL     OW28780   4.555   4.675   5.787
 5709SOL    HW128781   4.544   4.581   5.753
 5709SOL    HW228782   4.505   4.738   5.728
 5710SOL     OW28783   9.777   4.368   4.792
 5710SOL    HW128784   9.813   4.308   4.721
 5710SOL    HW228785   9.683   4.341   4.814
 5711SOL     OW28786   8.864   0.018   0.282
 5711SOL    HW128787   8.927   9.940   0.278
 5711SOL    HW228788   8.903   0.095   0.231
 5712SOL     OW28789   8.395   4.231   5.392
 5712SOL    HW128790   8.330   4.235   5.315
 5712SOL    HW228791   8.344   4.220   5.477
 5713SOL     OW28792   4.579   0.066   4.345
 5713SOL    HW128793   4.571   9.967   4.332
 5713SOL    HW228794   4.657   0.085   4.406
 5714SOL     OW28795   1.858   5.123   5.103
 5714SOL    HW128796   1.876   5.138   5.005
 5714SOL    HW228797   1.940   5.086   5.146
 5715SOL     OW28798   7.458   1.725   5.482
 5715SOL    HW128799   7.491   1.650   5.425
 5715SOL    HW228800   7.533   1.787   5.503
 5716SOL     OW28801   6.680   5.051   1.333
 5716SOL    HW128802   6.688   4.968   1.388
 5716SOL    HW228803   6.588   5.089   1.342
 5717SOL     OW28804   1.095   8.329   5.232
 5717SOL    HW128805   1.119   8.361   5.323
 5717SOL    HW228806   1.095   8.229   5.230
 5718SOL     OW28807   0.238   6.624   0.325
 5718SOL    HW128808   0.278   6.698   0.271
 5718SOL    HW228809   0.184   6.662   0.400
 5719SOL     OW28810   5.872   2.510   0.322
 5719SOL    HW128811   5.798   2.444   0.313
 5719SOL    HW228812   5.841   2.600   0.290
 5720SOL     OW28813   2.100   0.203   6.640
 5720SOL    HW128814   2.170   0.168   6.578
 5720SOL    HW228815   2.010   0.174   6.609
 5721SOL     OW28816   9.274   2.204   5.095
 5721SOL    HW128817   9.248   2.300   5.102
 5721SOL    HW228818   9.191   2.148   5.085
 5722SOL     OW28819   5.908   3.264   1.157
 5722SOL    HW128820   5.818   3.222   1.165
 5722SOL    HW228821   5.901   3.362   1.176
 5723SOL     OW28822   2.231   5.918   4.697
 5723SOL    HW128823   2.326   5.888   4.702
 5723SOL    HW228824   2.217   5.997   4.757
 5724SOL     OW28825   3.528   2.496   5.429
 5724SOL    HW128826   3.593   2.563   5.393
 5724SOL    HW228827   3.452   2.484   5.365
 5725SOL     OW28828   1.204   8.849   1.887
 5725SOL    HW128829   1.206   8.761   1.935
 5725SOL    HW228830   1.291   8.863   1.840
 5726SOL     OW28831   7.130   5.985   7.657
 5726SOL    HW128832   7.120   6.004   7.755
 5726SOL    HW228833   7.101   6.064   7.604
 5727SOL     OW28834   6.653   1.116   3.647
 5727SOL    HW128835   6.728   1.149   3.590
 5727SOL    HW228836   6.618   1.031   3.610
 5728SOL     OW28837   0.694   1.022   4.162
 5728SOL    HW128838   0.736   1.000   4.250
 5728SOL    HW228839   0.678   0.938   4.110
 5729SOL     OW28840   4.218   1.158   6.046
 5729SOL    HW128841   4.249   1.156   6.141
 5729SOL    HW228842   4.125   1.195   6.042
 5730SOL     OW28843   7.254   8.697   7.500
 5730SOL    HW128844   7.177   8.756   7.475
 5730SOL    HW228845   7.230   8.602   7.480
 5731SOL     OW28846   5.224   9.710   5.344
 5731SOL    HW128847   5.321   9.709   5.370
 5731SOL    HW228848   5.202   9.625   5.296
 5732SOL     OW28849   0.248   4.216   7.257
 5732SOL    HW128850   0.162   4.251   7.293
 5732SOL    HW228851   0.243   4.116   7.250
 5733SOL     OW28852   0.585   6.653   5.139
 5733SOL    HW128853   0.495   6.613   5.156
 5733SOL    HW228854   0.588   6.745   5.177
 5734SOL     OW28855   0.260   0.183   3.604
 5734SOL    HW128856   0.184   0.232   3.562
 5734SOL    HW228857   0.245   0.176   3.702
 5735SOL     OW28858   5.608   2.796   4.636
 5735SOL    HW128859   5.530   2.858   4.630
 5735SOL    HW228860   5.688   2.839   4.595
 5736SOL     OW28861   8.939   1.155   3.826
 5736SOL    HW128862   8.984   1.078   3.780
 5736SOL    HW228863   8.897   1.215   3.757
 5737SOL     OW28864   9.234   7.932   6.731
 5737SOL    HW128865   9.186   7.995   6.793
 5737SOL    HW228866   9.282   7.985   6.661
 5738SOL     OW28867   2.333   7.521   1.315
 5738SOL    HW128868   2.301   7.604   1.270
 5738SOL    HW228869   2.417   7.539   1.365
 5739SOL     OW28870   1.931   6.139   4.715
 5739SOL    HW128871   2.012   6.127   4.773
 5739SOL    HW228872   1.867   6.065   4.732
 5740SOL     OW28873   8.472   1.547   2.254
 5740SOL    HW128874   8.488   1.584   2.162
 5740SOL    HW228875   8.444   1.620   2.315
 5741SOL     OW28876   5.090   8.319   2.929
 5741SOL    HW128877   5.173   8.271   2.958
 5741SOL    HW228878   5.043   8.265   2.860
 5742SOL     OW28879   5.308   5.369   7.740
 5742SOL    HW128880   5.397   5.376   7.785
 5742SOL    HW228881   5.260   5.287   7.773
 5743SOL     OW28882   5.048   9.803   5.923
 5743SOL    HW128883   4.976   9.852   5.873
 5743SOL    HW228884   5.137   9.832   5.890
 5744SOL     OW28885   3.426   3.931   7.349
 5744SOL    HW128886   3.454   3.935   7.445
 5744SOL    HW228887   3.502   3.895   7.294
 5745SOL     OW28888   3.813   0.465   1.768
 5745SOL    HW128889   3.798   0.391   1.702
 5745SOL    HW228890   3.833   0.426   1.857
 5746SOL     OW28891   0.955   6.945   3.673
 5746SOL    HW128892   0.973   6.859   3.625
 5746SOL    HW228893   0.856   6.963   3.675
 5747SOL     OW28894   7.235   1.772   2.361
 5747SOL    HW128895   7.218   1.836   2.286
 5747SOL    HW228896   7.165   1.700   2.359
 5748SOL     OW28897   6.854   0.118   7.903
 5748SOL    HW128898   6.896   0.147   7.817
 5748SOL    HW228899   6.756   0.106   7.889
 5749SOL     OW28900   0.329   4.409   5.428
 5749SOL    HW128901   0.404   4.395   5.363
 5749SOL    HW228902   0.364   4.397   5.521
 5750SOL     OW28903   5.433   7.787   5.512
 5750SOL    HW128904   5.367   7.862   5.509
 5750SOL    HW228905   5.499   7.805   5.586
 5751SOL     OW28906   3.298   3.357   1.678
 5751SOL    HW128907   3.198   3.361   1.667
 5751SOL    HW228908   3.337   3.300   1.607
 5752SOL     OW28909   9.027   9.515   3.657
 5752SOL    HW128910   8.953   9.486   3.596
 5752SOL    HW228911   8.988   9.545   3.744
 5753SOL     OW28912   3.813   1.593   4.861
 5753SOL    HW128913   3.911   1.593   4.877
 5753SOL    HW228914   3.765   1.588   4.949
 5754SOL     OW28915   9.281   8.989   6.726
 5754SOL    HW128916   9.207   8.990   6.659
 5754SOL    HW228917   9.245   8.958   6.814
 5755SOL     OW28918   1.816   3.965   3.753
 5755SOL    HW128919   1.885   3.892   3.744
 5755SOL    HW228920   1.773   3.958   3.843
 5756SOL     OW28921   8.968   0.628   0.644
 5756SOL    HW128922   8.994   0.684   0.565
 5756SOL    HW228923   8.978   0.532   0.620
 5757SOL     OW28924   9.578   8.917   4.967
 5757SOL    HW128925   9.554   8.824   4.939
 5757SOL    HW228926   9.510   8.952   5.031
 5758SOL     OW28927   5.730   2.417   1.289
 5758SOL    HW128928   5.762   2.454   1.201
 5758SOL    HW228929   5.630   2.420   1.292
 5759SOL     OW28930   2.210   1.779   0.497
 5759SOL    HW128931   2.133   1.819   0.546
 5759SOL    HW228932   2.177   1.736   0.413
 5760SOL     OW28933   9.952   7.657   1.168
 5760SOL    HW128934   9.977   7.674   1.263
 5760SOL    HW228935   0.017   7.595   1.126
 5761SOL     OW28936   8.492   5.051   4.357
 5761SOL    HW128937   8.525   5.145   4.358
 5761SOL    HW228938   8.504   5.013   4.265
 5762SOL     OW28939   2.911   0.794   6.974
 5762SOL    HW128940   2.882   0.879   6.930
 5762SOL    HW228941   2.880   0.716   6.921
 5763SOL     OW28942   6.018   6.133   1.524
 5763SOL    HW128943   6.026   6.061   1.455
 5763SOL    HW228944   6.040   6.221   1.483
 5764SOL     OW28945   1.248   4.236   4.812
 5764SOL    HW128946   1.309   4.271   4.884
 5764SOL    HW228947   1.176   4.180   4.854
 5765SOL     OW28948   5.171   9.333   4.476
 5765SOL    HW128949   5.161   9.411   4.414
 5765SOL    HW228950   5.147   9.361   4.569
 5766SOL     OW28951   2.188   9.838   7.760
 5766SOL    HW128952   2.186   9.858   7.662
 5766SOL    HW228953   2.281   9.815   7.788
 5767SOL     OW28954   4.241   8.670   6.021
 5767SOL    HW128955   4.296   8.597   6.060
 5767SOL    HW228956   4.229   8.743   6.089
 5768SOL     OW28957   3.233   0.093   4.137
 5768SOL    HW128958   3.331   0.076   4.134
 5768SOL    HW228959   3.215   0.189   4.116
 5769SOL     OW28960   0.057   2.806   2.600
 5769SOL    HW128961   0.128   2.875   2.617
 5769SOL    HW228962   0.041   2.799   2.502
 5770SOL     OW28963   8.907   8.560   3.226
 5770SOL    HW128964   8.823   8.614   3.235
 5770SOL    HW228965   8.970   8.586   3.299
 5771SOL     OW28966   9.860   9.185   5.990
 5771SOL    HW128967   9.820   9.262   6.040
 5771SOL    HW228968   9.790   9.117   5.971
 5772SOL     OW28969   1.481   1.995   0.506
 5772SOL    HW128970   1.564   1.940   0.498
 5772SOL    HW228971   1.405   1.937   0.533
 5773SOL     OW28972   3.068   2.050   1.098
 5773SOL    HW128973   3.128   2.036   1.177
 5773SOL    HW228974   3.054   2.148   1.084
 5774SOL     OW28975   7.264   8.604   2.150
 5774SOL    HW128976   7.267   8.507   2.171
 5774SOL    HW228977   7.352   8.646   2.173
 5775SOL     OW28978   8.727   5.989   0.955
 5775SOL    HW128979   8.661   6.057   0.988
 5775SOL    HW228980   8.721   5.908   1.013
 5776SOL     OW28981   2.602   1.612   5.461
 5776SOL    HW128982   2.529   1.649   5.520
 5776SOL    HW228983   2.671   1.683   5.446
 5777SOL     OW28984   7.588   9.220   2.972
 5777SOL    HW128985   7.546   9.292   2.917
 5777SOL    HW228986   7.519   9.178   3.031
 5778SOL     OW28987   2.343   3.445   4.612
 5778SOL    HW128988   2.391   3.375   4.665
 5778SOL    HW228989   2.259   3.471   4.660
 5779SOL     OW28990   0.887   1.271   5.861
 5779SOL    HW128991   0.867   1.361   5.900
 5779SOL    HW228992   0.812   1.208   5.881
 5780SOL     OW28993   9.514   2.538   1.703
 5780SOL    HW128994   9.452   2.585   1.766
 5780SOL    HW228995   9.512   2.440   1.722
 5781SOL     OW28996   1.847   9.678   5.214
 5781SOL    HW128997   1.833   9.623   5.297
 5781SOL    HW228998   1.945   9.696   5.203
 5782SOL     OW28999   0.696   1.816   3.823
 5782SOL    HW129000   0.745   1.836   3.738
 5782SOL    HW229001   0.670   1.901   3.868
 5783SOL     OW29002   4.222   0.088   4.427
 5783SOL    HW129003   4.139   0.138   4.451
 5783SOL    HW229004   4.212   9.993   4.454
 5784SOL     OW29005   9.275   1.415   5.649
 5784SOL    HW129006   9.298   1.401   5.553
 5784SOL    HW229007   9.206   1.348   5.677
 5785SOL     OW29008   3.051   8.318   2.745
 5785SOL    HW129009   2.975   8.310   2.682
 5785SOL    HW229010   3.045   8.246   2.814
 5786SOL     OW29011   4.371   2.963   1.883
 5786SOL    HW129012   4.329   2.988   1.795
 5786SOL    HW229013   4.299   2.958   1.953
 5787SOL     OW29014   6.218   8.507   6.527
 5787SOL    HW129015   6.268   8.486   6.610
 5787SOL    HW229016   6.272   8.570   6.470
 5788SOL     OW29017   0.921   2.634   7.121
 5788SOL    HW129018   0.836   2.626   7.173
 5788SOL    HW229019   0.899   2.658   7.026
 5789SOL     OW29020   0.107   5.833   1.102
 5789SOL    HW129021   0.167   5.839   1.022
 5789SOL    HW229022   0.061   5.921   1.116
 5790SOL     OW29023   2.065   4.894   5.695
 5790SOL    HW129024   2.045   4.893   5.793
 5790SOL    HW229025   2.043   4.804   5.656
 5791SOL     OW29026   6.599   5.299   1.536
 5791SOL    HW129027   6.627   5.383   1.489
 5791SOL    HW229028   6.535   5.248   1.478
 5792SOL     OW29029   0.156   6.395   5.937
 5792SOL    HW129030   0.154   6.301   5.970
 5792SOL    HW229031   0.249   6.430   5.941
 5793SOL     OW29032   5.207   5.135   2.350
 5793SOL    HW129033   5.255   5.211   2.393
 5793SOL    HW229034   5.273   5.067   2.319
 5794SOL     OW29035   8.558   1.379   7.838
 5794SOL    HW129036   8.578   1.430   7.754
 5794SOL    HW229037   8.616   1.299   7.844
 5795SOL     OW29038   3.396   6.077   5.131
 5795SOL    HW129039   3.387   6.033   5.220
 5795SOL    HW229040   3.473   6.141   5.133
 5796SOL     OW29041   1.413   9.332   2.936
 5796SOL    HW129042   1.467   9.264   2.985
 5796SOL    HW229043   1.382   9.294   2.848
 5797SOL     OW29044   4.440   3.989   7.758
 5797SOL    HW129045   4.454   4.047   7.678
 5797SOL    HW229046   4.488   3.902   7.745
 5798SOL     OW29047   9.805   1.871   3.655
 5798SOL    HW129048   9.717   1.918   3.663
 5798SOL    HW229049   9.837   1.878   3.560
 5799SOL     OW29050   6.893   5.384   2.154
 5799SOL    HW129051   6.951   5.390   2.236
 5799SOL    HW229052   6.931   5.442   2.082
 5800SOL     OW29053   0.995   6.133   0.993
 5800SOL    HW129054   1.083   6.164   1.027
 5800SOL    HW229055   0.958   6.062   1.052
 5801SOL     OW29056   7.389   2.286   1.932
 5801SOL    HW129057   7.430   2.204   1.892
 5801SOL    HW229058   7.407   2.288   2.031
 5802SOL     OW29059   1.227   2.020   2.955
 5802SOL    HW129060   1.284   1.938   2.954
 5802SOL    HW229061   1.132   1.994   2.971
 5803SOL     OW29062   7.111   6.617   6.149
 5803SOL    HW129063   7.130   6.665   6.234
 5803SOL    HW229064   7.069   6.681   6.084
 5804SOL     OW29065   0.574   1.867   5.939
 5804SOL    HW129066   0.612   1.851   5.849
 5804SOL    HW229067   0.503   1.799   5.958
 5805SOL     OW29068   3.802   1.249   5.468
 5805SOL    HW129069   3.874   1.180   5.460
 5805SOL    HW229070   3.841   1.340   5.456
 5806SOL     OW29071   6.142   1.006   1.743
 5806SOL    HW129072   6.113   0.919   1.782
 5806SOL    HW229073   6.087   1.080   1.782
 5807SOL     OW29074   0.403   9.657   1.218
 5807SOL    HW129075   0.495   9.617   1.220
 5807SOL    HW229076   0.384   9.700   1.307
 5808SOL     OW29077   1.727   8.814   6.086
 5808SOL    HW129078   1.689   8.811   6.179
 5808SOL    HW229079   1.816   8.769   6.085
 5809SOL     OW29080   8.543   1.971   1.183
 5809SOL    HW129081   8.573   1.893   1.129
 5809SOL    HW229082   8.447   1.991   1.162
 5810SOL     OW29083   9.400   9.008   7.738
 5810SOL    HW129084   9.365   8.976   7.650
 5810SOL    HW229085   9.327   9.057   7.787
 5811SOL     OW29086   7.942   8.184   7.441
 5811SOL    HW129087   7.988   8.260   7.395
 5811SOL    HW229088   7.869   8.150   7.383
 5812SOL     OW29089   2.246   0.226   3.868
 5812SOL    HW129090   2.277   0.256   3.958
 5812SOL    HW229091   2.154   0.188   3.875
 5813SOL     OW29092   8.578   5.602   7.342
 5813SOL    HW129093   8.542   5.593   7.249
 5813SOL    HW229094   8.653   5.537   7.355
 5814SOL     OW29095   2.004   9.168   6.369
 5814SOL    HW129096   1.962   9.162   6.278
 5814SOL    HW229097   2.098   9.133   6.364
 5815SOL     OW29098   9.432   3.115   7.360
 5815SOL    HW129099   9.338   3.144   7.377
 5815SOL    HW229100   9.457   3.043   7.424
 5816SOL     OW29101   3.735   3.604   0.547
 5816SOL    HW129102   3.746   3.685   0.604
 5816SOL    HW229103   3.654   3.553   0.576
 5817SOL     OW29104   0.458   9.355   3.704
 5817SOL    HW129105   0.460   9.259   3.734
 5817SOL    HW229106   0.549   9.383   3.675
 5818SOL     OW29107   3.999   0.712   0.718
 5818SOL    HW129108   3.979   0.762   0.802
 5818SOL    HW229109   4.097   0.693   0.712
 5819SOL     OW29110   4.980   6.536   1.811
 5819SOL    HW129111   5.049   6.520   1.741
 5819SOL    HW229112   4.965   6.452   1.863
 5820SOL     OW29113   5.416   7.215   2.583
 5820SOL    HW129114   5.375   7.301   2.614
 5820SOL    HW229115   5.397   7.143   2.650
 5821SOL     OW29116   2.046   1.888   2.974
 5821SOL    HW129117   2.020   1.794   2.993
 5821SOL    HW229118   2.146   1.895   2.967
 5822SOL     OW29119   3.656   4.904   3.272
 5822SOL    HW129120   3.581   4.842   3.298
 5822SOL    HW229121   3.705   4.866   3.194
 5823SOL     OW29122   0.975   4.284   2.064
 5823SOL    HW129123   0.932   4.240   1.986
 5823SOL    HW229124   1.074   4.273   2.058
 5824SOL     OW29125   1.909   9.769   5.564
 5824SOL    HW129126   1.937   9.799   5.655
 5824SOL    HW229127   1.811   9.749   5.563
 5825SOL     OW29128   0.245   1.266   6.798
 5825SOL    HW129129   0.249   1.195   6.727
 5825SOL    HW229130   0.150   1.277   6.828
 5826SOL     OW29131   6.589   1.860   0.635
 5826SOL    HW129132   6.558   1.914   0.556
 5826SOL    HW229133   6.542   1.771   0.634
 5827SOL     OW29134   5.806   7.903   5.445
 5827SOL    HW129135   5.821   7.950   5.358
 5827SOL    HW229136   5.869   7.939   5.514
 5828SOL     OW29137   5.732   9.741   2.561
 5828SOL    HW129138   5.760   9.836   2.565
 5828SOL    HW229139   5.644   9.730   2.605
 5829SOL     OW29140   7.691   0.572   2.007
 5829SOL    HW129141   7.700   0.640   1.934
 5829SOL    HW229142   7.696   0.480   1.968
 5830SOL     OW29143   1.441   6.159   4.298
 5830SOL    HW129144   1.410   6.096   4.368
 5830SOL    HW229145   1.363   6.196   4.248
 5831SOL     OW29146   9.626   1.351   0.547
 5831SOL    HW129147   9.661   1.331   0.639
 5831SOL    HW229148   9.538   1.399   0.554
 5832SOL     OW29149   6.900   1.003   7.118
 5832SOL    HW129150   6.897   0.925   7.056
 5832SOL    HW229151   6.975   1.064   7.091
 5833SOL     OW29152   7.716   4.011   3.219
 5833SOL    HW129153   7.741   4.067   3.299
 5833SOL    HW229154   7.695   3.918   3.249
 5834SOL     OW29155   6.686   1.353   5.683
 5834SOL    HW129156   6.705   1.313   5.773
 5834SOL    HW229157   6.594   1.394   5.683
 5835SOL     OW29158   0.158   3.314   0.866
 5835SOL    HW129159   0.161   3.216   0.847
 5835SOL    HW229160   0.064   3.347   0.854
 5836SOL     OW29161   7.972   1.849   2.335
 5836SOL    HW129162   7.957   1.892   2.245
 5836SOL    HW229163   7.922   1.763   2.338
 5837SOL     OW29164   9.667   2.682   4.692
 5837SOL    HW129165   9.657   2.588   4.662
 5837SOL    HW229166   9.589   2.707   4.749
 5838SOL     OW29167   6.480   7.886   6.579
 5838SOL    HW129168   6.425   7.969   6.582
 5838SOL    HW229169   6.509   7.861   6.672
 5839SOL     OW29170   2.846   3.543   1.587
 5839SOL    HW129171   2.920   3.590   1.539
 5839SOL    HW229172   2.793   3.609   1.640
 5840SOL     OW29173   3.614   0.180   7.786
 5840SOL    HW129174   3.521   0.146   7.780
 5840SOL    HW229175   3.614   0.279   7.772
 5841SOL     OW29176   6.092   1.689   4.397
 5841SOL    HW129177   6.077   1.766   4.334
 5841SOL    HW229178   6.159   1.716   4.467
 5842SOL     OW29179   0.781   9.758   4.276
 5842SOL    HW129180   0.847   9.819   4.320
 5842SOL    HW229181   0.817   9.665   4.274
 5843SOL     OW29182   1.052   7.383   6.557
 5843SOL    HW129183   1.047   7.283   6.561
 5843SOL    HW229184   0.961   7.421   6.542
 5844SOL     OW29185   5.439   9.297   3.011
 5844SOL    HW129186   5.437   9.204   2.975
 5844SOL    HW229187   5.529   9.316   3.049
 5845SOL     OW29188   3.581   0.562   6.544
 5845SOL    HW129189   3.545   0.614   6.622
 5845SOL    HW229190   3.506   0.540   6.481
 5846SOL     OW29191   8.064   1.364   5.548
 5846SOL    HW129192   7.979   1.312   5.553
 5846SOL    HW229193   8.050   1.445   5.490
 5847SOL     OW29194   9.764   6.833   2.189
 5847SOL    HW129195   9.726   6.924   2.176
 5847SOL    HW229196   9.798   6.798   2.102
 5848SOL     OW29197   9.611   6.047   2.361
 5848SOL    HW129198   9.516   6.038   2.389
 5848SOL    HW229199   9.618   6.039   2.261
 5849SOL     OW29200   0.282   4.561   7.395
 5849SOL    HW129201   0.379   4.585   7.396
 5849SOL    HW229202   0.243   4.581   7.305
 5850SOL     OW29203   9.477   8.845   4.244
 5850SOL    HW129204   9.396   8.799   4.281
 5850SOL    HW229205   9.534   8.876   4.320
 5851SOL     OW29206   0.827   9.773   5.141
 5851SOL    HW129207   0.736   9.764   5.099
 5851SOL    HW229208   0.864   9.683   5.161
 5852SOL     OW29209   6.266   0.256   4.293
 5852SOL    HW129210   6.259   0.303   4.381
 5852SOL    HW229211   6.358   0.221   4.281
 5853SOL     OW29212   9.307   0.527   4.451
 5853SOL    HW129213   9.310   0.502   4.548
 5853SOL    HW229214   9.277   0.448   4.398
 5854SOL     OW29215   0.924   7.965   4.445
 5854SOL    HW129216   0.831   7.942   4.472
 5854SOL    HW229217   0.978   7.882   4.435
 5855SOL     OW29218   9.331   7.301   1.839
 5855SOL    HW129219   9.336   7.389   1.793
 5855SOL    HW229220   9.285   7.311   1.927
 5856SOL     OW29221   1.447   9.091   6.697
 5856SOL    HW129222   1.368   9.037   6.668
 5856SOL    HW229223   1.529   9.055   6.654
 5857SOL     OW29224   2.409   0.098   5.854
 5857SOL    HW129225   2.383   0.170   5.790
 5857SOL    HW229226   2.369   0.117   5.944
 5858SOL     OW29227   4.823   5.372   1.238
 5858SOL    HW129228   4.847   5.344   1.331
 5858SOL    HW229229   4.753   5.310   1.202
 5859SOL     OW29230   2.923   5.834   0.290
 5859SOL    HW129231   2.997   5.808   0.228
 5859SOL    HW229232   2.910   5.933   0.287
 5860SOL     OW29233   8.154   5.275   6.978
 5860SOL    HW129234   8.160   5.351   6.912
 5860SOL    HW229235   8.061   5.240   6.980
 5861SOL     OW29236   0.377   3.432   7.560
 5861SOL    HW129237   0.366   3.379   7.476
 5861SOL    HW229238   0.471   3.464   7.567
 5862SOL     OW29239   3.444   3.419   2.883
 5862SOL    HW129240   3.469   3.506   2.925
 5862SOL    HW229241   3.501   3.346   2.922
 5863SOL     OW29242   0.819   3.991   4.450
 5863SOL    HW129243   0.780   3.959   4.537
 5863SOL    HW229244   0.781   4.081   4.428
 5864SOL     OW29245   2.787   4.667   4.377
 5864SOL    HW129246   2.883   4.641   4.369
 5864SOL    HW229247   2.738   4.641   4.294
 5865SOL     OW29248   8.854   6.621   1.474
 5865SOL    HW129249   8.857   6.522   1.480
 5865SOL    HW229250   8.891   6.662   1.557
 5866SOL     OW29251   6.919   3.618   0.550
 5866SOL    HW129252   6.872   3.701   0.581
 5866SOL    HW229253   6.884   3.592   0.460
 5867SOL     OW29254   7.518   0.431   6.724
 5867SOL    HW129255   7.581   0.412   6.799
 5867SOL    HW229256   7.544   0.517   6.679
 5868SOL     OW29257   8.249   8.839   0.762
 5868SOL    HW129258   8.274   8.893   0.843
 5868SOL    HW229259   8.269   8.742   0.779
 5869SOL     OW29260   8.731   5.482   1.180
 5869SOL    HW129261   8.635   5.486   1.153
 5869SOL    HW229262   8.787   5.452   1.103
 5870SOL     OW29263   8.342   7.163   1.299
 5870SOL    HW129264   8.398   7.148   1.218
 5870SOL    HW229265   8.382   7.235   1.355
 5871SOL     OW29266   4.295   8.456   7.441
 5871SOL    HW129267   4.284   8.486   7.346
 5871SOL    HW229268   4.218   8.397   7.466
 5872SOL     OW29269   8.299   7.709   5.296
 5872SOL    HW129270   8.285   7.781   5.228
 5872SOL    HW229271   8.233   7.720   5.370
 5873SOL     OW29272   7.360   8.687   3.791
 5873SOL    HW129273   7.271   8.680   3.747
 5873SOL    HW229274   7.376   8.607   3.848
 5874SOL     OW29275   8.544   2.145   0.445
 5874SOL    HW129276   8.457   2.139   0.396
 5874SOL    HW229277   8.529   2.119   0.541
 5875SOL     OW29278   3.277   8.303   4.627
 5875SOL    HW129279   3.268   8.324   4.530
 5875SOL    HW229280   3.360   8.346   4.663
 5876SOL     OW29281   2.567   9.312   1.105
 5876SOL    HW129282   2.654   9.309   1.056
 5876SOL    HW229283   2.585   9.322   1.203
 5877SOL     OW29284   3.154   0.389   0.632
 5877SOL    HW129285   3.154   0.352   0.725
 5877SOL    HW229286   3.061   0.383   0.594
 5878SOL     OW29287   8.628   4.124   1.282
 5878SOL    HW129288   8.579   4.043   1.252
 5878SOL    HW229289   8.713   4.096   1.327
 5879SOL     OW29290   6.596   0.426   5.498
 5879SOL    HW129291   6.540   0.343   5.491
 5879SOL    HW229292   6.598   0.471   5.408
 5880SOL     OW29293   0.414   4.633   5.754
 5880SOL    HW129294   0.390   4.630   5.851
 5880SOL    HW229295   0.405   4.542   5.714
 5881SOL     OW29296   9.223   3.205   5.279
 5881SOL    HW129297   9.199   3.137   5.210
 5881SOL    HW229298   9.275   3.162   5.352
 5882SOL     OW29299   4.263   3.265   5.871
 5882SOL    HW129300   4.320   3.346   5.857
 5882SOL    HW229301   4.286   3.196   5.803
 5883SOL     OW29302   2.840   3.498   2.130
 5883SOL    HW129303   2.876   3.569   2.070
 5883SOL    HW229304   2.759   3.533   2.178
 5884SOL     OW29305   8.383   6.166   0.698
 5884SOL    HW129306   8.378   6.104   0.776
 5884SOL    HW229307   8.294   6.168   0.652
 5885SOL     OW29308   3.187   0.835   6.943
 5885SOL    HW129309   3.214   0.924   6.906
 5885SOL    HW229310   3.088   0.834   6.959
 5886SOL     OW29311   9.191   1.672   5.682
 5886SOL    HW129312   9.141   1.695   5.598
 5886SOL    HW229313   9.223   1.577   5.676
 5887SOL     OW29314   1.697   0.206   2.060
 5887SOL    HW129315   1.785   0.226   2.104
 5887SOL    HW229316   1.635   0.165   2.127
 5888SOL     OW29317   1.844   3.470   6.012
 5888SOL    HW129318   1.771   3.402   6.008
 5888SOL    HW229319   1.811   3.553   6.056
 5889SOL     OW29320   2.510   2.706   6.447
 5889SOL    HW129321   2.483   2.790   6.401
 5889SOL    HW229322   2.437   2.675   6.507
 5890SOL     OW29323   0.905   5.925   6.064
 5890SOL    HW129324   0.914   5.952   5.968
 5890SOL    HW229325   0.928   5.828   6.073
 5891SOL     OW29326   0.629   5.232   1.365
 5891SOL    HW129327   0.652   5.284   1.447
 5891SOL    HW229328   0.661   5.282   1.284
 5892SOL     OW29329   7.236   2.768   2.598
 5892SOL    HW129330   7.305   2.834   2.567
 5892SOL    HW229331   7.244   2.756   2.697
 5893SOL     OW29332   3.621   8.926   7.558
 5893SOL    HW129333   3.538   8.962   7.516
 5893SOL    HW229334   3.643   8.837   7.517
 5894SOL     OW29335   1.199   5.654   3.439
 5894SOL    HW129336   1.172   5.656   3.535
 5894SOL    HW229337   1.126   5.612   3.385
 5895SOL     OW29338   3.015   5.525   0.477
 5895SOL    HW129339   2.935   5.584   0.491
 5895SOL    HW229340   3.038   5.523   0.380
 5896SOL     OW29341   5.833   3.908   2.653
 5896SOL    HW129342   5.843   3.851   2.572
 5896SOL    HW229343   5.906   3.886   2.718
 5897SOL     OW29344   1.864   1.540   3.905
 5897SOL    HW129345   1.962   1.518   3.909
 5897SOL    HW229346   1.852   1.639   3.896
 5898SOL     OW29347   2.747   7.467   2.654
 5898SOL    HW129348   2.771   7.378   2.692
 5898SOL    HW229349   2.828   7.509   2.613
 5899SOL     OW29350   8.465   0.302   0.482
 5899SOL    HW129351   8.415   0.296   0.568
 5899SOL    HW229352   8.443   0.224   0.425
 5900SOL     OW29353   9.141   9.020   4.996
 5900SOL    HW129354   9.046   9.013   5.027
 5900SOL    HW229355   9.159   9.113   4.964
 5901SOL     OW29356   1.457   8.201   4.635
 5901SOL    HW129357   1.522   8.125   4.637
 5901SOL    HW229358   1.413   8.204   4.545
 5902SOL     OW29359   4.483   3.507   6.885
 5902SOL    HW129360   4.580   3.523   6.903
 5902SOL    HW229361   4.460   3.413   6.909
 5903SOL     OW29362   8.141   0.823   5.200
 5903SOL    HW129363   8.100   0.795   5.114
 5903SOL    HW229364   8.241   0.819   5.194
 5904SOL     OW29365   2.409   9.633   5.716
 5904SOL    HW129366   2.507   9.650   5.720
 5904SOL    HW229367   2.385   9.597   5.625
 5905SOL     OW29368   4.108   4.941   3.348
 5905SOL    HW129369   4.194   4.963   3.395
 5905SOL    HW229370   4.061   5.025   3.323
 5906SOL     OW29371   0.666   1.340   7.116
 5906SOL    HW129372   0.702   1.419   7.065
 5906SOL    HW229373   0.589   1.301   7.066
 5907SOL     OW29374   7.715   5.141   3.893
 5907SOL    HW129375   7.740   5.147   3.796
 5907SOL    HW229376   7.677   5.229   3.922
 5908SOL     OW29377   9.415   3.566   3.637
 5908SOL    HW129378   9.332   3.518   3.610
 5908SOL    HW229379   9.427   3.647   3.579
 5909SOL     OW29380   4.524   7.896   3.094
 5909SOL    HW129381   4.534   7.857   3.002
 5909SOL    HW229382   4.589   7.972   3.104
 5910SOL     OW29383   8.920   0.274   2.110
 5910SOL    HW129384   8.870   0.209   2.052
 5910SOL    HW229385   8.855   0.323   2.168
 5911SOL     OW29386   9.381   3.714   6.690
 5911SOL    HW129387   9.423   3.803   6.668
 5911SOL    HW229388   9.287   3.729   6.723
 5912SOL     OW29389   7.032   8.195   4.531
 5912SOL    HW129390   7.062   8.150   4.447
 5912SOL    HW229391   7.111   8.232   4.579
 5913SOL     OW29392   4.057   1.574   3.688
 5913SOL    HW129393   3.999   1.492   3.700
 5913SOL    HW229394   4.127   1.555   3.620
 5914SOL     OW29395   4.824   0.220   3.163
 5914SOL    HW129396   4.742   0.268   3.132
 5914SOL    HW229397   4.812   0.191   3.258
 5915SOL     OW29398   0.547   8.293   2.521
 5915SOL    HW129399   0.532   8.263   2.427
 5915SOL    HW229400   0.459   8.305   2.566
 5916SOL     OW29401   3.782   5.870   5.400
 5916SOL    HW129402   3.750   5.927   5.476
 5916SOL    HW229403   3.834   5.792   5.436
 5917SOL     OW29404   3.820   3.774   0.922
 5917SOL    HW129405   3.750   3.730   0.978
 5917SOL    HW229406   3.839   3.865   0.959
 5918SOL     OW29407   6.477   8.915   6.956
 5918SOL    HW129408   6.546   8.860   6.909
 5918SOL    HW229409   6.518   8.999   6.989
 5919SOL     OW29410   4.609   5.313   2.384
 5919SOL    HW129411   4.626   5.307   2.483
 5919SOL    HW229412   4.696   5.319   2.336
 5920SOL     OW29413   6.345   5.339   1.189
 5920SOL    HW129414   6.430   5.364   1.143
 5920SOL    HW229415   6.298   5.422   1.218
 5921SOL     OW29416   8.871   5.825   3.111
 5921SOL    HW129417   8.937   5.816   3.036
 5921SOL    HW229418   8.908   5.781   3.193
 5922SOL     OW29419   2.815   1.966   1.220
 5922SOL    HW129420   2.837   1.934   1.312
 5922SOL    HW229421   2.899   1.994   1.173
 5923SOL     OW29422   5.908   1.273   4.222
 5923SOL    HW129423   5.861   1.200   4.172
 5923SOL    HW229424   5.858   1.293   4.306
 5924SOL     OW29425   5.258   8.203   1.316
 5924SOL    HW129426   5.349   8.171   1.290
 5924SOL    HW229427   5.227   8.154   1.397
 5925SOL     OW29428   2.036   6.514   7.447
 5925SOL    HW129429   1.968   6.444   7.472
 5925SOL    HW229430   1.992   6.583   7.390
 5926SOL     OW29431   4.575   3.761   1.778
 5926SOL    HW129432   4.670   3.772   1.749
 5926SOL    HW229433   4.516   3.762   1.698
 5927SOL     OW29434   1.384   2.872   5.802
 5927SOL    HW129435   1.331   2.787   5.805
 5927SOL    HW229436   1.445   2.871   5.723
 5928SOL     OW29437   9.810   6.372   7.577
 5928SOL    HW129438   9.888   6.412   7.626
 5928SOL    HW229439   9.837   6.285   7.536
 5929SOL     OW29440   9.225   3.699   2.394
 5929SOL    HW129441   9.150   3.711   2.459
 5929SOL    HW229442   9.310   3.730   2.437
 5930SOL     OW29443   1.739   7.405   5.625
 5930SOL    HW129444   1.799   7.326   5.618
 5930SOL    HW229445   1.658   7.382   5.678
 5931SOL     OW29446   3.625   5.506   1.278
 5931SOL    HW129447   3.711   5.525   1.230
 5931SOL    HW229448   3.579   5.428   1.235
 5932SOL     OW29449   7.591   6.735   1.688
 5932SOL    HW129450   7.572   6.644   1.723
 5932SOL    HW229451   7.513   6.767   1.633
 5933SOL     OW29452   0.763   0.312   1.185
 5933SOL    HW129453   0.749   0.249   1.261
 5933SOL    HW229454   0.859   0.338   1.180
 5934SOL     OW29455   8.509   4.151   6.611
 5934SOL    HW129456   8.480   4.088   6.683
 5934SOL    HW229457   8.428   4.187   6.565
 5935SOL     OW29458   6.962   0.897   4.016
 5935SOL    HW129459   6.894   0.960   3.979
 5935SOL    HW229460   7.050   0.915   3.972
 5936SOL     OW29461   3.947   4.882   3.952
 5936SOL    HW129462   3.897   4.832   4.023
 5936SOL    HW229463   3.909   4.860   3.863
 5937SOL     OW29464   8.793   9.400   5.684
 5937SOL    HW129465   8.790   9.305   5.716
 5937SOL    HW229466   8.831   9.403   5.592
 5938SOL     OW29467   1.325   8.645   7.736
 5938SOL    HW129468   1.350   8.692   7.651
 5938SOL    HW229469   1.391   8.669   7.808
 5939SOL     OW29470   3.540   3.261   7.134
 5939SOL    HW129471   3.516   3.312   7.217
 5939SOL    HW229472   3.472   3.280   7.063
 5940SOL     OW29473   0.965   8.537   3.166
 5940SOL    HW129474   0.924   8.597   3.234
 5940SOL    HW229475   0.893   8.491   3.114
 5941SOL     OW29476   8.659   3.000   6.778
 5941SOL    HW129477   8.600   3.007   6.698
 5941SOL    HW229478   8.732   3.068   6.771
 5942SOL     OW29479   3.109   5.776   0.090
 5942SOL    HW129480   3.189   5.835   0.102
 5942SOL    HW229481   3.071   5.790  10.081
 5943SOL     OW29482   8.874   0.060   1.432
 5943SOL    HW129483   8.780   0.065   1.466
 5943SOL    HW229484   8.931   0.123   1.484
 5944SOL     OW29485   3.766   3.835   5.461
 5944SOL    HW129486   3.765   3.846   5.560
 5944SOL    HW229487   3.751   3.924   5.418
 5945SOL     OW29488   6.481   9.253   1.736
 5945SOL    HW129489   6.551   9.310   1.779
 5945SOL    HW229490   6.427   9.309   1.673
 5946SOL     OW29491   0.961   1.946   3.001
 5946SOL    HW129492   0.890   2.016   3.005
 5946SOL    HW229493   0.962   1.894   3.086
 5947SOL     OW29494   6.677   7.180   3.329
 5947SOL    HW129495   6.616   7.259   3.336
 5947SOL    HW229496   6.699   7.163   3.233
 5948SOL     OW29497   7.252   8.332   2.189
 5948SOL    HW129498   7.247   8.266   2.264
 5948SOL    HW229499   7.181   8.312   2.121
 5949SOL     OW29500   2.230   1.559   2.434
 5949SOL    HW129501   2.263   1.528   2.345
 5949SOL    HW229502   2.269   1.502   2.506
 5950SOL     OW29503   5.977   8.796   1.660
 5950SOL    HW129504   5.891   8.846   1.669
 5950SOL    HW229505   6.054   8.859   1.670
 5951SOL     OW29506   5.030   2.993   1.807
 5951SOL    HW129507   4.980   2.951   1.731
 5951SOL    HW229508   5.116   2.944   1.820
 5952SOL     OW29509   5.198   2.317   7.435
 5952SOL    HW129510   5.263   2.247   7.464
 5952SOL    HW229511   5.162   2.365   7.515
 5953SOL     OW29512   7.295   9.633   5.197
 5953SOL    HW129513   7.236   9.601   5.123
 5953SOL    HW229514   7.241   9.642   5.281
 5954SOL     OW29515   2.242   5.444   3.485
 5954SOL    HW129516   2.204   5.452   3.392
 5954SOL    HW229517   2.256   5.535   3.523
 5955SOL     OW29518   2.846   3.310   7.268
 5955SOL    HW129519   2.936   3.268   7.273
 5955SOL    HW229520   2.835   3.373   7.345
 5956SOL     OW29521   1.882   9.143   6.126
 5956SOL    HW129522   1.803   9.190   6.087
 5956SOL    HW229523   1.907   9.067   6.067
 5957SOL     OW29524   8.525   7.425   3.683
 5957SOL    HW129525   8.593   7.387   3.745
 5957SOL    HW229526   8.483   7.352   3.629
 5958SOL     OW29527   9.016   0.378   7.069
 5958SOL    HW129528   8.945   0.437   7.030
 5958SOL    HW229529   9.017   0.291   7.019
 5959SOL     OW29530   0.438   0.780   5.634
 5959SOL    HW129531   0.518   0.728   5.603
 5959SOL    HW229532   0.355   0.731   5.610
 5960SOL     OW29533   3.689   1.769   4.702
 5960SOL    HW129534   3.734   1.699   4.758
 5960SOL    HW229535   3.714   1.756   4.606
 5961SOL     OW29536   8.963   1.361   5.641
 5961SOL    HW129537   8.966   1.439   5.703
 5961SOL    HW229538   8.872   1.318   5.647
 5962SOL     OW29539   7.854   6.493   4.693
 5962SOL    HW129540   7.785   6.431   4.656
 5962SOL    HW229541   7.875   6.564   4.625
 5963SOL     OW29542   9.786   7.182   6.182
 5963SOL    HW129543   9.742   7.184   6.271
 5963SOL    HW229544   9.773   7.092   6.140
 5964SOL     OW29545   3.156   5.427   1.953
 5964SOL    HW129546   3.181   5.514   1.912
 5964SOL    HW229547   3.084   5.384   1.898
 5965SOL     OW29548   1.215   6.941   4.579
 5965SOL    HW129549   1.128   6.966   4.536
 5965SOL    HW229550   1.254   6.861   4.533
 5966SOL     OW29551   9.126   7.131   3.861
 5966SOL    HW129552   9.163   7.040   3.845
 5966SOL    HW229553   9.158   7.194   3.791
 5967SOL     OW29554   1.131   6.801   2.498
 5967SOL    HW129555   1.118   6.787   2.400
 5967SOL    HW229556   1.043   6.823   2.540
 5968SOL     OW29557   9.928   7.077   6.534
 5968SOL    HW129558   9.907   7.015   6.459
 5968SOL    HW229559   9.993   7.146   6.503
 5969SOL     OW29560   4.351   9.611   1.473
 5969SOL    HW129561   4.444   9.593   1.505
 5969SOL    HW229562   4.328   9.706   1.492
 5970SOL     OW29563   8.686   6.065   7.455
 5970SOL    HW129564   8.688   5.965   7.464
 5970SOL    HW229565   8.771   6.103   7.490
 5971SOL     OW29566   3.534   5.787   5.635
 5971SOL    HW129567   3.471   5.787   5.713
 5971SOL    HW229568   3.586   5.872   5.633
 5972SOL     OW29569   6.838   5.530   1.624
 5972SOL    HW129570   6.768   5.500   1.689
 5972SOL    HW229571   6.801   5.528   1.532
 5973SOL     OW29572   6.387   7.772   6.339
 5973SOL    HW129573   6.413   7.815   6.426
 5973SOL    HW229574   6.470   7.752   6.286
 5974SOL     OW29575   3.986   7.066   3.682
 5974SOL    HW129576   3.994   7.164   3.693
 5974SOL    HW229577   3.909   7.032   3.736
 5975SOL     OW29578   7.727   0.947   1.231
 5975SOL    HW129579   7.800   0.989   1.284
 5975SOL    HW229580   7.652   1.012   1.221
 5976SOL     OW29581   9.562   9.698   1.368
 5976SOL    HW129582   9.507   9.640   1.308
 5976SOL    HW229583   9.652   9.656   1.381
 5977SOL     OW29584   4.062   3.088   4.138
 5977SOL    HW129585   4.060   3.015   4.207
 5977SOL    HW229586   3.988   3.153   4.156
 5978SOL     OW29587   4.052   6.316   3.938
 5978SOL    HW129588   4.108   6.351   4.013
 5978SOL    HW229589   3.955   6.330   3.959
 5979SOL     OW29590   7.731   9.111   7.795
 5979SOL    HW129591   7.713   9.191   7.739
 5979SOL    HW229592   7.765   9.140   7.885
 5980SOL     OW29593   3.339   5.678   3.538
 5980SOL    HW129594   3.361   5.612   3.466
 5980SOL    HW229595   3.410   5.675   3.609
 5981SOL     OW29596   0.826   1.025   2.975
 5981SOL    HW129597   0.866   1.015   2.884
 5981SOL    HW229598   0.875   1.096   3.025
 5982SOL     OW29599   0.595   9.714   4.998
 5982SOL    HW129600   0.642   9.684   4.914
 5982SOL    HW229601   0.538   9.793   4.978
 5983SOL     OW29602   0.874   8.853   0.215
 5983SOL    HW129603   0.871   8.761   0.255
 5983SOL    HW229604   0.923   8.850   0.128
 5984SOL     OW29605   5.003   8.750   2.554
 5984SOL    HW129606   4.951   8.673   2.589
 5984SOL    HW229607   5.035   8.731   2.461
 5985SOL     OW29608   3.443   4.314   2.472
 5985SOL    HW129609   3.539   4.324   2.499
 5985SOL    HW229610   3.423   4.378   2.399
 5986SOL     OW29611   9.708   3.588   3.144
 5986SOL    HW129612   9.696   3.493   3.173
 5986SOL    HW229613   9.763   3.590   3.061
 5987SOL     OW29614   6.925   9.324   6.122
 5987SOL    HW129615   6.889   9.417   6.137
 5987SOL    HW229616   6.892   9.291   6.034
 5988SOL     OW29617   9.842   0.491   2.188
 5988SOL    HW129618   9.905   0.414   2.194
 5988SOL    HW229619   9.890   0.571   2.152
 5989SOL     OW29620   4.424   4.240   6.914
 5989SOL    HW129621   4.346   4.289   6.874
 5989SOL    HW229622   4.398   4.206   7.005
 5990SOL     OW29623   5.677   5.633   1.447
 5990SOL    HW129624   5.610   5.706   1.429
 5990SOL    HW229625   5.718   5.604   1.360
 5991SOL     OW29626   3.875   7.958   7.887
 5991SOL    HW129627   3.871   7.974   7.788
 5991SOL    HW229628   3.955   8.004   7.925
 5992SOL     OW29629   2.917   9.725   4.660
 5992SOL    HW129630   2.906   9.656   4.589
 5992SOL    HW229631   2.999   9.779   4.641
 5993SOL     OW29632   1.428   9.796   0.271
 5993SOL    HW129633   1.353   9.733   0.250
 5993SOL    HW229634   1.397   9.890   0.257
 5994SOL     OW29635   5.748   1.042   5.889
 5994SOL    HW129636   5.709   1.019   5.978
 5994SOL    HW229637   5.822   0.979   5.868
 5995SOL     OW29638   4.020   5.788   1.039
 5995SOL    HW129639   4.103   5.734   1.025
 5995SOL    HW229640   4.040   5.864   1.102
 5996SOL     OW29641   4.713   2.706   5.252
 5996SOL    HW129642   4.662   2.723   5.337
 5996SOL    HW229643   4.808   2.733   5.265
 5997SOL     OW29644   4.717   3.689   5.725
 5997SOL    HW129645   4.736   3.770   5.668
 5997SOL    HW229646   4.686   3.614   5.667
 5998SOL     OW29647   7.176   1.267   7.275
 5998SOL    HW129648   7.092   1.285   7.326
 5998SOL    HW229649   7.246   1.233   7.338
 5999SOL     OW29650   8.583   5.185   4.993
 5999SOL    HW129651   8.488   5.169   4.966
 5999SOL    HW229652   8.596   5.154   5.088
 6000SOL     OW29653   8.264   0.945   1.058
 6000SOL    HW129654   8.350   0.995   1.049
 6000SOL    HW229655   8.197   0.982   0.994
 6001SOL     OW29656   9.903   8.008   1.887
 6001SOL    HW129657   9.956   8.012   1.802
 6001SOL    HW229658   9.938   7.934   1.944
 6002SOL     OW29659   1.216   9.639   0.204
 6002SOL    HW129660   1.227   9.540   0.203
 6002SOL    HW229661   1.141   9.666   0.145
 6003SOL     OW29662   1.577   9.921   1.099
 6003SOL    HW129663   1.555   9.875   1.013
 6003SOL    HW229664   1.601   0.016   1.080
 6004SOL     OW29665   1.454   9.951   2.028
 6004SOL    HW129666   1.466   0.025   2.094
 6004SOL    HW229667   1.542   9.905   2.014
 6005SOL     OW29668   3.701   0.931   3.564
 6005SOL    HW129669   3.768   0.892   3.627
 6005SOL    HW229670   3.636   0.986   3.616
 6006SOL     OW29671   9.024   9.869   7.324
 6006SOL    HW129672   8.975   9.876   7.237
 6006SOL    HW229673   9.119   9.840   7.307
 6007SOL     OW29674   3.654   0.872   2.719
 6007SOL    HW129675   3.592   0.801   2.751
 6007SOL    HW229676   3.747   0.837   2.719
 6008SOL     OW29677   2.060   6.881   4.708
 6008SOL    HW129678   2.147   6.926   4.685
 6008SOL    HW229679   2.013   6.855   4.623
 6009SOL     OW29680   8.758   1.569   6.927
 6009SOL    HW129681   8.852   1.569   6.893
 6009SOL    HW229682   8.706   1.497   6.881
 6010SOL     OW29683   1.714   6.640   5.834
 6010SOL    HW129684   1.799   6.590   5.852
 6010SOL    HW229685   1.695   6.637   5.736
 6011SOL     OW29686   7.433   8.185   1.801
 6011SOL    HW129687   7.432   8.094   1.841
 6011SOL    HW229688   7.527   8.209   1.774
 6012SOL     OW29689   7.878   1.246   3.266
 6012SOL    HW129690   7.871   1.339   3.303
 6012SOL    HW229691   7.950   1.243   3.198
 6013SOL     OW29692   8.933   7.888   6.412
 6013SOL    HW129693   8.861   7.875   6.344
 6013SOL    HW229694   9.009   7.825   6.392
 6014SOL     OW29695   9.045   9.811   0.263
 6014SOL    HW129696   9.105   9.803   0.342
 6014SOL    HW229697   9.038   9.722   0.217
 6015SOL     OW29698   0.687   2.239   4.156
 6015SOL    HW129699   0.703   2.247   4.255
 6015SOL    HW229700   0.772   2.258   4.107
 6016SOL     OW29701   2.256   8.736   1.370
 6016SOL    HW129702   2.227   8.789   1.449
 6016SOL    HW229703   2.186   8.743   1.298
 6017SOL     OW29704   3.452   9.788   6.092
 6017SOL    HW129705   3.546   9.817   6.111
 6017SOL    HW229706   3.437   9.698   6.133
 6018SOL     OW29707   5.766   0.116   5.054
 6018SOL    HW129708   5.830   0.186   5.023
 6018SOL    HW229709   5.674   0.155   5.060
 6019SOL     OW29710   3.329   6.392   4.480
 6019SOL    HW129711   3.291   6.320   4.422
 6019SOL    HW229712   3.323   6.364   4.576
 6020SOL     OW29713   1.649   7.705   6.830
 6020SOL    HW129714   1.617   7.617   6.865
 6020SOL    HW229715   1.572   7.768   6.821
 6021SOL     OW29716   8.642   1.373   6.760
 6021SOL    HW129717   8.684   1.397   6.673
 6021SOL    HW229718   8.617   1.276   6.760
 6022SOL     OW29719   4.065   5.463   4.150
 6022SOL    HW129720   4.038   5.522   4.226
 6022SOL    HW229721   3.984   5.427   4.104
 6023SOL     OW29722   3.071   6.668   2.107
 6023SOL    HW129723   3.090   6.585   2.054
 6023SOL    HW229724   2.975   6.668   2.135
 6024SOL     OW29725   2.561   1.489   3.932
 6024SOL    HW129726   2.650   1.535   3.936
 6024SOL    HW229727   2.492   1.547   3.976
 6025SOL     OW29728   6.223   3.094   1.688
 6025SOL    HW129729   6.238   3.056   1.597
 6025SOL    HW229730   6.125   3.091   1.709
 6026SOL     OW29731   9.431   7.114   7.270
 6026SOL    HW129732   9.377   7.109   7.186
 6026SOL    HW229733   9.477   7.202   7.275
 6027SOL     OW29734   8.319   7.125   0.891
 6027SOL    HW129735   8.387   7.120   0.964
 6027SOL    HW229736   8.322   7.040   0.838
 6028SOL     OW29737   9.298   6.079   5.835
 6028SOL    HW129738   9.374   6.079   5.899
 6028SOL    HW229739   9.323   6.029   5.752
 6029SOL     OW29740   3.291   1.084   6.872
 6029SOL    HW129741   3.378   1.101   6.826
 6029SOL    HW229742   3.298   1.116   6.967
 6030SOL     OW29743   8.011   4.973   0.478
 6030SOL    HW129744   7.929   4.965   0.535
 6030SOL    HW229745   7.983   4.975   0.382
 6031SOL     OW29746   8.578   1.908   4.435
 6031SOL    HW129747   8.631   1.933   4.354
 6031SOL    HW229748   8.485   1.946   4.427
 6032SOL     OW29749   0.348   8.116   6.575
 6032SOL    HW129750   0.422   8.151   6.517
 6032SOL    HW229751   0.386   8.066   6.652
 6033SOL     OW29752   6.221   9.108   5.473
 6033SOL    HW129753   6.176   9.196   5.480
 6033SOL    HW229754   6.169   9.039   5.525
 6034SOL     OW29755   3.855   0.938   1.388
 6034SOL    HW129756   3.796   0.859   1.372
 6034SOL    HW229757   3.800   1.022   1.388
 6035SOL     OW29758   9.477   6.223   6.079
 6035SOL    HW129759   9.478   6.278   5.995
 6035SOL    HW229760   9.420   6.269   6.147
 6036SOL     OW29761   7.898   6.133   3.370
 6036SOL    HW129762   7.951   6.183   3.437
 6036SOL    HW229763   7.889   6.037   3.398
 6037SOL     OW29764   1.293   9.609   7.340
 6037SOL    HW129765   1.336   9.681   7.395
 6037SOL    HW229766   1.350   9.588   7.262
 6038SOL     OW29767   6.766   1.503   2.319
 6038SOL    HW129768   6.757   1.426   2.256
 6038SOL    HW229769   6.720   1.481   2.405
 6039SOL     OW29770   4.681   5.071   6.980
 6039SOL    HW129771   4.614   4.997   6.975
 6039SOL    HW229772   4.633   5.159   6.978
 6040SOL     OW29773   8.213   9.134   7.551
 6040SOL    HW129774   8.125   9.119   7.595
 6040SOL    HW229775   8.215   9.226   7.511
 6041SOL     OW29776   5.813   8.107   6.946
 6041SOL    HW129777   5.798   8.156   6.860
 6041SOL    HW229778   5.829   8.173   7.020
 6042SOL     OW29779   5.321   3.262   6.853
 6042SOL    HW129780   5.226   3.286   6.830
 6042SOL    HW229781   5.361   3.335   6.909
 6043SOL     OW29782   1.641   9.627   3.142
 6043SOL    HW129783   1.709   9.695   3.117
 6043SOL    HW229784   1.686   9.550   3.189
 6044SOL     OW29785   5.389   9.625   2.450
 6044SOL    HW129786   5.432   9.648   2.537
 6044SOL    HW229787   5.340   9.539   2.458
 6045SOL     OW29788   8.255   1.613   3.900
 6045SOL    HW129789   8.294   1.586   3.811
 6045SOL    HW229790   8.158   1.590   3.902
 6046SOL     OW29791   2.272   2.707   5.166
 6046SOL    HW129792   2.346   2.763   5.204
 6046SOL    HW229793   2.201   2.766   5.128
 6047SOL     OW29794   5.417   2.803   5.589
 6047SOL    HW129795   5.452   2.709   5.589
 6047SOL    HW229796   5.493   2.867   5.575
 6048SOL     OW29797   4.606   9.562   3.271
 6048SOL    HW129798   4.674   9.633   3.253
 6048SOL    HW229799   4.515   9.597   3.247
 6049SOL     OW29800   0.722   3.893   1.306
 6049SOL    HW129801   0.715   3.949   1.224
 6049SOL    HW229802   0.815   3.859   1.315
 6050SOL     OW29803   8.749   9.767   5.184
 6050SOL    HW129804   8.755   9.687   5.125
 6050SOL    HW229805   8.842   9.797   5.209
 6051SOL     OW29806   5.734   1.036   2.255
 6051SOL    HW129807   5.824   1.018   2.295
 6051SOL    HW229808   5.674   0.958   2.270
 6052SOL     OW29809   9.364   8.846   0.465
 6052SOL    HW129810   9.457   8.859   0.429
 6052SOL    HW229811   9.362   8.873   0.561
 6053SOL     OW29812   9.362   4.706   0.394
 6053SOL    HW129813   9.416   4.771   0.339
 6053SOL    HW229814   9.268   4.739   0.402
 6054SOL     OW29815   0.494   7.659   0.282
 6054SOL    HW129816   0.517   7.726   0.353
 6054SOL    HW229817   0.475   7.706   0.196
 6055SOL     OW29818   3.365   4.954   1.933
 6055SOL    HW129819   3.422   4.916   1.860
 6055SOL    HW229820   3.351   5.052   1.916
 6056SOL     OW29821   0.147   7.824   2.248
 6056SOL    HW129822   0.247   7.816   2.249
 6056SOL    HW229823   0.114   7.815   2.154
 6057SOL     OW29824   6.674   1.504   4.773
 6057SOL    HW129825   6.589   1.525   4.724
 6057SOL    HW229826   6.747   1.488   4.706
 6058SOL     OW29827   0.598   7.166   4.040
 6058SOL    HW129828   0.594   7.078   3.993
 6058SOL    HW229829   0.506   7.203   4.050
 6059SOL     OW29830   3.515   7.903   7.731
 6059SOL    HW129831   3.500   7.825   7.670
 6059SOL    HW229832   3.563   7.873   7.813
 6060SOL     OW29833   9.898   7.526   2.761
 6060SOL    HW129834   9.867   7.619   2.739
 6060SOL    HW229835   9.920   7.520   2.858
 6061SOL     OW29836   7.723   6.219   0.472
 6061SOL    HW129837   7.740   6.146   0.539
 6061SOL    HW229838   7.652   6.280   0.508
 6062SOL     OW29839   4.458   3.923   1.369
 6062SOL    HW129840   4.406   3.905   1.286
 6062SOL    HW229841   4.550   3.885   1.361
 6063SOL     OW29842   3.097   2.802   5.865
 6063SOL    HW129843   3.182   2.785   5.915
 6063SOL    HW229844   3.048   2.879   5.906
 6064SOL     OW29845   9.883   3.845   7.525
 6064SOL    HW129846   9.980   3.861   7.542
 6064SOL    HW229847   9.851   3.770   7.584
 6065SOL     OW29848   5.677   4.616   0.037
 6065SOL    HW129849   5.645   4.535   0.085
 6065SOL    HW229850   5.633   4.622  10.029
 6066SOL     OW29851   7.536   7.010   3.333
 6066SOL    HW129852   7.525   6.925   3.385
 6066SOL    HW229853   7.596   6.994   3.255
 6067SOL     OW29854   7.208   0.837   7.224
 6067SOL    HW129855   7.188   0.935   7.225
 6067SOL    HW229856   7.298   0.821   7.263
 6068SOL     OW29857   7.588   0.037   5.773
 6068SOL    HW129858   7.589   0.087   5.686
 6068SOL    HW229859   7.677   0.047   5.818
 6069SOL     OW29860   5.554   6.938   2.299
 6069SOL    HW129861   5.527   6.850   2.262
 6069SOL    HW229862   5.604   6.924   2.384
 6070SOL     OW29863   8.016   6.542   4.182
 6070SOL    HW129864   8.102   6.592   4.165
 6070SOL    HW229865   7.958   6.547   4.101
 6071SOL     OW29866   4.882   2.093   1.907
 6071SOL    HW129867   4.974   2.100   1.869
 6071SOL    HW229868   4.887   2.060   2.001
 6072SOL     OW29869   9.894   9.168   3.666
 6072SOL    HW129870   9.932   9.197   3.754
 6072SOL    HW229871   9.967   9.162   3.598
 6073SOL     OW29872   3.461   8.027   6.256
 6073SOL    HW129873   3.547   7.975   6.262
 6073SOL    HW229874   3.429   8.048   6.349
 6074SOL     OW29875   3.790   6.057   4.521
 6074SOL    HW129876   3.870   6.034   4.577
 6074SOL    HW229877   3.756   6.148   4.546
 6075SOL     OW29878   0.832   0.616   3.450
 6075SOL    HW129879   0.820   0.518   3.437
 6075SOL    HW229880   0.882   0.654   3.371
 6076SOL     OW29881   1.251   9.144   3.694
 6076SOL    HW129882   1.191   9.142   3.614
 6076SOL    HW229883   1.237   9.061   3.748
 6077SOL     OW29884   1.277   7.078   6.686
 6077SOL    HW129885   1.272   7.084   6.785
 6077SOL    HW229886   1.355   7.132   6.653
 6078SOL     OW29887   0.878   5.231   6.428
 6078SOL    HW129888   0.971   5.250   6.398
 6078SOL    HW229889   0.824   5.197   6.351
 6079SOL     OW29890   8.717   1.754   5.716
 6079SOL    HW129891   8.744   1.851   5.719
 6079SOL    HW229892   8.618   1.747   5.722
 6080SOL     OW29893   2.815   6.543   5.654
 6080SOL    HW129894   2.829   6.478   5.580
 6080SOL    HW229895   2.901   6.558   5.702
 6081SOL     OW29896   8.464   4.099   3.399
 6081SOL    HW129897   8.557   4.118   3.369
 6081SOL    HW229898   8.404   4.091   3.319
 6082SOL     OW29899   3.118   7.540   4.702
 6082SOL    HW129900   3.187   7.476   4.735
 6082SOL    HW229901   3.144   7.633   4.725
 6083SOL     OW29902   1.577   1.152   3.638
 6083SOL    HW129903   1.526   1.088   3.580
 6083SOL    HW229904   1.674   1.145   3.617
 6084SOL     OW29905   3.946   0.479   6.808
 6084SOL    HW129906   4.031   0.427   6.811
 6084SOL    HW229907   3.872   0.425   6.846
 6085SOL     OW29908   5.532   7.337   4.125
 6085SOL    HW129909   5.576   7.313   4.211
 6085SOL    HW229910   5.433   7.335   4.136
 6086SOL     OW29911   9.779   1.293   3.509
 6086SOL    HW129912   9.850   1.284   3.440
 6086SOL    HW229913   9.705   1.349   3.474
 6087SOL     OW29914   0.891   5.025   3.027
 6087SOL    HW129915   0.838   5.110   3.026
 6087SOL    HW229916   0.930   5.011   3.118
 6088SOL     OW29917   4.911   2.859   7.864
 6088SOL    HW129918   4.940   2.894   7.953
 6088SOL    HW229919   4.811   2.845   7.865
 6089SOL     OW29920   9.332   2.988   2.442
 6089SOL    HW129921   9.244   2.982   2.394
 6089SOL    HW229922   9.347   2.904   2.494
 6090SOL     OW29923   3.218   7.718   3.610
 6090SOL    HW129924   3.315   7.727   3.584
 6090SOL    HW229925   3.165   7.787   3.560
 6091SOL     OW29926   0.152   0.884   7.363
 6091SOL    HW129927   0.096   0.802   7.379
 6091SOL    HW229928   0.104   0.943   7.298
 6092SOL     OW29929   2.809   3.670   0.317
 6092SOL    HW129930   2.809   3.625   0.228
 6092SOL    HW229931   2.717   3.703   0.338
 6093SOL     OW29932   6.756   5.193   7.481
 6093SOL    HW129933   6.664   5.166   7.453
 6093SOL    HW229934   6.754   5.288   7.513
 6094SOL     OW29935   7.863   6.637   2.758
 6094SOL    HW129936   7.778   6.627   2.707
 6094SOL    HW229937   7.939   6.597   2.706
 6095SOL     OW29938   5.443   8.163   6.783
 6095SOL    HW129939   5.486   8.108   6.711
 6095SOL    HW229940   5.365   8.213   6.744
 6096SOL     OW29941   5.417   2.491   1.788
 6096SOL    HW129942   5.326   2.461   1.761
 6096SOL    HW229943   5.483   2.418   1.770
 6097SOL     OW29944   9.481   5.894   4.863
 6097SOL    HW129945   9.538   5.839   4.802
 6097SOL    HW229946   9.488   5.858   4.956
 6098SOL     OW29947   6.367   0.252   3.390
 6098SOL    HW129948   6.436   0.183   3.414
 6098SOL    HW229949   6.360   0.319   3.463
 6099SOL     OW29950   2.028   0.614   4.289
 6099SOL    HW129951   2.094   0.552   4.333
 6099SOL    HW229952   2.077   0.678   4.230
 6100SOL     OW29953   0.448   4.774   6.164
 6100SOL    HW129954   0.356   4.807   6.185
 6100SOL    HW229955   0.508   4.788   6.243
 6101SOL     OW29956   4.083   6.894   4.345
 6101SOL    HW129957   4.075   6.867   4.441
 6101SOL    HW229958   4.153   6.838   4.301
 6102SOL     OW29959   8.785   6.671   5.119
 6102SOL    HW129960   8.711   6.700   5.059
 6102SOL    HW229961   8.750   6.608   5.188
 6103SOL     OW29962   0.080   6.737   0.524
 6103SOL    HW129963   0.121   6.822   0.556
 6103SOL    HW229964   0.003   6.758   0.463
 6104SOL     OW29965   8.433   3.690   6.493
 6104SOL    HW129966   8.438   3.703   6.592
 6104SOL    HW229967   8.517   3.723   6.451
 6105SOL     OW29968   6.917   5.822   0.513
 6105SOL    HW129969   6.995   5.850   0.457
 6105SOL    HW229970   6.915   5.722   0.520
 6106SOL     OW29971   8.819   9.826   3.102
 6106SOL    HW129972   8.778   9.884   3.032
 6106SOL    HW229973   8.749   9.766   3.141
 6107SOL     OW29974   0.645   3.497   7.567
 6107SOL    HW129975   0.709   3.487   7.642
 6107SOL    HW229976   0.662   3.426   7.499
 6108SOL     OW29977   0.074   0.475   6.631
 6108SOL    HW129978   0.158   0.461   6.579
 6108SOL    HW229979   9.995   0.457   6.572
 6109SOL     OW29980   3.247   2.856   0.719
 6109SOL    HW129981   3.321   2.890   0.661
 6109SOL    HW229982   3.272   2.869   0.815
 6110SOL     OW29983   1.128   1.151   2.468
 6110SOL    HW129984   1.106   1.213   2.543
 6110SOL    HW229985   1.134   1.057   2.503
 6111SOL     OW29986   1.248   4.279   3.093
 6111SOL    HW129987   1.238   4.298   3.190
 6111SOL    HW229988   1.183   4.336   3.041
 6112SOL     OW29989   6.869   8.969   5.975
 6112SOL    HW129990   6.958   8.959   6.019
 6112SOL    HW229991   6.855   9.064   5.948
 6113SOL     OW29992   2.861   3.873   5.256
 6113SOL    HW129993   2.799   3.933   5.306
 6113SOL    HW229994   2.930   3.836   5.318
 6114SOL     OW29995   9.783   5.385   2.718
 6114SOL    HW129996   9.871   5.433   2.708
 6114SOL    HW229997   9.798   5.298   2.764
 6115SOL     OW29998   8.340   4.291   5.834
 6115SOL    HW129999   8.299   4.245   5.755
 6115SOL    HW230000   8.348   4.389   5.816
 6116SOL     OW30001   1.235   8.382   1.288
 6116SOL    HW130002   1.138   8.404   1.297
 6116SOL    HW230003   1.286   8.465   1.268
 6117SOL     OW30004   0.893   3.649   0.887
 6117SOL    HW130005   0.855   3.580   0.950
 6117SOL    HW230006   0.937   3.721   0.940
 6118SOL     OW30007   6.075   0.022   3.605
 6118SOL    HW130008   5.999   0.027   3.670
 6118SOL    HW230009   6.039   0.018   3.512
 6119SOL     OW30010   0.639   9.610   7.577
 6119SOL    HW130011   0.726   9.566   7.554
 6119SOL    HW230012   0.657   9.698   7.620
 6120SOL     OW30013   6.449   2.492   3.084
 6120SOL    HW130014   6.374   2.533   3.032
 6120SOL    HW230015   6.535   2.507   3.035
 6121SOL     OW30016   3.681   4.554   7.411
 6121SOL    HW130017   3.754   4.555   7.480
 6121SOL    HW230018   3.664   4.647   7.380
 6122SOL     OW30019   2.389   8.971   5.079
 6122SOL    HW130020   2.395   9.038   5.005
 6122SOL    HW230021   2.310   8.912   5.063
 6123SOL     OW30022   2.667   3.224   7.081
 6123SOL    HW130023   2.642   3.131   7.106
 6123SOL    HW230024   2.731   3.261   7.149
 6124SOL     OW30025   1.171   0.861   6.407
 6124SOL    HW130026   1.114   0.851   6.325
 6124SOL    HW230027   1.194   0.957   6.419
 6125SOL     OW30028   3.156   7.351   1.890
 6125SOL    HW130029   3.189   7.268   1.935
 6125SOL    HW230030   3.227   7.421   1.893
 6126SOL     OW30031   5.993   5.062   0.822
 6126SOL    HW130032   6.053   5.108   0.888
 6126SOL    HW230033   5.905   5.109   0.819
 6127SOL     OW30034   6.187   9.333   2.858
 6127SOL    HW130035   6.215   9.337   2.762
 6127SOL    HW230036   6.172   9.426   2.892
 6128SOL     OW30037   6.188   4.875   0.118
 6128SOL    HW130038   6.168   4.787   0.162
 6128SOL    HW230039   6.285   4.878   0.094
 6129SOL     OW30040   1.436   2.902   3.491
 6129SOL    HW130041   1.372   2.939   3.558
 6129SOL    HW230042   1.415   2.938   3.400
 6130SOL     OW30043   9.171   4.778   0.012
 6130SOL    HW130044   9.211   4.694   0.049
 6130SOL    HW230045   9.090   4.756  10.041
 6131SOL     OW30046   2.179   8.860   6.866
 6131SOL    HW130047   2.171   8.808   6.950
 6131SOL    HW230048   2.252   8.820   6.809
 6132SOL     OW30049   0.782   5.326   0.901
 6132SOL    HW130050   0.804   5.229   0.909
 6132SOL    HW230051   0.844   5.370   0.836
 6133SOL     OW30052   7.516   2.256   4.339
 6133SOL    HW130053   7.448   2.293   4.275
 6133SOL    HW230054   7.568   2.331   4.379
 6134SOL     OW30055   3.561   0.003   0.622
 6134SOL    HW130056   3.507   0.076   0.664
 6134SOL    HW230057   3.560   9.923   0.682
 6135SOL     OW30058   1.413   5.262   6.881
 6135SOL    HW130059   1.388   5.273   6.784
 6135SOL    HW230060   1.391   5.346   6.931
 6136SOL     OW30061   1.308   8.899   1.251
 6136SOL    HW130062   1.327   8.803   1.230
 6136SOL    HW230063   1.260   8.941   1.174
 6137SOL     OW30064   2.263   1.504   4.709
 6137SOL    HW130065   2.264   1.590   4.658
 6137SOL    HW230066   2.357   1.476   4.728
 6138SOL     OW30067   0.839   5.394   5.094
 6138SOL    HW130068   0.859   5.324   5.162
 6138SOL    HW230069   0.786   5.354   5.019
 6139SOL     OW30070   3.814   5.561   0.691
 6139SOL    HW130071   3.828   5.493   0.763
 6139SOL    HW230072   3.853   5.649   0.719
 6140SOL     OW30073   5.400   1.645   7.699
 6140SOL    HW130074   5.491   1.650   7.739
 6140SOL    HW230075   5.339   1.708   7.748
 6141SOL     OW30076   3.314   7.389   7.378
 6141SOL    HW130077   3.226   7.435   7.386
 6141SOL    HW230078   3.329   7.332   7.460
 6142SOL     OW30079   6.511   3.982   0.186
 6142SOL    HW130080   6.499   4.071   0.142
 6142SOL    HW230081   6.446   3.916   0.147
 6143SOL     OW30082   9.883   6.533   6.268
 6143SOL    HW130083   9.788   6.566   6.275
 6143SOL    HW230084   9.895   6.455   6.329
 6144SOL     OW30085   4.736   6.742   0.106
 6144SOL    HW130086   4.753   6.834   0.070
 6144SOL    HW230087   4.822   6.691   0.109
 6145SOL     OW30088   0.591   6.704   0.930
 6145SOL    HW130089   0.550   6.648   1.002
 6145SOL    HW230090   0.573   6.662   0.841
 6146SOL     OW30091   7.550   9.650   7.138
 6146SOL    HW130092   7.563   9.643   7.237
 6146SOL    HW230093   7.571   9.562   7.096
 6147SOL     OW30094   1.813   4.073   7.292
 6147SOL    HW130095   1.773   4.051   7.381
 6147SOL    HW230096   1.884   4.005   7.270
 6148SOL     OW30097   1.551   0.746   7.253
 6148SOL    HW130098   1.627   0.685   7.234
 6148SOL    HW230099   1.474   0.724   7.194
 6149SOL     OW30100   0.904   5.912   2.187
 6149SOL    HW130101   1.003   5.918   2.204
 6149SOL    HW230102   0.860   5.996   2.216
 6150SOL     OW30103   1.700   7.733   2.392
 6150SOL    HW130104   1.728   7.817   2.438
 6150SOL    HW230105   1.780   7.691   2.348
 6151SOL     OW30106   5.258   9.681   1.632
 6151SOL    HW130107   5.340   9.738   1.626
 6151SOL    HW230108   5.193   9.723   1.694
 6152SOL     OW30109   9.273   1.664   2.700
 6152SOL    HW130110   9.313   1.748   2.662
 6152SOL    HW230111   9.207   1.626   2.636
 6153SOL     OW30112   7.890   1.108   6.580
 6153SOL    HW130113   7.975   1.056   6.574
 6153SOL    HW230114   7.905   1.191   6.633
 6154SOL     OW30115   0.576   9.953   7.458
 6154SOL    HW130116   0.598   9.911   7.546
 6154SOL    HW230117   0.653   9.942   7.395
 6155SOL     OW30118   6.405   7.728   3.538
 6155SOL    HW130119   6.333   7.680   3.489
 6155SOL    HW230120   6.482   7.665   3.554
 6156SOL     OW30121   0.771   3.023   3.206
 6156SOL    HW130122   0.813   2.933   3.194
 6156SOL    HW230123   0.754   3.039   3.303
 6157SOL     OW30124   0.764   2.732   4.626
 6157SOL    HW130125   0.799   2.810   4.573
 6157SOL    HW230126   0.684   2.761   4.678
 6158SOL     OW30127   2.495   3.391   7.369
 6158SOL    HW130128   2.512   3.295   7.350
 6158SOL    HW230129   2.404   3.416   7.337
 6159SOL     OW30130   6.935   2.185   3.344
 6159SOL    HW130131   6.989   2.207   3.424
 6159SOL    HW230132   6.851   2.138   3.372
 6160SOL     OW30133   6.781   7.366   2.658
 6160SOL    HW130134   6.789   7.276   2.701
 6160SOL    HW230135   6.833   7.366   2.572
 6161SOL     OW30136   1.155   8.898   3.299
 6161SOL    HW130137   1.180   8.811   3.341
 6161SOL    HW230138   1.105   8.954   3.364
 6162SOL     OW30139   8.897   3.941   2.143
 6162SOL    HW130140   8.895   4.009   2.071
 6162SOL    HW230141   8.985   3.893   2.141
 6163SOL     OW30142   1.770   0.598   7.200
 6163SOL    HW130143   1.828   0.669   7.242
 6163SOL    HW230144   1.827   0.533   7.151
 6164SOL     OW30145   4.775   9.855   5.383
 6164SOL    HW130146   4.869   9.889   5.379
 6164SOL    HW230147   4.773   9.765   5.426
 6165SOL     OW30148   8.857   6.184   0.257
 6165SOL    HW130149   8.800   6.105   0.232
 6165SOL    HW230150   8.942   6.153   0.297
 6166SOL     OW30151   3.752   0.368   4.051
 6166SOL    HW130152   3.833   0.426   4.043
 6166SOL    HW230153   3.773   0.277   4.014
 6167SOL     OW30154   9.505   1.538   0.808
 6167SOL    HW130155   9.501   1.466   0.877
 6167SOL    HW230156   9.450   1.513   0.729
 6168SOL     OW30157   5.377   0.696   6.532
 6168SOL    HW130158   5.457   0.667   6.586
 6168SOL    HW230159   5.358   0.792   6.550
 6169SOL     OW30160   9.395   9.450   6.679
 6169SOL    HW130161   9.482   9.499   6.673
 6169SOL    HW230162   9.321   9.511   6.650
 6170SOL     OW30163   2.284   8.941   7.676
 6170SOL    HW130164   2.316   9.033   7.651
 6170SOL    HW230165   2.357   8.893   7.725
 6171SOL     OW30166   3.730   2.366   2.534
 6171SOL    HW130167   3.681   2.320   2.609
 6171SOL    HW230168   3.760   2.456   2.564
 6172SOL     OW30169   2.480   4.104   6.283
 6172SOL    HW130170   2.405   4.100   6.349
 6172SOL    HW230171   2.550   4.168   6.316
 6173SOL     OW30172   3.808   9.675   7.900
 6173SOL    HW130173   3.848   9.657   7.990
 6173SOL    HW230174   3.816   9.593   7.843
 6174SOL     OW30175   0.189   5.416   6.219
 6174SOL    HW130176   0.200   5.339   6.282
 6174SOL    HW230177   0.210   5.386   6.126
 6175SOL     OW30178   1.734   8.651   4.044
 6175SOL    HW130179   1.829   8.659   4.014
 6175SOL    HW230180   1.727   8.581   4.115
 6176SOL     OW30181   6.847   5.350   0.064
 6176SOL    HW130182   6.881   5.264   0.100
 6176SOL    HW230183   6.832   5.342  10.047
 6177SOL     OW30184   0.653   7.922   4.494
 6177SOL    HW130185   0.624   7.923   4.398
 6177SOL    HW230186   0.595   7.983   4.547
 6178SOL     OW30187   4.848   5.074   0.271
 6178SOL    HW130188   4.828   5.142   0.200
 6178SOL    HW230189   4.939   5.092   0.309
 6179SOL     OW30190   9.979   9.532   7.875
 6179SOL    HW130191   9.886   9.555   7.845
 6179SOL    HW230192   9.975   9.459   7.943
 6180SOL     OW30193   4.074   7.924   0.683
 6180SOL    HW130194   4.104   7.895   0.592
 6180SOL    HW230195   4.147   7.909   0.749
 6181SOL     OW30196   9.936   9.022   0.681
 6181SOL    HW130197   9.923   9.012   0.583
 6181SOL    HW230198   0.022   9.070   0.699
 6182SOL     OW30199   8.205   0.837   2.785
 6182SOL    HW130200   8.172   0.901   2.853
 6182SOL    HW230201   8.305   0.842   2.779
 6183SOL     OW30202   8.828   7.313   6.358
 6183SOL    HW130203   8.743   7.323   6.409
 6183SOL    HW230204   8.880   7.399   6.363
 6184SOL     OW30205   7.320   7.271   3.121
 6184SOL    HW130206   7.366   7.325   3.191
 6184SOL    HW230207   7.388   7.221   3.067
 6185SOL     OW30208   8.783   9.040   6.036
 6185SOL    HW130209   8.759   8.943   6.026
 6185SOL    HW230210   8.709   9.088   6.083
 6186SOL     OW30211   1.595   9.621   0.071
 6186SOL    HW130212   1.538   9.676   0.132
 6186SOL    HW230213   1.544   9.599  10.070
 6187SOL     OW30214   4.163   7.653   2.447
 6187SOL    HW130215   4.172   7.734   2.505
 6187SOL    HW230216   4.153   7.572   2.503
 6188SOL     OW30217   7.904   0.271   3.026
 6188SOL    HW130218   7.874   0.285   2.931
 6188SOL    HW230219   7.934   0.359   3.064
 6189SOL     OW30220   4.634   8.927   6.747
 6189SOL    HW130221   4.592   9.017   6.737
 6189SOL    HW230222   4.654   8.890   6.657
 6190SOL     OW30223   8.292   6.055   7.258
 6190SOL    HW130224   8.213   6.107   7.224
 6190SOL    HW230225   8.263   5.997   7.334
 6191SOL     OW30226   5.574   9.098   7.860
 6191SOL    HW130227   5.532   9.154   7.788
 6191SOL    HW230228   5.503   9.041   7.902
 6192SOL     OW30229   5.707   9.334   4.110
 6192SOL    HW130230   5.775   9.262   4.097
 6192SOL    HW230231   5.622   9.293   4.143
 6193SOL     OW30232   0.078   3.984   0.900
 6193SOL    HW130233   0.132   4.003   0.982
 6193SOL    HW230234   9.989   3.948   0.927
 6194SOL     OW30235   3.038   2.456   3.259
 6194SOL    HW130236   3.128   2.452   3.303
 6194SOL    HW230237   3.048   2.498   3.169
 6195SOL     OW30238   2.643   7.947   1.783
 6195SOL    HW130239   2.689   8.011   1.844
 6195SOL    HW230240   2.546   7.942   1.807
 6196SOL     OW30241   3.357   5.568   4.998
 6196SOL    HW130242   3.436   5.516   5.031
 6196SOL    HW230243   3.380   5.665   4.996
 6197SOL     OW30244   8.066   3.894   0.977
 6197SOL    HW130245   8.137   3.956   1.010
 6197SOL    HW230246   8.014   3.859   1.055
 6198SOL     OW30247   0.030   6.839   5.918
 6198SOL    HW130248   0.017   6.746   5.952
 6198SOL    HW230249   0.037   6.902   5.996
 6199SOL     OW30250   9.924   6.421   1.557
 6199SOL    HW130251   9.886   6.491   1.617
 6199SOL    HW230252  10.000   6.375   1.603
 6200SOL     OW30253   6.789   0.810   4.721
 6200SOL    HW130254   6.785   0.803   4.621
 6200SOL    HW230255   6.706   0.855   4.755
 6201SOL     OW30256   8.742   1.211   2.432
 6201SOL    HW130257   8.815   1.156   2.472
 6201SOL    HW230258   8.692   1.258   2.505
 6202SOL     OW30259   3.990   7.886   4.182
 6202SOL    HW130260   3.965   7.952   4.253
 6202SOL    HW230261   3.928   7.897   4.104
 6203SOL     OW30262   6.452   0.634   2.179
 6203SOL    HW130263   6.461   0.721   2.131
 6203SOL    HW230264   6.356   0.606   2.178
 6204SOL     OW30265   3.482   9.865   1.036
 6204SOL    HW130266   3.520   9.846   0.945
 6204SOL    HW230267   3.471   9.964   1.048
 6205SOL     OW30268   8.321   7.249   2.069
 6205SOL    HW130269   8.285   7.336   2.036
 6205SOL    HW230270   8.415   7.261   2.099
 6206SOL     OW30271   8.868   7.844   4.105
 6206SOL    HW130272   8.897   7.752   4.076
 6206SOL    HW230273   8.943   7.888   4.155
 6207SOL     OW30274   2.078   8.729   3.587
 6207SOL    HW130275   2.112   8.821   3.610
 6207SOL    HW230276   2.114   8.702   3.498
 6208SOL     OW30277   8.466   0.467   6.802
 6208SOL    HW130278   8.559   0.445   6.770
 6208SOL    HW230279   8.401   0.408   6.754
 6209SOL     OW30280   3.995   6.837   3.038
 6209SOL    HW130281   3.949   6.896   3.103
 6209SOL    HW230282   3.927   6.795   2.977
 6210SOL     OW30283   9.508   6.111   7.015
 6210SOL    HW130284   9.446   6.049   7.064
 6210SOL    HW230285   9.493   6.205   7.048
 6211SOL     OW30286   4.367   8.533   2.746
 6211SOL    HW130287   4.312   8.591   2.685
 6211SOL    HW230288   4.462   8.563   2.743
 6212SOL     OW30289   9.932   2.596   5.450
 6212SOL    HW130290   9.978   2.546   5.524
 6212SOL    HW230291   9.837   2.613   5.476
 6213SOL     OW30292   1.126   7.082   0.367
 6213SOL    HW130293   1.162   7.119   0.281
 6213SOL    HW230294   1.189   7.015   0.404
 6214SOL     OW30295   0.309   1.477   0.527
 6214SOL    HW130296   0.316   1.561   0.580
 6214SOL    HW230297   0.386   1.417   0.549
 6215SOL     OW30298   4.529   7.587   5.134
 6215SOL    HW130299   4.472   7.509   5.158
 6215SOL    HW230300   4.609   7.590   5.193
 6216SOL     OW30301   4.755   4.211   0.532
 6216SOL    HW130302   4.851   4.206   0.560
 6216SOL    HW230303   4.739   4.295   0.482
 6217SOL     OW30304   3.911   2.058   6.402
 6217SOL    HW130305   3.811   2.061   6.400
 6217SOL    HW230306   3.943   1.969   6.369
 6218SOL     OW30307   6.180   4.489   2.231
 6218SOL    HW130308   6.264   4.525   2.273
 6218SOL    HW230309   6.205   4.417   2.166
 6219SOL     OW30310   9.470   7.270   6.229
 6219SOL    HW130311   9.525   7.235   6.305
 6219SOL    HW230312   9.405   7.338   6.264
 6220SOL     OW30313   1.231   9.373   0.214
 6220SOL    HW130314   1.169   9.296   0.201
 6220SOL    HW230315   1.293   9.353   0.291
 6221SOL     OW30316   1.663   0.659   4.789
 6221SOL    HW130317   1.587   0.722   4.776
 6221SOL    HW230318   1.749   0.711   4.794
 6222SOL     OW30319   0.197   9.812   6.598
 6222SOL    HW130320   0.235   9.730   6.639
 6222SOL    HW230321   0.266   9.856   6.540
 6223SOL     OW30322   0.101   3.610   7.489
 6223SOL    HW130323   0.122   3.536   7.553
 6223SOL    HW230324   0.118   3.698   7.532
 6224SOL     OW30325   3.831   8.820   0.283
 6224SOL    HW130326   3.751   8.853   0.233
 6224SOL    HW230327   3.839   8.868   0.370
 6225SOL     OW30328   1.940   8.154   6.338
 6225SOL    HW130329   1.992   8.189   6.415
 6225SOL    HW230330   1.993   8.083   6.291
 6226SOL     OW30331   4.716   5.554   2.779
 6226SOL    HW130332   4.716   5.583   2.684
 6226SOL    HW230333   4.676   5.626   2.836
 6227SOL     OW30334   9.656   5.378   5.497
 6227SOL    HW130335   9.585   5.401   5.431
 6227SOL    HW230336   9.628   5.408   5.588
 6228SOL     OW30337   8.101   0.358   4.934
 6228SOL    HW130338   8.068   0.389   4.845
 6228SOL    HW230339   8.187   0.308   4.922
 6229SOL     OW30340   3.839   1.723   5.261
 6229SOL    HW130341   3.777   1.683   5.193
 6229SOL    HW230342   3.915   1.768   5.214
 6230SOL     OW30343   6.641   9.639   7.714
 6230SOL    HW130344   6.684   9.703   7.777
 6230SOL    HW230345   6.708   9.572   7.683
 6231SOL     OW30346   7.594   2.493   3.975
 6231SOL    HW130347   7.579   2.586   4.007
 6231SOL    HW230348   7.506   2.453   3.948
 6232SOL     OW30349   0.612   2.730   1.383
 6232SOL    HW130350   0.582   2.652   1.328
 6232SOL    HW230351   0.633   2.699   1.476
 6233SOL     OW30352   6.776   0.110   3.021
 6233SOL    HW130353   6.755   0.035   3.083
 6233SOL    HW230354   6.726   0.097   2.935
 6234SOL     OW30355   2.284   4.295   0.798
 6234SOL    HW130356   2.367   4.348   0.781
 6234SOL    HW230357   2.205   4.356   0.798
 6235SOL     OW30358   8.318   1.634   5.928
 6235SOL    HW130359   8.261   1.564   5.883
 6235SOL    HW230360   8.363   1.690   5.858
 6236SOL     OW30361   9.555   4.585   0.158
 6236SOL    HW130362   9.456   4.604   0.154
 6236SOL    HW230363   9.569   4.486   0.160
 6237SOL     OW30364   0.593   6.133   3.160
 6237SOL    HW130365   0.665   6.064   3.159
 6237SOL    HW230366   0.608   6.198   3.086
 6238SOL     OW30367   3.431   1.542   3.977
 6238SOL    HW130368   3.375   1.529   3.896
 6238SOL    HW230369   3.432   1.458   4.031
 6239SOL     OW30370   3.689   1.512   7.286
 6239SOL    HW130371   3.604   1.549   7.323
 6239SOL    HW230372   3.738   1.583   7.237
 6240SOL     OW30373   6.217   5.080   0.306
 6240SOL    HW130374   6.312   5.050   0.320
 6240SOL    HW230375   6.172   5.019   0.241
 6241SOL     OW30376   2.554   6.317   0.563
 6241SOL    HW130377   2.619   6.325   0.638
 6241SOL    HW230378   2.461   6.306   0.599
 6242SOL     OW30379   2.464   5.224   6.805
 6242SOL    HW130380   2.519   5.169   6.743
 6242SOL    HW230381   2.393   5.272   6.753
 6243SOL     OW30382   1.389   0.876   2.332
 6243SOL    HW130383   1.365   0.890   2.236
 6243SOL    HW230384   1.330   0.806   2.372
 6244SOL     OW30385   8.419   1.640   0.718
 6244SOL    HW130386   8.356   1.662   0.643
 6244SOL    HW230387   8.491   1.710   0.723
 6245SOL     OW30388   2.751   6.938   2.067
 6245SOL    HW130389   2.670   6.925   2.124
 6245SOL    HW230390   2.760   6.861   2.005
 6246SOL     OW30391   8.927   5.590   1.530
 6246SOL    HW130392   8.833   5.602   1.564
 6246SOL    HW230393   8.974   5.522   1.586
 6247SOL     OW30394   0.117   0.109   4.804
 6247SOL    HW130395   0.091   0.030   4.748
 6247SOL    HW230396   0.070   0.105   4.892
 6248SOL     OW30397   2.687   8.881   6.435
 6248SOL    HW130398   2.680   8.787   6.402
 6248SOL    HW230399   2.759   8.929   6.385
 6249SOL     OW30400   7.042   1.107   1.772
 6249SOL    HW130401   7.118   1.042   1.772
 6249SOL    HW230402   7.076   1.200   1.784
 6250SOL     OW30403   2.214   6.214   2.261
 6250SOL    HW130404   2.205   6.222   2.360
 6250SOL    HW230405   2.289   6.273   2.229
 6251SOL     OW30406   3.775   9.588   3.599
 6251SOL    HW130407   3.707   9.656   3.570
 6251SOL    HW230408   3.843   9.633   3.657
 6252SOL     OW30409   9.975   4.247   2.141
 6252SOL    HW130410   9.994   4.301   2.059
 6252SOL    HW230411   9.877   4.250   2.160
 6253SOL     OW30412   1.616   6.587   6.628
 6253SOL    HW130413   1.522   6.575   6.597
 6253SOL    HW230414   1.649   6.678   6.602
 6254SOL     OW30415   7.921   7.590   6.476
 6254SOL    HW130416   7.988   7.548   6.414
 6254SOL    HW230417   7.870   7.660   6.427
 6255SOL     OW30418   8.973   8.013   6.095
 6255SOL    HW130419   9.035   8.072   6.147
 6255SOL    HW230420   9.020   7.927   6.073
 6256SOL     OW30421   3.658   5.699   0.353
 6256SOL    HW130422   3.596   5.770   0.387
 6256SOL    HW230423   3.653   5.619   0.413
 6257SOL     OW30424   7.295   1.846   2.866
 6257SOL    HW130425   7.247   1.914   2.923
 6257SOL    HW230426   7.261   1.852   2.772
 6258SOL     OW30427   2.087   0.062   4.988
 6258SOL    HW130428   2.116   9.967   4.986
 6258SOL    HW230429   2.159   0.121   4.952
 6259SOL     OW30430   9.969   3.283   2.365
 6259SOL    HW130431   0.030   3.359   2.388
 6259SOL    HW230432   9.874   3.313   2.370
 6260SOL     OW30433   9.772   4.625   0.459
 6260SOL    HW130434   9.697   4.657   0.516
 6260SOL    HW230435   9.774   4.676   0.373
 6261SOL     OW30436   8.029   8.395   6.059
 6261SOL    HW130437   8.048   8.430   5.968
 6261SOL    HW230438   8.113   8.360   6.100
 6262SOL     OW30439   8.497   4.825   4.511
 6262SOL    HW130440   8.506   4.741   4.457
 6262SOL    HW230441   8.497   4.904   4.450
 6263SOL     OW30442   9.284   3.624   5.994
 6263SOL    HW130443   9.186   3.613   6.012
 6263SOL    HW230444   9.322   3.536   5.965
 6264SOL     OW30445   6.276   0.818   3.956
 6264SOL    HW130446   6.206   0.748   3.941
 6264SOL    HW230447   6.365   0.775   3.967
 6265SOL     OW30448   2.745   0.811   5.075
 6265SOL    HW130449   2.760   0.737   5.141
 6265SOL    HW230450   2.727   0.896   5.124
 6266SOL     OW30451   3.460   7.348   1.673
 6266SOL    HW130452   3.546   7.335   1.623
 6266SOL    HW230453   3.405   7.417   1.626
 6267SOL     OW30454   6.451   1.815   3.644
 6267SOL    HW130455   6.392   1.830   3.723
 6267SOL    HW230456   6.394   1.795   3.564
 6268SOL     OW30457   6.691   2.591   4.547
 6268SOL    HW130458   6.769   2.532   4.567
 6268SOL    HW230459   6.706   2.636   4.459
 6269SOL     OW30460   0.457   0.369   3.553
 6269SOL    HW130461   0.542   0.355   3.604
 6269SOL    HW230462   0.390   0.300   3.580
 6270SOL     OW30463   1.776   6.713   7.667
 6270SOL    HW130464   1.826   6.645   7.720
 6270SOL    HW230465   1.838   6.785   7.637
 6271SOL     OW30466   4.598   5.428   1.791
 6271SOL    HW130467   4.655   5.365   1.738
 6271SOL    HW230468   4.580   5.390   1.882
 6272SOL     OW30469   8.728   5.411   4.906
 6272SOL    HW130470   8.671   5.332   4.930
 6272SOL    HW230471   8.816   5.403   4.952
 6273SOL     OW30472   4.158   7.929   6.501
 6273SOL    HW130473   4.229   7.870   6.462
 6273SOL    HW230474   4.081   7.873   6.532
 6274SOL     OW30475   4.912   7.844   1.678
 6274SOL    HW130476   4.856   7.811   1.602
 6274SOL    HW230477   5.003   7.802   1.673
 6275SOL     OW30478   8.070   7.008   3.253
 6275SOL    HW130479   8.126   6.951   3.193
 6275SOL    HW230480   7.979   7.019   3.212
 6276SOL     OW30481   2.343   7.912   4.779
 6276SOL    HW130482   2.428   7.920   4.832
 6276SOL    HW230483   2.290   7.835   4.813
 6277SOL     OW30484   6.132   9.507   6.514
 6277SOL    HW130485   6.166   9.601   6.514
 6277SOL    HW230486   6.179   9.454   6.444
 6278SOL     OW30487   8.579   1.847   3.508
 6278SOL    HW130488   8.607   1.843   3.412
 6278SOL    HW230489   8.480   1.830   3.515
 6279SOL     OW30490   0.192   5.868   2.318
 6279SOL    HW130491   0.222   5.777   2.290
 6279SOL    HW230492   0.093   5.875   2.308
 6280SOL     OW30493   6.175   9.741   2.673
 6280SOL    HW130494   6.270   9.718   2.652
 6280SOL    HW230495   6.126   9.762   2.589
 6281SOL     OW30496   2.813   3.531   5.406
 6281SOL    HW130497   2.883   3.594   5.374
 6281SOL    HW230498   2.850   3.438   5.409
 6282SOL     OW30499   4.072   9.205   6.708
 6282SOL    HW130500   4.148   9.174   6.765
 6282SOL    HW230501   4.041   9.130   6.650
 6283SOL     OW30502   0.493   1.074   2.967
 6283SOL    HW130503   0.544   0.998   3.007
 6283SOL    HW230504   0.534   1.161   2.994
 6284SOL     OW30505   2.975   4.903   6.519
 6284SOL    HW130506   3.006   4.870   6.608
 6284SOL    HW230507   2.900   4.845   6.486
 6285SOL     OW30508   0.906   3.094   6.968
 6285SOL    HW130509   0.907   3.181   6.919
 6285SOL    HW230510   0.853   3.027   6.915
 6286SOL     OW30511   6.037   5.099   1.470
 6286SOL    HW130512   6.005   5.181   1.422
 6286SOL    HW230513   6.112   5.124   1.532
 6287SOL     OW30514   2.492   3.489   4.083
 6287SOL    HW130515   2.548   3.486   4.000
 6287SOL    HW230516   2.536   3.547   4.151
 6288SOL     OW30517   8.537   8.215   0.261
 6288SOL    HW130518   8.579   8.286   0.318
 6288SOL    HW230519   8.553   8.125   0.303
 6289SOL     OW30520   3.058   6.769   5.904
 6289SOL    HW130521   3.105   6.838   5.850
 6289SOL    HW230522   3.056   6.682   5.854
 6290SOL     OW30523   9.677   3.986   4.685
 6290SOL    HW130524   9.775   3.976   4.702
 6290SOL    HW230525   9.627   3.975   4.771
 6291SOL     OW30526   7.470   4.637   3.520
 6291SOL    HW130527   7.377   4.673   3.515
 6291SOL    HW230528   7.488   4.580   3.440
 6292SOL     OW30529   8.910   3.388   4.209
 6292SOL    HW130530   8.912   3.375   4.109
 6292SOL    HW230531   8.932   3.301   4.254
 6293SOL     OW30532   2.499   3.688   6.018
 6293SOL    HW130533   2.560   3.609   6.022
 6293SOL    HW230534   2.492   3.729   6.110
 6294SOL     OW30535   4.015   2.354   5.833
 6294SOL    HW130536   4.086   2.294   5.797
 6294SOL    HW230537   3.960   2.391   5.758
 6295SOL     OW30538   8.528   7.932   0.803
 6295SOL    HW130539   8.439   7.903   0.838
 6295SOL    HW230540   8.518   8.014   0.747
 6296SOL     OW30541   6.826   0.346   4.454
 6296SOL    HW130542   6.902   0.283   4.470
 6296SOL    HW230543   6.756   0.333   4.525
 6297SOL     OW30544   9.297   1.063   0.817
 6297SOL    HW130545   9.368   1.036   0.752
 6297SOL    HW230546   9.281   1.161   0.812
 6298SOL     OW30547   7.546   8.452   5.416
 6298SOL    HW130548   7.481   8.490   5.482
 6298SOL    HW230549   7.496   8.415   5.338
 6299SOL     OW30550   8.964   6.967   1.798
 6299SOL    HW130551   8.891   6.997   1.737
 6299SOL    HW230552   9.047   7.020   1.779
 6300SOL     OW30553   7.303   9.504   5.958
 6300SOL    HW130554   7.319   9.412   5.923
 6300SOL    HW230555   7.254   9.498   6.046
 6301SOL     OW30556   3.130   7.191   6.612
 6301SOL    HW130557   3.181   7.166   6.530
 6301SOL    HW230558   3.089   7.110   6.652
 6302SOL     OW30559   1.026   8.193   4.047
 6302SOL    HW130560   0.953   8.156   4.104
 6302SOL    HW230561   1.070   8.118   3.997
 6303SOL     OW30562   0.962   6.397   7.522
 6303SOL    HW130563   1.029   6.472   7.526
 6303SOL    HW230564   0.914   6.391   7.609
 6304SOL     OW30565   2.447   4.517   5.172
 6304SOL    HW130566   2.420   4.605   5.132
 6304SOL    HW230567   2.540   4.525   5.209
 6305SOL     OW30568   4.514   8.938   4.604
 6305SOL    HW130569   4.567   9.022   4.596
 6305SOL    HW230570   4.457   8.926   4.523
 6306SOL     OW30571   2.846   7.693   0.369
 6306SOL    HW130572   2.781   7.744   0.312
 6306SOL    HW230573   2.835   7.720   0.465
 6307SOL     OW30574   1.099   2.614   7.792
 6307SOL    HW130575   1.106   2.627   7.693
 6307SOL    HW230576   1.190   2.616   7.833
 6308SOL     OW30577   6.327   0.107   6.729
 6308SOL    HW130578   6.326   0.184   6.666
 6308SOL    HW230579   6.338   0.140   6.823
 6309SOL     OW30580   1.306   7.158   7.937
 6309SOL    HW130581   1.244   7.110   7.874
 6309SOL    HW230582   1.308   7.108   8.025
 6310SOL     OW30583   2.096   2.511   5.268
 6310SOL    HW130584   2.164   2.574   5.232
 6310SOL    HW230585   2.032   2.560   5.326
 6311SOL     OW30586   3.362   8.561   7.100
 6311SOL    HW130587   3.263   8.556   7.109
 6311SOL    HW230588   3.403   8.477   7.135
 6312SOL     OW30589   4.815   2.874   4.909
 6312SOL    HW130590   4.856   2.817   4.838
 6312SOL    HW230591   4.842   2.969   4.895
 6313SOL     OW30592   4.614   4.485   6.676
 6313SOL    HW130593   4.675   4.541   6.619
 6313SOL    HW230594   4.519   4.506   6.653
 6314SOL     OW30595   2.320   4.736   5.053
 6314SOL    HW130596   2.296   4.681   4.973
 6314SOL    HW230597   2.356   4.824   5.022
 6315SOL     OW30598   3.970   2.174   2.223
 6315SOL    HW130599   3.875   2.187   2.253
 6315SOL    HW230600   3.972   2.110   2.146
 6316SOL     OW30601   2.099   4.160   3.905
 6316SOL    HW130602   2.015   4.192   3.861
 6316SOL    HW230603   2.102   4.060   3.905
 6317SOL     OW30604   1.828   9.320   0.563
 6317SOL    HW130605   1.895   9.365   0.623
 6317SOL    HW230606   1.760   9.387   0.533
 6318SOL     OW30607   2.318   3.525   7.730
 6318SOL    HW130608   2.239   3.544   7.790
 6318SOL    HW230609   2.308   3.576   7.645
 6319SOL     OW30610   9.455   5.578   6.190
 6319SOL    HW130611   9.509   5.498   6.162
 6319SOL    HW230612   9.492   5.660   6.146
 6320SOL     OW30613   9.663   3.471   7.180
 6320SOL    HW130614   9.747   3.512   7.216
 6320SOL    HW230615   9.635   3.522   7.099
 6321SOL     OW30616   4.386   9.420   3.824
 6321SOL    HW130617   4.415   9.387   3.913
 6321SOL    HW230618   4.462   9.468   3.780
 6322SOL     OW30619   0.839   9.853   1.739
 6322SOL    HW130620   0.885   9.914   1.804
 6322SOL    HW230621   0.741   9.870   1.741
 6323SOL     OW30622   8.750   3.083   5.587
 6323SOL    HW130623   8.754   3.038   5.498
 6323SOL    HW230624   8.700   3.024   5.651
 6324SOL     OW30625   2.723   3.747   1.733
 6324SOL    HW130626   2.633   3.730   1.772
 6324SOL    HW230627   2.752   3.840   1.754
 6325SOL     OW30628   9.126   6.585   0.849
 6325SOL    HW130629   9.199   6.539   0.799
 6325SOL    HW230630   9.047   6.524   0.857
 6326SOL     OW30631   9.605   2.184   5.426
 6326SOL    HW130632   9.691   2.208   5.472
 6326SOL    HW230633   9.601   2.085   5.413
 6327SOL     OW30634   9.757   6.150   0.358
 6327SOL    HW130635   9.765   6.099   0.444
 6327SOL    HW230636   9.673   6.123   0.311
 6328SOL     OW30637   3.508   8.662   4.822
 6328SOL    HW130638   3.522   8.628   4.729
 6328SOL    HW230639   3.555   8.749   4.833
 6329SOL     OW30640   9.413   5.475   7.894
 6329SOL    HW130641   9.341   5.540   7.919
 6329SOL    HW230642   9.373   5.383   7.887
 6330SOL     OW30643   1.385   8.174   4.975
 6330SOL    HW130644   1.319   8.249   4.973
 6330SOL    HW230645   1.359   8.104   4.909
 6331SOL     OW30646   5.011   5.936   1.496
 6331SOL    HW130647   4.973   6.024   1.523
 6331SOL    HW230648   4.938   5.868   1.487
 6332SOL     OW30649   6.496   7.762   2.468
 6332SOL    HW130650   6.553   7.758   2.386
 6332SOL    HW230651   6.525   7.690   2.532
 6333SOL     OW30652   1.745   3.927   4.019
 6333SOL    HW130653   1.817   3.879   4.070
 6333SOL    HW230654   1.660   3.922   4.071
 6334SOL     OW30655   4.711   3.386   7.131
 6334SOL    HW130656   4.729   3.450   7.057
 6334SOL    HW230657   4.635   3.418   7.186
 6335SOL     OW30658   2.872   6.908   0.203
 6335SOL    HW130659   2.782   6.874   0.174
 6335SOL    HW230660   2.873   6.918   0.302
 6336SOL     OW30661   8.186   6.377   1.666
 6336SOL    HW130662   8.213   6.301   1.606
 6336SOL    HW230663   8.263   6.440   1.676
 6337SOL     OW30664   9.064   4.784   1.889
 6337SOL    HW130665   9.027   4.699   1.925
 6337SOL    HW230666   9.150   4.806   1.936
 6338SOL     OW30667   7.739   1.740   4.415
 6338SOL    HW130668   7.711   1.834   4.393
 6338SOL    HW230669   7.684   1.706   4.491
 6339SOL     OW30670   3.306   5.077   6.414
 6339SOL    HW130671   3.236   5.147   6.402
 6339SOL    HW230672   3.291   5.028   6.500
 6340SOL     OW30673   2.074   5.657   0.157
 6340SOL    HW130674   2.128   5.617   0.231
 6340SOL    HW230675   2.114   5.745   0.129
 6341SOL     OW30676   3.680   5.994   5.888
 6341SOL    HW130677   3.687   5.894   5.888
 6341SOL    HW230678   3.682   6.028   5.982
 6342SOL     OW30679   4.404   5.492   2.322
 6342SOL    HW130680   4.473   5.420   2.325
 6342SOL    HW230681   4.359   5.498   2.411
 6343SOL     OW30682   7.597   5.898   0.948
 6343SOL    HW130683   7.536   5.832   0.905
 6343SOL    HW230684   7.556   5.931   1.033
 6344SOL     OW30685   8.334   5.381   4.879
 6344SOL    HW130686   8.326   5.285   4.907
 6344SOL    HW230687   8.277   5.437   4.939
 6345SOL     OW30688   8.410   6.534   1.706
 6345SOL    HW130689   8.394   6.604   1.776
 6345SOL    HW230690   8.487   6.477   1.733
 6346SOL     OW30691   9.587   3.598   6.946
 6346SOL    HW130692   9.541   3.542   6.877
 6346SOL    HW230693   9.672   3.634   6.908
 6347SOL     OW30694   1.311   7.708   0.820
 6347SOL    HW130695   1.387   7.654   0.784
 6347SOL    HW230696   1.252   7.737   0.745
 6348SOL     OW30697   4.656   3.345   0.673
 6348SOL    HW130698   4.755   3.354   0.664
 6348SOL    HW230699   4.632   3.256   0.710
 6349SOL     OW30700   3.985   7.346   1.234
 6349SOL    HW130701   3.900   7.399   1.228
 6349SOL    HW230702   4.062   7.409   1.248
 6350SOL     OW30703   2.972   7.568   2.533
 6350SOL    HW130704   2.931   7.651   2.495
 6350SOL    HW230705   3.017   7.517   2.459
 6351SOL     OW30706   3.448   3.388   7.360
 6351SOL    HW130707   3.353   3.412   7.339
 6351SOL    HW230708   3.450   3.301   7.410
 6352SOL     OW30709   8.997   4.608   3.639
 6352SOL    HW130710   8.977   4.598   3.737
 6352SOL    HW230711   8.988   4.519   3.594
 6353SOL     OW30712   6.381   0.168   6.991
 6353SOL    HW130713   6.400   0.262   7.022
 6353SOL    HW230714   6.441   0.104   7.039
 6354SOL     OW30715   8.903   3.456   7.368
 6354SOL    HW130716   8.843   3.393   7.319
 6354SOL    HW230717   8.921   3.420   7.460
 6355SOL     OW30718   7.928   9.379   6.676
 6355SOL    HW130719   7.854   9.321   6.709
 6355SOL    HW230720   7.947   9.358   6.580
 6356SOL     OW30721   0.571   5.166   5.830
 6356SOL    HW130722   0.565   5.102   5.906
 6356SOL    HW230723   0.506   5.140   5.758
 6357SOL     OW30724   4.340   2.642   5.148
 6357SOL    HW130725   4.347   2.694   5.062
 6357SOL    HW230726   4.416   2.578   5.154
 6358SOL     OW30727   7.723   3.605   2.491
 6358SOL    HW130728   7.675   3.634   2.574
 6358SOL    HW230729   7.709   3.506   2.478
 6359SOL     OW30730   3.187   3.677   1.823
 6359SOL    HW130731   3.216   3.654   1.730
 6359SOL    HW230732   3.232   3.761   1.853
 6360SOL     OW30733   3.072   5.624   5.138
 6360SOL    HW130734   3.032   5.611   5.228
 6360SOL    HW230735   3.161   5.579   5.134
 6361SOL     OW30736   7.209   7.215   6.721
 6361SOL    HW130737   7.278   7.266   6.773
 6361SOL    HW230738   7.177   7.271   6.645
 6362SOL     OW30739   9.851   9.555   1.684
 6362SOL    HW130740   9.836   9.596   1.594
 6362SOL    HW230741   9.798   9.470   1.692
 6363SOL     OW30742   9.989   0.654   0.671
 6363SOL    HW130743   9.974   0.748   0.639
 6363SOL    HW230744   0.077   0.621   0.637
 6364SOL     OW30745   8.962   6.834   5.872
 6364SOL    HW130746   8.966   6.911   5.935
 6364SOL    HW230747   9.038   6.771   5.891
 6365SOL     OW30748   7.739   1.159   4.956
 6365SOL    HW130749   7.649   1.119   4.939
 6365SOL    HW230750   7.747   1.246   4.906
 6366SOL     OW30751   7.707   4.265   2.858
 6366SOL    HW130752   7.805   4.259   2.840
 6366SOL    HW230753   7.676   4.181   2.903
 6367SOL     OW30754   6.192   7.532   2.551
 6367SOL    HW130755   6.222   7.622   2.582
 6367SOL    HW230756   6.153   7.540   2.459
 6368SOL     OW30757   0.268   0.235   7.871
 6368SOL    HW130758   0.342   0.270   7.814
 6368SOL    HW230759   0.284   0.261   7.966
 6369SOL     OW30760   6.520   2.401   4.431
 6369SOL    HW130761   6.567   2.483   4.463
 6369SOL    HW230762   6.431   2.394   4.476
 6370SOL     OW30763   2.584   8.490   7.268
 6370SOL    HW130764   2.582   8.390   7.269
 6370SOL    HW230765   2.523   8.523   7.196
 6371SOL     OW30766   9.028   4.169   4.042
 6371SOL    HW130767   8.987   4.211   4.123
 6371SOL    HW230768   8.985   4.206   3.960
 6372SOL     OW30769   1.231   1.131   6.440
 6372SOL    HW130770   1.164   1.185   6.491
 6372SOL    HW230771   1.322   1.147   6.477
 6373SOL     OW30772   0.556   0.671   2.766
 6373SOL    HW130773   0.531   0.712   2.678
 6373SOL    HW230774   0.653   0.687   2.784
 6374SOL     OW30775   4.247   7.975   4.124
 6374SOL    HW130776   4.163   7.927   4.146
 6374SOL    HW230777   4.292   7.931   4.046
 6375SOL     OW30778   2.879   0.200   7.571
 6375SOL    HW130779   2.843   0.270   7.634
 6375SOL    HW230780   2.832   0.207   7.483
 6376SOL     OW30781   8.200   9.814   5.807
 6376SOL    HW130782   8.129   9.883   5.800
 6376SOL    HW230783   8.285   9.850   5.768
 6377SOL     OW30784   6.252   0.404   4.529
 6377SOL    HW130785   6.318   0.455   4.584
 6377SOL    HW230786   6.159   0.430   4.556
 6378SOL     OW30787   5.533   2.421   0.101
 6378SOL    HW130788   5.591   2.379   0.171
 6378SOL    HW230789   5.581   2.421   0.014
 6379SOL     OW30790   2.640   2.716   5.959
 6379SOL    HW130791   2.549   2.733   5.921
 6379SOL    HW230792   2.707   2.711   5.885
 6380SOL     OW30793   5.632   8.465   2.272
 6380SOL    HW130794   5.717   8.411   2.265
 6380SOL    HW230795   5.645   8.553   2.227
 6381SOL     OW30796   1.938   7.484   3.043
 6381SOL    HW130797   2.037   7.501   3.038
 6381SOL    HW230798   1.903   7.466   2.951
 6382SOL     OW30799   6.245   2.217   1.737
 6382SOL    HW130800   6.158   2.236   1.783
 6382SOL    HW230801   6.238   2.241   1.640
 6383SOL     OW30802   9.449   5.611   1.235
 6383SOL    HW130803   9.454   5.512   1.218
 6383SOL    HW230804   9.526   5.656   1.190
 6384SOL     OW30805   2.790   5.079   1.519
 6384SOL    HW130806   2.810   4.986   1.487
 6384SOL    HW230807   2.692   5.088   1.537
 6385SOL     OW30808   9.502   2.886   7.493
 6385SOL    HW130809   9.578   2.854   7.437
 6385SOL    HW230810   9.430   2.816   7.495
 6386SOL     OW30811   3.578   1.774   1.733
 6386SOL    HW130812   3.573   1.684   1.690
 6386SOL    HW230813   3.606   1.842   1.665
 6387SOL     OW30814   7.480   7.543   2.181
 6387SOL    HW130815   7.529   7.536   2.268
 6387SOL    HW230816   7.467   7.451   2.143
 6388SOL     OW30817   4.401   0.260   4.574
 6388SOL    HW130818   4.368   0.191   4.509
 6388SOL    HW230819   4.323   0.307   4.615
 6389SOL     OW30820   0.844   8.023   4.187
 6389SOL    HW130821   0.880   8.015   4.280
 6389SOL    HW230822   0.745   8.009   4.189
 6390SOL     OW30823   8.723   4.773   4.227
 6390SOL    HW130824   8.792   4.840   4.257
 6390SOL    HW230825   8.649   4.821   4.181
 6391SOL     OW30826   5.317   0.590   6.127
 6391SOL    HW130827   5.410   0.614   6.100
 6391SOL    HW230828   5.273   0.669   6.169
 6392SOL     OW30829   1.524   2.588   2.174
 6392SOL    HW130830   1.512   2.627   2.082
 6392SOL    HW230831   1.593   2.517   2.171
 6393SOL     OW30832   7.579   2.907   0.312
 6393SOL    HW130833   7.611   2.813   0.297
 6393SOL    HW230834   7.649   2.971   0.280
 6394SOL     OW30835   6.258   0.582   4.314
 6394SOL    HW130836   6.160   0.593   4.295
 6394SOL    HW230837   6.269   0.519   4.391
 6395SOL     OW30838   7.536   6.658   7.037
 6395SOL    HW130839   7.620   6.610   7.064
 6395SOL    HW230840   7.525   6.740   7.094
 6396SOL     OW30841   0.370   0.076   1.640
 6396SOL    HW130842   0.348   0.088   1.543
 6396SOL    HW230843   0.287   0.085   1.694
 6397SOL     OW30844   7.909   0.366   6.716
 6397SOL    HW130845   7.834   0.381   6.781
 6397SOL    HW230846   7.966   0.291   6.749
 6398SOL     OW30847   6.975   3.933   0.904
 6398SOL    HW130848   6.883   3.907   0.936
 6398SOL    HW230849   6.972   4.025   0.865
 6399SOL     OW30850   1.446   5.395   2.662
 6399SOL    HW130851   1.545   5.401   2.648
 6399SOL    HW230852   1.404   5.484   2.645
 6400SOL     OW30853   2.217   9.310   0.500
 6400SOL    HW130854   2.198   9.220   0.462
 6400SOL    HW230855   2.314   9.331   0.491
 6401SOL     OW30856   9.454   4.107   5.418
 6401SOL    HW130857   9.376   4.167   5.402
 6401SOL    HW230858   9.433   4.046   5.495
 6402SOL     OW30859   3.519   6.116   0.270
 6402SOL    HW130860   3.618   6.132   0.265
 6402SOL    HW230861   3.473   6.200   0.300
 6403SOL     OW30862   5.422   1.159   7.725
 6403SOL    HW130863   5.380   1.248   7.707
 6403SOL    HW230864   5.479   1.132   7.647
 6404SOL     OW30865   4.577   9.653   2.412
 6404SOL    HW130866   4.645   9.726   2.415
 6404SOL    HW230867   4.501   9.681   2.353
 6405SOL     OW30868   4.506   5.035   3.134
 6405SOL    HW130869   4.518   4.936   3.140
 6405SOL    HW230870   4.595   5.081   3.137
 6406SOL     OW30871   4.328   0.534   5.117
 6406SOL    HW130872   4.266   0.519   5.040
 6406SOL    HW230873   4.370   0.624   5.109
 6407SOL     OW30874   9.328   6.343   2.441
 6407SOL    HW130875   9.420   6.347   2.403
 6407SOL    HW230876   9.309   6.428   2.491
 6408SOL     OW30877   8.228   3.721   4.289
 6408SOL    HW130878   8.243   3.772   4.374
 6408SOL    HW230879   8.310   3.669   4.267
 6409SOL     OW30880   0.798   8.974   6.662
 6409SOL    HW130881   0.702   8.950   6.675
 6409SOL    HW230882   0.830   9.028   6.740
 6410SOL     OW30883   0.993   2.534   0.722
 6410SOL    HW130884   0.909   2.586   0.709
 6410SOL    HW230885   1.054   2.583   0.784
 6411SOL     OW30886   3.477   5.264   4.530
 6411SOL    HW130887   3.437   5.247   4.620
 6411SOL    HW230888   3.570   5.227   4.527
 6412SOL     OW30889   4.722   9.134   4.221
 6412SOL    HW130890   4.789   9.095   4.285
 6412SOL    HW230891   4.648   9.068   4.206
 6413SOL     OW30892   4.854   5.844   3.243
 6413SOL    HW130893   4.799   5.920   3.278
 6413SOL    HW230894   4.915   5.878   3.171
 6414SOL     OW30895   2.568   0.121   5.162
 6414SOL    HW130896   2.620   0.077   5.235
 6414SOL    HW230897   2.471   0.117   5.184
 6415SOL     OW30898   9.516   2.374   3.331
 6415SOL    HW130899   9.485   2.443   3.266
 6415SOL    HW230900   9.604   2.401   3.369
 6416SOL     OW30901   5.374   3.824   1.174
 6416SOL    HW130902   5.282   3.825   1.212
 6416SOL    HW230903   5.436   3.777   1.236
 6417SOL     OW30904   0.584   0.495   6.665
 6417SOL    HW130905   0.580   0.420   6.731
 6417SOL    HW230906   0.633   0.572   6.706
 6418SOL     OW30907   1.710   1.851   6.469
 6418SOL    HW130908   1.671   1.768   6.432
 6418SOL    HW230909   1.783   1.828   6.533
 6419SOL     OW30910   1.045   7.966   3.070
 6419SOL    HW130911   0.956   7.966   3.116
 6419SOL    HW230912   1.066   8.059   3.039
 6420SOL     OW30913   5.525   9.986   3.170
 6420SOL    HW130914   5.566   0.061   3.120
 6420SOL    HW230915   5.425   9.996   3.170
 6421SOL     OW30916   2.155   5.577   4.495
 6421SOL    HW130917   2.191   5.494   4.539
 6421SOL    HW230918   2.099   5.627   4.561
 6422SOL     OW30919   0.957   2.368   0.500
 6422SOL    HW130920   1.031   2.397   0.440
 6422SOL    HW230921   0.968   2.412   0.589
 6423SOL     OW30922   0.693   5.587   6.302
 6423SOL    HW130923   0.595   5.573   6.318
 6423SOL    HW230924   0.712   5.587   6.204
 6424SOL     OW30925   4.875   4.714   2.257
 6424SOL    HW130926   4.937   4.644   2.223
 6424SOL    HW230927   4.925   4.800   2.271
 6425SOL     OW30928   7.493   1.389   6.122
 6425SOL    HW130929   7.450   1.321   6.064
 6425SOL    HW230930   7.443   1.475   6.116
 6426SOL     OW30931   2.198   7.867   5.673
 6426SOL    HW130932   2.177   7.770   5.686
 6426SOL    HW230933   2.147   7.902   5.595
 6427SOL     OW30934   0.318   2.481   7.337
 6427SOL    HW130935   0.252   2.509   7.267
 6427SOL    HW230936   0.400   2.444   7.293
 6428SOL     OW30937   0.456   0.910   6.635
 6428SOL    HW130938   0.496   0.929   6.725
 6428SOL    HW230939   0.500   0.829   6.596
 6429SOL     OW30940   9.432   7.175   0.821
 6429SOL    HW130941   9.400   7.194   0.728
 6429SOL    HW230942   9.355   7.142   0.876
 6430SOL     OW30943   7.211   3.663   1.185
 6430SOL    HW130944   7.198   3.752   1.141
 6430SOL    HW230945   7.251   3.599   1.120
 6431SOL     OW30946   3.370   8.181   3.983
 6431SOL    HW130947   3.411   8.095   3.953
 6431SOL    HW230948   3.290   8.161   4.039
 6432SOL     OW30949   2.154   4.547   3.813
 6432SOL    HW130950   2.091   4.558   3.890
 6432SOL    HW230951   2.122   4.602   3.736
 6433SOL     OW30952   1.171   8.684   4.239
 6433SOL    HW130953   1.170   8.591   4.203
 6433SOL    HW230954   1.079   8.709   4.271
 6434SOL     OW30955   9.581   5.997   6.393
 6434SOL    HW130956   9.516   5.970   6.321
 6434SOL    HW230957   9.640   6.070   6.359
 6435SOL     OW30958   2.852   0.595   4.279
 6435SOL    HW130959   2.898   0.569   4.194
 6435SOL    HW230960   2.826   0.513   4.330
 6436SOL     OW30961   1.444   8.463   4.342
 6436SOL    HW130962   1.416   8.527   4.413
 6436SOL    HW230963   1.403   8.373   4.360
 6437SOL     OW30964   6.402   5.423   2.535
 6437SOL    HW130965   6.500   5.428   2.553
 6437SOL    HW230966   6.375   5.327   2.524
 6438SOL     OW30967   3.121   6.101   6.639
 6438SOL    HW130968   3.208   6.089   6.688
 6438SOL    HW230969   3.050   6.045   6.683
 6439SOL     OW30970   3.727   5.765   3.504
 6439SOL    HW130971   3.768   5.845   3.549
 6439SOL    HW230972   3.799   5.707   3.465
 6440SOL     OW30973   3.779   6.826   7.190
 6440SOL    HW130974   3.820   6.737   7.210
 6440SOL    HW230975   3.765   6.876   7.276
 6441SOL     OW30976   3.733   8.129   2.138
 6441SOL    HW130977   3.665   8.140   2.065
 6441SOL    HW230978   3.695   8.162   2.224
 6442SOL     OW30979   6.068   6.272   0.863
 6442SOL    HW130980   5.988   6.263   0.922
 6442SOL    HW230981   6.140   6.210   0.894
 6443SOL     OW30982   5.418   2.060   7.741
 6443SOL    HW130983   5.448   1.980   7.793
 6443SOL    HW230984   5.324   2.082   7.764
 6444SOL     OW30985   9.059   1.888   0.769
 6444SOL    HW130986   9.065   1.980   0.730
 6444SOL    HW230987   9.151   1.849   0.776
 6445SOL     OW30988   1.240   2.151   7.459
 6445SOL    HW130989   1.245   2.069   7.516
 6445SOL    HW230990   1.279   2.131   7.369
 6446SOL     OW30991   9.138   0.760   2.964
 6446SOL    HW130992   9.149   0.738   3.061
 6446SOL    HW230993   9.154   0.678   2.909
 6447SOL     OW30994   9.210   2.565   7.755
 6447SOL    HW130995   9.224   2.481   7.703
 6447SOL    HW230996   9.135   2.551   7.820
 6448SOL     OW30997   6.251   0.350   1.084
 6448SOL    HW130998   6.163   0.350   1.131
 6448SOL    HW230999   6.318   0.300   1.139
 6449SOL     OW31000   8.870   8.807   1.127
 6449SOL    HW131001   8.773   8.820   1.147
 6449SOL    HW231002   8.884   8.812   1.028
 6450SOL     OW31003   8.742   3.351   6.950
 6450SOL    HW131004   8.793   3.296   6.884
 6450SOL    HW231005   8.644   3.344   6.931
 6451SOL     OW31006   5.208   7.634   5.548
 6451SOL    HW131007   5.294   7.673   5.517
 6451SOL    HW231008   5.187   7.667   5.640
 6452SOL     OW31009   0.635   4.521   2.039
 6452SOL    HW131010   0.618   4.427   2.009
 6452SOL    HW231011   0.723   4.526   2.085
 6453SOL     OW31012   8.591   0.341   5.513
 6453SOL    HW131013   8.645   0.272   5.464
 6453SOL    HW231014   8.540   0.396   5.447
 6454SOL     OW31015   4.213   7.243   1.495
 6454SOL    HW131016   4.259   7.281   1.416
 6454SOL    HW231017   4.246   7.287   1.578
 6455SOL     OW31018   0.314   2.349   7.790
 6455SOL    HW131019   0.217   2.359   7.811
 6455SOL    HW231020   0.342   2.420   7.725
 6456SOL     OW31021   3.651   7.770   4.893
 6456SOL    HW131022   3.720   7.840   4.871
 6456SOL    HW231023   3.693   7.697   4.946
 6457SOL     OW31024   5.099   8.864   0.800
 6457SOL    HW131025   5.185   8.827   0.765
 6457SOL    HW231026   5.117   8.915   0.884
 6458SOL     OW31027   8.835   4.988   5.172
 6458SOL    HW131028   8.745   5.024   5.197
 6458SOL    HW231029   8.825   4.896   5.135
 6459SOL     OW31030   4.185   6.721   2.743
 6459SOL    HW131031   4.110   6.655   2.731
 6459SOL    HW231032   4.149   6.813   2.732
 6460SOL     OW31033   6.264   9.053   2.810
 6460SOL    HW131034   6.226   9.144   2.828
 6460SOL    HW231035   6.363   9.056   2.816
 6461SOL     OW31036   7.037   2.511   2.258
 6461SOL    HW131037   6.987   2.475   2.337
 6461SOL    HW231038   7.043   2.441   2.187
 6462SOL     OW31039   7.175   9.416   6.192
 6462SOL    HW131040   7.087   9.374   6.167
 6462SOL    HW231041   7.241   9.344   6.211
 6463SOL     OW31042   8.959   3.030   1.669
 6463SOL    HW131043   8.914   3.048   1.582
 6463SOL    HW231044   8.939   2.936   1.698
 6464SOL     OW31045   3.547   8.973   6.605
 6464SOL    HW131046   3.456   8.932   6.606
 6464SOL    HW231047   3.584   8.970   6.512
 6465SOL     OW31048   3.735   5.446   2.618
 6465SOL    HW131049   3.812   5.437   2.681
 6465SOL    HW231050   3.706   5.542   2.614
 6466SOL     OW31051   6.903   2.176   4.102
 6466SOL    HW131052   6.880   2.122   4.021
 6466SOL    HW231053   6.849   2.145   4.180
 6467SOL     OW31054   4.248   9.501   6.878
 6467SOL    HW131055   4.298   9.503   6.965
 6467SOL    HW231056   4.151   9.486   6.895
 6468SOL     OW31057   4.015   2.546   2.422
 6468SOL    HW131058   4.097   2.566   2.476
 6468SOL    HW231059   3.934   2.574   2.473
 6469SOL     OW31060   9.865   3.258   1.917
 6469SOL    HW131061   9.792   3.302   1.969
 6469SOL    HW231062   9.829   3.176   1.872
 6470SOL     OW31063   0.348   1.967   2.518
 6470SOL    HW131064   0.428   1.944   2.463
 6470SOL    HW231065   0.372   2.040   2.583
 6471SOL     OW31066   9.907   6.860   1.298
 6471SOL    HW131067   9.837   6.797   1.333
 6471SOL    HW231068   9.907   6.943   1.354
 6472SOL     OW31069   5.178   8.142   4.740
 6472SOL    HW131070   5.257   8.200   4.758
 6472SOL    HW231071   5.202   8.047   4.757
 6473SOL     OW31072   9.788   5.053   4.852
 6473SOL    HW131073   9.712   5.082   4.909
 6473SOL    HW231074   9.867   5.112   4.870
 6474SOL     OW31075   0.245   9.700   4.903
 6474SOL    HW131076   0.173   9.633   4.884
 6474SOL    HW231077   0.334   9.657   4.896
 6475SOL     OW31078   0.093   8.991   3.917
 6475SOL    HW131079   0.030   8.940   3.975
 6475SOL    HW231080   0.066   9.088   3.915
 6476SOL     OW31081   3.438   7.856   7.247
 6476SOL    HW131082   3.368   7.869   7.176
 6476SOL    HW231083   3.496   7.779   7.222
 6477SOL     OW31084   3.942   3.337   1.364
 6477SOL    HW131085   3.887   3.259   1.396
 6477SOL    HW231086   3.993   3.375   1.441
 6478SOL     OW31087   7.847   5.123   3.639
 6478SOL    HW131088   7.927   5.068   3.664
 6478SOL    HW231089   7.799   5.080   3.562
 6479SOL     OW31090   8.734   6.881   5.526
 6479SOL    HW131091   8.780   6.937   5.457
 6479SOL    HW231092   8.636   6.877   5.505
 6480SOL     OW31093   8.745   3.291   7.218
 6480SOL    HW131094   8.743   3.316   7.121
 6480SOL    HW231095   8.655   3.255   7.244
 6481SOL     OW31096   2.935   5.622   5.380
 6481SOL    HW131097   2.843   5.586   5.369
 6481SOL    HW231098   2.934   5.699   5.444
 6482SOL     OW31099   4.580   8.892   7.357
 6482SOL    HW131100   4.601   8.987   7.333
 6482SOL    HW231101   4.514   8.891   7.433
 6483SOL     OW31102   1.067   7.438   0.225
 6483SOL    HW131103   0.971   7.466   0.222
 6483SOL    HW231104   1.091   7.409   0.317
 6484SOL     OW31105   8.722   8.984   3.323
 6484SOL    HW131106   8.661   9.009   3.247
 6484SOL    HW231107   8.683   9.018   3.408
 6485SOL     OW31108   0.789   4.327   6.114
 6485SOL    HW131109   0.879   4.338   6.073
 6485SOL    HW231110   0.797   4.271   6.197
 6486SOL     OW31111   3.934   8.295   4.222
 6486SOL    HW131112   3.939   8.394   4.207
 6486SOL    HW231113   3.991   8.248   4.155
 6487SOL     OW31114   0.158   2.825   5.534
 6487SOL    HW131115   0.235   2.844   5.595
 6487SOL    HW231116   0.152   2.727   5.518
 6488SOL     OW31117   8.232   6.695   4.096
 6488SOL    HW131118   8.306   6.640   4.058
 6488SOL    HW231119   8.177   6.733   4.021
 6489SOL     OW31120   5.172   3.995   7.393
 6489SOL    HW131121   5.209   4.051   7.319
 6489SOL    HW231122   5.086   3.953   7.362
 6490SOL     OW31123   3.579   2.250   2.739
 6490SOL    HW131124   3.561   2.167   2.791
 6490SOL    HW231125   3.493   2.289   2.707
 6491SOL     OW31126   1.168   7.579   6.704
 6491SOL    HW131127   1.215   7.542   6.785
 6491SOL    HW231128   1.126   7.504   6.653
 6492SOL     OW31129   8.190   8.009   5.795
 6492SOL    HW131130   8.187   8.107   5.776
 6492SOL    HW231131   8.238   7.963   5.720
 6493SOL     OW31132   3.875   3.308   7.421
 6493SOL    HW131133   3.850   3.228   7.366
 6493SOL    HW231134   3.861   3.391   7.367
 6494SOL     OW31135   3.009   4.750   5.706
 6494SOL    HW131136   3.074   4.789   5.641
 6494SOL    HW231137   2.920   4.739   5.661
 6495SOL     OW31138   7.118   2.793   4.026
 6495SOL    HW131139   7.184   2.722   4.001
 6495SOL    HW231140   7.165   2.882   4.029
 6496SOL     OW31141   4.698   7.261   0.813
 6496SOL    HW131142   4.610   7.308   0.823
 6496SOL    HW231143   4.771   7.319   0.849
 6497SOL     OW31144   8.886   8.319   1.233
 6497SOL    HW131145   8.920   8.413   1.233
 6497SOL    HW231146   8.810   8.311   1.297
 6498SOL     OW31147   9.319   6.352   6.267
 6498SOL    HW131148   9.371   6.418   6.322
 6498SOL    HW231149   9.274   6.287   6.328
 6499SOL     OW31150   4.397   9.738   6.513
 6499SOL    HW131151   4.416   9.678   6.590
 6499SOL    HW231152   4.299   9.740   6.495
 6500SOL     OW31153   0.377   3.039   3.261
 6500SOL    HW131154   0.422   3.095   3.331
 6500SOL    HW231155   0.353   3.097   3.183
 6501SOL     OW31156   4.047   0.919   3.421
 6501SOL    HW131157   4.146   0.933   3.424
 6501SOL    HW231158   4.002   0.983   3.484
 6502SOL     OW31159   6.302   1.640   2.712
 6502SOL    HW131160   6.318   1.685   2.800
 6502SOL    HW231161   6.344   1.549   2.714
 6503SOL     OW31162   3.283   8.348   6.042
 6503SOL    HW131163   3.294   8.385   5.950
 6503SOL    HW231164   3.369   8.307   6.072
 6504SOL     OW31165   9.638   1.888   2.954
 6504SOL    HW131166   9.574   1.932   3.016
 6504SOL    HW231167   9.598   1.803   2.919
 6505SOL     OW31168   2.639   9.644   6.373
 6505SOL    HW131169   2.646   9.677   6.467
 6505SOL    HW231170   2.655   9.546   6.371
 6506SOL     OW31171   2.926   8.076   4.549
 6506SOL    HW131172   2.924   8.084   4.450
 6506SOL    HW231173   2.900   8.163   4.591
 6507SOL     OW31174   0.430   9.275   0.780
 6507SOL    HW131175   0.429   9.339   0.856
 6507SOL    HW231176   0.492   9.308   0.708
 6508SOL     OW31177   4.109   8.571   0.742
 6508SOL    HW131178   4.076   8.531   0.656
 6508SOL    HW231179   4.204   8.598   0.731
 6509SOL     OW31180   9.823   3.686   6.844
 6509SOL    HW131181   9.823   3.644   6.753
 6509SOL    HW231182   9.918   3.703   6.872
 6510SOL     OW31183   9.520   4.779   4.747
 6510SOL    HW131184   9.496   4.694   4.701
 6510SOL    HW231185   9.560   4.759   4.836
 6511SOL     OW31186   2.364   6.340   4.473
 6511SOL    HW131187   2.402   6.327   4.565
 6511SOL    HW231188   2.400   6.424   4.434
 6512SOL     OW31189   2.479   1.060   1.089
 6512SOL    HW131190   2.451   0.967   1.063
 6512SOL    HW231191   2.430   1.087   1.172
 6513SOL     OW31192   1.017   0.553   6.641
 6513SOL    HW131193   0.978   0.493   6.711
 6513SOL    HW231194   0.974   0.643   6.647
 6514SOL     OW31195   7.040   8.788   3.088
 6514SOL    HW131196   6.958   8.762   3.036
 6514SOL    HW231197   7.068   8.880   3.062
 6515SOL     OW31198   4.786   4.550   7.835
 6515SOL    HW131199   4.870   4.505   7.865
 6515SOL    HW231200   4.808   4.641   7.801
 6516SOL     OW31201   4.743   0.940   4.125
 6516SOL    HW131202   4.803   1.003   4.174
 6516SOL    HW231203   4.659   0.928   4.177
 6517SOL     OW31204   8.519   1.756   6.313
 6517SOL    HW131205   8.588   1.686   6.302
 6517SOL    HW231206   8.525   1.822   6.237
 6518SOL     OW31207   0.867   0.344   7.434
 6518SOL    HW131208   0.939   0.414   7.432
 6518SOL    HW231209   0.779   0.387   7.454
 6519SOL     OW31210   6.344   1.203   5.851
 6519SOL    HW131211   6.353   1.286   5.906
 6519SOL    HW231212   6.255   1.160   5.870
 6520SOL     OW31213   1.595   6.136   3.097
 6520SOL    HW131214   1.611   6.049   3.050
 6520SOL    HW231215   1.624   6.211   3.038
 6521SOL     OW31216   0.986   7.129   3.087
 6521SOL    HW131217   0.975   7.193   3.163
 6521SOL    HW231218   1.083   7.114   3.070
 6522SOL     OW31219   7.652   8.190   2.874
 6522SOL    HW131220   7.736   8.139   2.862
 6522SOL    HW231221   7.674   8.285   2.898
 6523SOL     OW31222   5.865   0.031   4.228
 6523SOL    HW131223   5.934   0.093   4.190
 6523SOL    HW231224   5.825   9.977   4.154
 6524SOL     OW31225   7.166   4.508   1.901
 6524SOL    HW131226   7.082   4.460   1.879
 6524SOL    HW231227   7.243   4.444   1.897
 6525SOL     OW31228   3.536   5.589   0.134
 6525SOL    HW131229   3.582   5.629   0.213
 6525SOL    HW231230   3.593   5.601   0.053
 6526SOL     OW31231   9.300   5.646   5.244
 6526SOL    HW131232   9.206   5.639   5.210
 6526SOL    HW231233   9.357   5.693   5.176
 6527SOL     OW31234   0.094   7.649   0.336
 6527SOL    HW131235   0.094   7.558   0.295
 6527SOL    HW231236   0.125   7.643   0.431
 6528SOL     OW31237   0.572   7.089   7.591
 6528SOL    HW131238   0.591   7.186   7.577
 6528SOL    HW231239   0.482   7.079   7.634
 6529SOL     OW31240   8.482   5.865   4.375
 6529SOL    HW131241   8.459   5.808   4.453
 6529SOL    HW231242   8.451   5.959   4.392
 6530SOL     OW31243   9.564   7.214   1.962
 6530SOL    HW131244   9.477   7.242   1.921
 6530SOL    HW231245   9.611   7.152   1.900
 6531SOL     OW31246   4.725   0.521   0.361
 6531SOL    HW131247   4.699   0.456   0.290
 6531SOL    HW231248   4.648   0.581   0.382
 6532SOL     OW31249   4.876   4.093   6.482
 6532SOL    HW131250   4.811   4.135   6.546
 6532SOL    HW231251   4.965   4.086   6.525
 6533SOL     OW31252   9.159   4.451   0.627
 6533SOL    HW131253   9.070   4.485   0.595
 6533SOL    HW231254   9.144   4.385   0.700
 6534SOL     OW31255   2.936   2.552   3.947
 6534SOL    HW131256   2.854   2.536   3.893
 6534SOL    HW231257   2.919   2.528   4.042
 6535SOL     OW31258   8.571   4.175   5.959
 6535SOL    HW131259   8.544   4.089   6.003
 6535SOL    HW231260   8.495   4.211   5.906
 6536SOL     OW31261   2.477   6.668   2.818
 6536SOL    HW131262   2.532   6.656   2.736
 6536SOL    HW231263   2.404   6.734   2.800
 6537SOL     OW31264   7.584   0.939   6.221
 6537SOL    HW131265   7.633   1.001   6.282
 6537SOL    HW231266   7.650   0.890   6.163
 6538SOL     OW31267   9.873   5.031   3.058
 6538SOL    HW131268   9.925   5.101   3.107
 6538SOL    HW231269   9.854   5.063   2.965
 6539SOL     OW31270   6.629   0.326   4.655
 6539SOL    HW131271   6.657   0.344   4.750
 6539SOL    HW231272   6.554   0.261   4.654
 6540SOL     OW31273   8.333   1.583   1.424
 6540SOL    HW131274   8.273   1.652   1.384
 6540SOL    HW231275   8.414   1.570   1.367
 6541SOL     OW31276   9.487   6.047   5.217
 6541SOL    HW131277   9.480   5.960   5.169
 6541SOL    HW231278   9.581   6.059   5.251
 6542SOL     OW31279   1.286   6.812   6.620
 6542SOL    HW131280   1.294   6.769   6.710
 6542SOL    HW231281   1.280   6.911   6.630
 6543SOL     OW31282   7.117   0.003   2.076
 6543SOL    HW131283   7.117   0.029   1.979
 6543SOL    HW231284   7.125   9.904   2.084
 6544SOL     OW31285   4.237   1.419   4.541
 6544SOL    HW131286   4.232   1.392   4.637
 6544SOL    HW231287   4.155   1.388   4.492
 6545SOL     OW31288   1.450   5.542   3.442
 6545SOL    HW131289   1.358   5.581   3.444
 6545SOL    HW231290   1.516   5.614   3.420
 6546SOL     OW31291   7.569   7.744   2.015
 6546SOL    HW131292   7.537   7.667   2.069
 6546SOL    HW231293   7.640   7.793   2.066
 6547SOL     OW31294   0.265   7.348   2.265
 6547SOL    HW131295   0.243   7.339   2.362
 6547SOL    HW231296   0.276   7.257   2.225
 6548SOL     OW31297   0.004   7.786   2.010
 6548SOL    HW131298   9.918   7.740   2.028
 6548SOL    HW231299   0.062   7.728   1.952
 6549SOL     OW31300   4.391   5.589   7.593
 6549SOL    HW131301   4.422   5.511   7.538
 6549SOL    HW231302   4.469   5.626   7.644
 6550SOL     OW31303   7.721   4.206   4.182
 6550SOL    HW131304   7.672   4.264   4.117
 6550SOL    HW231305   7.666   4.126   4.204
 6551SOL     OW31306   7.802   0.078   6.573
 6551SOL    HW131307   7.898   0.097   6.552
 6551SOL    HW231308   7.748   0.162   6.564
 6552SOL     OW31309   3.183   2.508   3.805
 6552SOL    HW131310   3.097   2.515   3.855
 6552SOL    HW231311   3.213   2.600   3.778
 6553SOL     OW31312   6.809   4.297   2.476
 6553SOL    HW131313   6.866   4.321   2.397
 6553SOL    HW231314   6.856   4.324   2.560
 6554SOL     OW31315   3.781   4.650   5.350
 6554SOL    HW131316   3.721   4.724   5.322
 6554SOL    HW231317   3.761   4.625   5.445
 6555SOL     OW31318   6.525   0.237   4.056
 6555SOL    HW131319   6.621   0.244   4.029
 6555SOL    HW231320   6.494   0.325   4.090
 6556SOL     OW31321   5.266   1.218   4.181
 6556SOL    HW131322   5.229   1.130   4.209
 6556SOL    HW231323   5.262   1.282   4.258
 6557SOL     OW31324   4.513   0.271   4.179
 6557SOL    HW131325   4.525   0.187   4.231
 6557SOL    HW231326   4.417   0.283   4.156
 6558SOL     OW31327   7.431   9.284   5.581
 6558SOL    HW131328   7.361   9.225   5.622
 6558SOL    HW231329   7.397   9.378   5.579
 6559SOL     OW31330   2.104   8.923   7.307
 6559SOL    HW131331   2.151   9.012   7.312
 6559SOL    HW231332   2.086   8.890   7.399
 6560SOL     OW31333   4.247   5.175   0.633
 6560SOL    HW131334   4.299   5.184   0.548
 6560SOL    HW231335   4.196   5.259   0.649
 6561SOL     OW31336   4.771   9.525   1.274
 6561SOL    HW131337   4.711   9.461   1.322
 6561SOL    HW231338   4.865   9.491   1.279
 6562SOL     OW31339   0.757   3.169   0.952
 6562SOL    HW131340   0.731   3.090   0.896
 6562SOL    HW231341   0.696   3.245   0.933
 6563SOL     OW31342   0.394   8.014   3.831
 6563SOL    HW131343   0.305   8.043   3.795
 6563SOL    HW231344   0.463   8.084   3.812
 6564SOL     OW31345   7.739   9.906   3.195
 6564SOL    HW131346   7.758   9.858   3.109
 6564SOL    HW231347   7.817   9.963   3.219
 6565SOL     OW31348   6.803   1.596   5.189
 6565SOL    HW131349   6.728   1.532   5.169
 6565SOL    HW231350   6.847   1.623   5.103
 6566SOL     OW31351   8.841   7.312   5.094
 6566SOL    HW131352   8.792   7.374   5.155
 6566SOL    HW231353   8.791   7.225   5.088
 6567SOL     OW31354   5.365   9.176   6.090
 6567SOL    HW131355   5.393   9.230   6.010
 6567SOL    HW231356   5.370   9.233   6.172
 6568SOL     OW31357   7.025   9.961   6.180
 6568SOL    HW131358   6.994   9.894   6.247
 6568SOL    HW231359   7.117   9.937   6.148
 6569SOL     OW31360   8.375   9.450   7.829
 6569SOL    HW131361   8.345   9.545   7.823
 6569SOL    HW231362   8.316   9.401   7.893
 6570SOL     OW31363   8.269   7.181   3.808
 6570SOL    HW131364   8.315   7.204   3.722
 6570SOL    HW231365   8.213   7.258   3.838
 6571SOL     OW31366   3.145   7.988   2.514
 6571SOL    HW131367   3.176   8.080   2.491
 6571SOL    HW231368   3.172   7.924   2.442
 6572SOL     OW31369   7.471   6.034   2.282
 6572SOL    HW131370   7.535   5.966   2.318
 6572SOL    HW231371   7.514   6.083   2.206
 6573SOL     OW31372   0.461   5.763   1.646
 6573SOL    HW131373   0.372   5.804   1.628
 6573SOL    HW231374   0.532   5.816   1.599
 6574SOL     OW31375   5.280   4.102   0.823
 6574SOL    HW131376   5.337   4.082   0.903
 6574SOL    HW231377   5.327   4.073   0.740
 6575SOL     OW31378   6.602   0.528   7.769
 6575SOL    HW131379   6.546   0.450   7.740
 6575SOL    HW231380   6.687   0.494   7.810
 6576SOL     OW31381   7.115   5.102   3.404
 6576SOL    HW131382   7.048   5.034   3.432
 6576SOL    HW231383   7.192   5.101   3.468
 6577SOL     OW31384   7.684   4.187   1.434
 6577SOL    HW131385   7.608   4.237   1.392
 6577SOL    HW231386   7.689   4.211   1.532
 6578SOL     OW31387   4.935   7.242   1.149
 6578SOL    HW131388   5.000   7.177   1.110
 6578SOL    HW231389   4.841   7.210   1.133
 6579SOL     OW31390   8.906   8.669   7.729
 6579SOL    HW131391   8.960   8.736   7.780
 6579SOL    HW231392   8.817   8.659   7.771
 6580SOL     OW31393   5.556   0.534   2.286
 6580SOL    HW131394   5.544   0.542   2.385
 6580SOL    HW231395   5.520   0.446   2.254
 6581SOL     OW31396   5.147   5.820   2.535
 6581SOL    HW131397   5.234   5.867   2.519
 6581SOL    HW231398   5.120   5.831   2.631
 6582SOL     OW31399   0.694   0.317   4.077
 6582SOL    HW131400   0.731   0.340   4.167
 6582SOL    HW231401   0.767   0.322   4.009
 6583SOL     OW31402   7.256   6.792   7.421
 6583SOL    HW131403   7.313   6.798   7.502
 6583SOL    HW231404   7.188   6.866   7.421
 6584SOL     OW31405   3.918   5.515   3.668
 6584SOL    HW131406   3.969   5.431   3.686
 6584SOL    HW231407   3.973   5.594   3.694
 6585SOL     OW31408   8.104   6.608   7.734
 6585SOL    HW131409   8.194   6.650   7.721
 6585SOL    HW231410   8.115   6.510   7.750
 6586SOL     OW31411   1.736   0.542   6.518
 6586SOL    HW131412   1.831   0.512   6.512
 6586SOL    HW231413   1.714   0.566   6.613
 6587SOL     OW31414   8.628   1.074   5.503
 6587SOL    HW131415   8.543   1.025   5.485
 6587SOL    HW231416   8.703   1.033   5.450
 6588SOL     OW31417   8.055   0.716   1.515
 6588SOL    HW131418   8.014   0.628   1.488
 6588SOL    HW231419   8.106   0.754   1.438
 6589SOL     OW31420   8.838   2.519   0.472
 6589SOL    HW131421   8.870   2.613   0.482
 6589SOL    HW231422   8.743   2.513   0.502
 6590SOL     OW31423   7.058   3.980   1.332
 6590SOL    HW131424   7.049   4.078   1.317
 6590SOL    HW231425   6.978   3.946   1.383
 6591SOL     OW31426   4.844   9.370   4.554
 6591SOL    HW131427   4.930   9.373   4.605
 6591SOL    HW231428   4.852   9.428   4.473
 6592SOL     OW31429   5.920   3.575   1.853
 6592SOL    HW131430   5.975   3.617   1.924
 6592SOL    HW231431   5.976   3.557   1.772
 6593SOL     OW31432   0.115   5.116   2.739
 6593SOL    HW131433   0.128   5.023   2.705
 6593SOL    HW231434   0.194   5.172   2.717
 6594SOL     OW31435   3.931   9.094   2.651
 6594SOL    HW131436   4.023   9.110   2.687
 6594SOL    HW231437   3.864   9.102   2.724
 6595SOL     OW31438   2.075   0.932   4.343
 6595SOL    HW131439   1.989   0.974   4.314
 6595SOL    HW231440   2.090   0.950   4.441
 6596SOL     OW31441   1.330   6.269   1.718
 6596SOL    HW131442   1.245   6.233   1.679
 6596SOL    HW231443   1.395   6.194   1.731
 6597SOL     OW31444   5.120   8.872   1.618
 6597SOL    HW131445   5.157   8.937   1.552
 6597SOL    HW231446   5.155   8.780   1.598
 6598SOL     OW31447   6.283   1.148   3.325
 6598SOL    HW131448   6.361   1.085   3.326
 6598SOL    HW231449   6.288   1.205   3.244
 6599SOL     OW31450   1.473   1.535   4.097
 6599SOL    HW131451   1.382   1.571   4.076
 6599SOL    HW231452   1.535   1.610   4.120
 6600SOL     OW31453   6.996   4.131   7.731
 6600SOL    HW131454   7.084   4.165   7.763
 6600SOL    HW231455   7.009   4.074   7.650
 6601SOL     OW31456   1.780   2.630   6.946
 6601SOL    HW131457   1.704   2.566   6.952
 6601SOL    HW231458   1.784   2.669   6.854
 6602SOL     OW31459   8.966   2.919   6.092
 6602SOL    HW131460   8.936   2.840   6.144
 6602SOL    HW231461   8.928   3.003   6.132
 6603SOL     OW31462   4.293   0.543   5.521
 6603SOL    HW131463   4.226   0.564   5.450
 6603SOL    HW231464   4.261   0.580   5.609
 6604SOL     OW31465   7.621   3.534   1.709
 6604SOL    HW131466   7.603   3.436   1.707
 6604SOL    HW231467   7.719   3.550   1.702
 6605SOL     OW31468   5.828   9.358   4.848
 6605SOL    HW131469   5.744   9.342   4.796
 6605SOL    HW231470   5.806   9.411   4.931
 6606SOL     OW31471   7.527   9.615   2.994
 6606SOL    HW131472   7.503   9.543   2.928
 6606SOL    HW231473   7.526   9.577   3.087
 6607SOL     OW31474   9.166   7.203   1.430
 6607SOL    HW131475   9.089   7.139   1.433
 6607SOL    HW231476   9.251   7.151   1.423
 6608SOL     OW31477   8.426   2.279   5.832
 6608SOL    HW131478   8.386   2.217   5.765
 6608SOL    HW231479   8.355   2.339   5.869
 6609SOL     OW31480   0.920   5.908   1.466
 6609SOL    HW131481   0.948   5.903   1.562
 6609SOL    HW231482   0.952   5.994   1.427
 6610SOL     OW31483   1.113   0.889   5.625
 6610SOL    HW131484   1.160   0.903   5.712
 6610SOL    HW231485   1.128   0.968   5.566
 6611SOL     OW31486   0.413   8.589   1.567
 6611SOL    HW131487   0.404   8.685   1.593
 6611SOL    HW231488   0.322   8.551   1.548
 6612SOL     OW31489   6.435   4.483   0.877
 6612SOL    HW131490   6.380   4.534   0.811
 6612SOL    HW231491   6.399   4.496   0.969
 6613SOL     OW31492   9.358   1.791   2.310
 6613SOL    HW131493   9.366   1.825   2.404
 6613SOL    HW231494   9.301   1.853   2.256
 6614SOL     OW31495   3.280   7.326   4.784
 6614SOL    HW131496   3.198   7.268   4.783
 6614SOL    HW231497   3.333   7.307   4.866
 6615SOL     OW31498   0.424   2.369   1.730
 6615SOL    HW131499   0.412   2.467   1.709
 6615SOL    HW231500   0.400   2.353   1.825
 6616SOL     OW31501   1.251   7.402   7.729
 6616SOL    HW131502   1.328   7.461   7.752
 6616SOL    HW231503   1.223   7.351   7.810
 6617SOL     OW31504   1.262   9.630   1.177
 6617SOL    HW131505   1.243   9.613   1.274
 6617SOL    HW231506   1.207   9.707   1.145
 6618SOL     OW31507   7.930   8.287   1.137
 6618SOL    HW131508   7.974   8.377   1.147
 6618SOL    HW231509   8.000   8.216   1.141
 6619SOL     OW31510   1.839   8.744   4.792
 6619SOL    HW131511   1.831   8.652   4.829
 6619SOL    HW231512   1.769   8.758   4.721
 6620SOL     OW31513   3.535   4.280   3.699
 6620SOL    HW131514   3.558   4.378   3.698
 6620SOL    HW231515   3.483   4.258   3.617
 6621SOL     OW31516   7.674   3.772   5.034
 6621SOL    HW131517   7.756   3.715   5.028
 6621SOL    HW231518   7.698   3.868   5.023
 6622SOL     OW31519   5.619   0.874   5.309
 6622SOL    HW131520   5.691   0.921   5.360
 6622SOL    HW231521   5.583   0.798   5.364
 6623SOL     OW31522   9.768   2.312   3.849
 6623SOL    HW131523   9.822   2.326   3.766
 6623SOL    HW231524   9.677   2.279   3.825
 6624SOL     OW31525   0.879   3.329   6.831
 6624SOL    HW131526   0.908   3.423   6.813
 6624SOL    HW231527   0.782   3.327   6.853
 6625SOL     OW31528   7.373   6.262   5.714
 6625SOL    HW131529   7.344   6.348   5.755
 6625SOL    HW231530   7.446   6.221   5.769
 6626SOL     OW31531   4.282   4.493   5.023
 6626SOL    HW131532   4.198   4.546   5.018
 6626SOL    HW231533   4.276   4.417   4.958
 6627SOL     OW31534   4.709   1.644   5.577
 6627SOL    HW131535   4.670   1.569   5.525
 6627SOL    HW231536   4.809   1.641   5.572
 6628SOL     OW31537   2.199   7.046   7.169
 6628SOL    HW131538   2.241   7.022   7.082
 6628SOL    HW231539   2.101   7.061   7.157
 6629SOL     OW31540   3.231   8.824   3.542
 6629SOL    HW131541   3.277   8.913   3.550
 6629SOL    HW231542   3.286   8.754   3.588
 6630SOL     OW31543   7.748   3.872   0.137
 6630SOL    HW131544   7.715   3.952   0.087
 6630SOL    HW231545   7.848   3.868   0.132
 6631SOL     OW31546   8.384   6.452   7.021
 6631SOL    HW131547   8.304   6.455   6.961
 6631SOL    HW231548   8.356   6.430   7.114
 6632SOL     OW31549   7.785   4.955   0.631
 6632SOL    HW131550   7.728   4.879   0.664
 6632SOL    HW231551   7.754   5.041   0.672
 6633SOL     OW31552   9.498   1.307   7.004
 6633SOL    HW131553   9.526   1.221   6.962
 6633SOL    HW231554   9.398   1.310   7.010
 6634SOL     OW31555   1.992   9.951   4.073
 6634SOL    HW131556   1.936   9.906   4.142
 6634SOL    HW231557   2.080   9.977   4.113
 6635SOL     OW31558   2.655   8.623   6.345
 6635SOL    HW131559   2.709   8.596   6.265
 6635SOL    HW231560   2.561   8.640   6.318
 6636SOL     OW31561   0.454   2.798   1.046
 6636SOL    HW131562   0.430   2.895   1.054
 6636SOL    HW231563   0.400   2.744   1.110
 6637SOL     OW31564   1.357   2.583   5.054
 6637SOL    HW131565   1.269   2.587   5.101
 6637SOL    HW231566   1.343   2.594   4.956
 6638SOL     OW31567   8.846   6.302   3.687
 6638SOL    HW131568   8.845   6.313   3.786
 6638SOL    HW231569   8.807   6.383   3.644
 6639SOL     OW31570   2.800   4.002   1.782
 6639SOL    HW131571   2.730   4.069   1.760
 6639SOL    HW231572   2.825   4.010   1.879
 6640SOL     OW31573   7.368   3.244   0.487
 6640SOL    HW131574   7.378   3.145   0.486
 6640SOL    HW231575   7.420   3.283   0.411
 6641SOL     OW31576   4.060   0.561   0.311
 6641SOL    HW131577   4.115   0.532   0.390
 6641SOL    HW231578   4.097   0.647   0.275
 6642SOL     OW31579   2.387   6.343   6.635
 6642SOL    HW131580   2.350   6.292   6.558
 6642SOL    HW231581   2.322   6.340   6.711
 6643SOL     OW31582   1.769   7.976   0.623
 6643SOL    HW131583   1.731   8.046   0.683
 6643SOL    HW231584   1.724   7.980   0.534
 6644SOL     OW31585   1.943   1.819   4.824
 6644SOL    HW131586   1.892   1.791   4.742
 6644SOL    HW231587   1.962   1.917   4.819
 6645SOL     OW31588   0.765   6.467   0.695
 6645SOL    HW131589   0.676   6.513   0.686
 6645SOL    HW231590   0.762   6.404   0.772
 6646SOL     OW31591   3.587   0.684   0.763
 6646SOL    HW131592   3.527   0.646   0.834
 6646SOL    HW231593   3.660   0.619   0.742
 6647SOL     OW31594   7.687   1.445   0.215
 6647SOL    HW131595   7.774   1.396   0.203
 6647SOL    HW231596   7.620   1.384   0.259
 6648SOL     OW31597   1.613   7.924   2.104
 6648SOL    HW131598   1.606   7.856   2.031
 6648SOL    HW231599   1.709   7.939   2.126
 6649SOL     OW31600   9.939   6.691   6.699
 6649SOL    HW131601   9.980   6.710   6.609
 6649SOL    HW231602   9.988   6.617   6.743
 6650SOL     OW31603   9.369   3.054   5.484
 6650SOL    HW131604   9.310   3.103   5.549
 6650SOL    HW231605   9.408   2.973   5.529
 6651SOL     OW31606   2.771   4.984   4.369
 6651SOL    HW131607   2.675   4.984   4.341
 6651SOL    HW231608   2.787   4.912   4.437
 6652SOL     OW31609   1.882   4.932   4.393
 6652SOL    HW131610   1.959   4.987   4.361
 6652SOL    HW231611   1.822   4.910   4.316
 6653SOL     OW31612   8.629   1.809   6.973
 6653SOL    HW131613   8.634   1.826   7.071
 6653SOL    HW231614   8.673   1.722   6.952
 6654SOL     OW31615   2.902   4.918   4.710
 6654SOL    HW131616   2.821   4.875   4.669
 6654SOL    HW231617   2.874   4.969   4.791
 6655SOL     OW31618   8.200   0.872   6.023
 6655SOL    HW131619   8.233   0.907   6.111
 6655SOL    HW231620   8.195   0.947   5.957
 6656SOL     OW31621   2.519   3.295   4.291
 6656SOL    HW131622   2.583   3.233   4.245
 6656SOL    HW231623   2.493   3.367   4.227
 6657SOL     OW31624   6.324   1.749   3.404
 6657SOL    HW131625   6.397   1.779   3.342
 6657SOL    HW231626   6.298   1.655   3.381
 6658SOL     OW31627   7.671   4.800   3.609
 6658SOL    HW131628   7.600   4.740   3.570
 6658SOL    HW231629   7.636   4.842   3.692
 6659SOL     OW31630   3.169   0.477   3.692
 6659SOL    HW131631   3.110   0.540   3.743
 6659SOL    HW231632   3.234   0.434   3.754
 6660SOL     OW31633   0.962   2.689   1.096
 6660SOL    HW131634   0.878   2.742   1.080
 6660SOL    HW231635   0.942   2.592   1.090
 6661SOL     OW31636   8.290   1.369   0.032
 6661SOL    HW131637   8.244   1.306  10.051
 6661SOL    HW231638   8.224   1.436   0.066
 6662SOL     OW31639   7.894   9.165   3.819
 6662SOL    HW131640   7.991   9.137   3.815
 6662SOL    HW231641   7.884   9.256   3.780
 6663SOL     OW31642   3.185   9.571   3.223
 6663SOL    HW131643   3.110   9.623   3.181
 6663SOL    HW231644   3.223   9.623   3.299
 6664SOL     OW31645   9.749   3.712   1.580
 6664SOL    HW131646   9.764   3.613   1.578
 6664SOL    HW231647   9.664   3.732   1.628
 6665SOL     OW31648   4.315   9.301   5.788
 6665SOL    HW131649   4.353   9.292   5.880
 6665SOL    HW231650   4.367   9.244   5.725
 6666SOL     OW31651   5.108   1.758   0.263
 6666SOL    HW131652   5.121   1.846   0.218
 6666SOL    HW231653   5.101   1.771   0.362
 6667SOL     OW31654   0.300   2.653   1.224
 6667SOL    HW131655   0.375   2.593   1.253
 6667SOL    HW231656   0.222   2.639   1.285
 6668SOL     OW31657   8.260   9.089   3.927
 6668SOL    HW131658   8.324   9.130   3.863
 6668SOL    HW231659   8.299   9.089   4.019
 6669SOL     OW31660   2.287   8.154   2.138
 6669SOL    HW131661   2.262   8.057   2.132
 6669SOL    HW231662   2.210   8.210   2.105
 6670SOL     OW31663   7.466   5.321   7.405
 6670SOL    HW131664   7.495   5.305   7.500
 6670SOL    HW231665   7.451   5.419   7.391
 6671SOL     OW31666   5.490   8.720   7.608
 6671SOL    HW131667   5.417   8.727   7.676
 6671SOL    HW231668   5.468   8.646   7.544
 6672SOL     OW31669   2.936   6.188   5.072
 6672SOL    HW131670   2.851   6.154   5.032
 6672SOL    HW231671   2.948   6.148   5.163
 6673SOL     OW31672   2.398   5.647   5.441
 6673SOL    HW131673   2.338   5.618   5.516
 6673SOL    HW231674   2.353   5.631   5.354
 6674SOL     OW31675   3.459   2.768   5.605
 6674SOL    HW131676   3.520   2.835   5.647
 6674SOL    HW231677   3.480   2.677   5.639
 6675SOL     OW31678   2.493   6.691   7.221
 6675SOL    HW131679   2.483   6.787   7.245
 6675SOL    HW231680   2.428   6.667   7.149
 6676SOL     OW31681   6.869   3.197   0.472
 6676SOL    HW131682   6.965   3.223   0.467
 6676SOL    HW231683   6.822   3.255   0.538
 6677SOL     OW31684   4.044   6.193   2.280
 6677SOL    HW131685   4.043   6.094   2.295
 6677SOL    HW231686   4.084   6.238   2.360
 6678SOL     OW31687   1.857   7.671   1.992
 6678SOL    HW131688   1.926   7.739   1.968
 6678SOL    HW231689   1.767   7.702   1.963
 6679SOL     OW31690   2.991   6.316   3.657
 6679SOL    HW131691   2.919   6.313   3.588
 6679SOL    HW231692   3.008   6.411   3.683
 6680SOL     OW31693   7.449   8.226   4.512
 6680SOL    HW131694   7.371   8.242   4.573
 6680SOL    HW231695   7.518   8.172   4.560
 6681SOL     OW31696   2.412   1.831   2.299
 6681SOL    HW131697   2.373   1.812   2.389
 6681SOL    HW231698   2.416   1.930   2.285
 6682SOL     OW31699   8.300   3.268   5.175
 6682SOL    HW131700   8.327   3.328   5.100
 6682SOL    HW231701   8.380   3.217   5.207
 6683SOL     OW31702   2.740   9.213   5.037
 6683SOL    HW131703   2.663   9.259   4.993
 6683SOL    HW231704   2.825   9.234   4.989
 6684SOL     OW31705   7.800   4.410   7.690
 6684SOL    HW131706   7.805   4.488   7.627
 6684SOL    HW231707   7.836   4.328   7.646
 6685SOL     OW31708   2.784   1.241   3.825
 6685SOL    HW131709   2.856   1.261   3.759
 6685SOL    HW231710   2.697   1.274   3.789
 6686SOL     OW31711   1.712   2.324   5.139
 6686SOL    HW131712   1.676   2.416   5.149
 6686SOL    HW231713   1.671   2.264   5.207
 6687SOL     OW31714   2.699   7.073   7.504
 6687SOL    HW131715   2.779   7.013   7.504
 6687SOL    HW231716   2.616   7.018   7.508
 6688SOL     OW31717   0.576   8.542   4.877
 6688SOL    HW131718   0.582   8.458   4.823
 6688SOL    HW231719   0.668   8.576   4.897
 6689SOL     OW31720   4.487   8.889   2.735
 6689SOL    HW131721   4.422   8.913   2.663
 6689SOL    HW231722   4.538   8.970   2.762
 6690SOL     OW31723   4.503   2.075   5.309
 6690SOL    HW131724   4.595   2.035   5.309
 6690SOL    HW231725   4.438   2.006   5.341
 6691SOL     OW31726   6.174   1.679   0.687
 6691SOL    HW131727   6.122   1.715   0.765
 6691SOL    HW231728   6.168   1.742   0.610
 6692SOL     OW31729   1.401   8.147   0.418
 6692SOL    HW131730   1.314   8.097   0.419
 6692SOL    HW231731   1.476   8.082   0.425
 6693SOL     OW31732   5.481   1.555   5.426
 6693SOL    HW131733   5.405   1.588   5.481
 6693SOL    HW231734   5.563   1.550   5.483
 6694SOL     OW31735   3.704   8.442   1.770
 6694SOL    HW131736   3.688   8.352   1.731
 6694SOL    HW231737   3.616   8.485   1.792
 6695SOL     OW31738   1.136   6.615   7.519
 6695SOL    HW131739   1.176   6.671   7.590
 6695SOL    HW231740   1.201   6.605   7.443
 6696SOL     OW31741   6.755   0.929   0.489
 6696SOL    HW131742   6.805   0.960   0.569
 6696SOL    HW231743   6.770   0.994   0.414
 6697SOL     OW31744   4.196   8.936   5.166
 6697SOL    HW131745   4.147   9.018   5.196
 6697SOL    HW231746   4.294   8.950   5.179
 6698SOL     OW31747   3.340   9.762   3.416
 6698SOL    HW131748   3.417   9.719   3.369
 6698SOL    HW231749   3.296   9.827   3.354
 6699SOL     OW31750   4.427   9.645   0.158
 6699SOL    HW131751   4.471   9.564   0.196
 6699SOL    HW231752   4.346   9.668   0.213
 6700SOL     OW31753   5.011   8.503   2.162
 6700SOL    HW131754   5.073   8.533   2.090
 6700SOL    HW231755   4.925   8.471   2.121
 6701SOL     OW31756   9.904   6.715   1.706
 6701SOL    HW131757   9.992   6.736   1.662
 6701SOL    HW231758   9.832   6.718   1.637
 6702SOL     OW31759   3.726   4.097   5.383
 6702SOL    HW131760   3.772   4.162   5.323
 6702SOL    HW231761   3.642   4.138   5.419
 6703SOL     OW31762   8.865   7.466   5.500
 6703SOL    HW131763   8.913   7.379   5.497
 6703SOL    HW231764   8.920   7.533   5.550
 6704SOL     OW31765   2.211   2.534   7.795
 6704SOL    HW131766   2.156   2.606   7.753
 6704SOL    HW231767   2.301   2.571   7.819
 6705SOL     OW31768   9.333   3.962   7.569
 6705SOL    HW131769   9.240   3.928   7.581
 6705SOL    HW231770   9.390   3.936   7.647
 6706SOL     OW31771   1.309   7.881   5.981
 6706SOL    HW131772   1.327   7.833   6.067
 6706SOL    HW231773   1.239   7.832   5.930
 6707SOL     OW31774   6.846   2.345   1.882
 6707SOL    HW131775   6.775   2.344   1.952
 6707SOL    HW231776   6.831   2.269   1.819
 6708SOL     OW31777   4.574   2.974   0.736
 6708SOL    HW131778   4.574   2.898   0.671
 6708SOL    HW231779   4.667   3.007   0.749
 6709SOL     OW31780   2.684   6.343   0.808
 6709SOL    HW131781   2.769   6.292   0.821
 6709SOL    HW231782   2.624   6.328   0.887
 6710SOL     OW31783   0.501   8.555   2.117
 6710SOL    HW131784   0.460   8.639   2.152
 6710SOL    HW231785   0.446   8.519   2.042
 6711SOL     OW31786   1.434   6.517   2.818
 6711SOL    HW131787   1.358   6.477   2.869
 6711SOL    HW231788   1.400   6.552   2.730
 6712SOL     OW31789   5.017   0.906   0.413
 6712SOL    HW131790   4.960   0.847   0.356
 6712SOL    HW231791   5.111   0.903   0.381
 6713SOL     OW31792   1.119   9.090   1.985
 6713SOL    HW131793   1.031   9.086   2.031
 6713SOL    HW231794   1.150   8.998   1.963
 6714SOL     OW31795   8.565   6.213   5.523
 6714SOL    HW131796   8.589   6.138   5.584
 6714SOL    HW231797   8.642   6.232   5.462
 6715SOL     OW31798   9.885   6.786   0.334
 6715SOL    HW131799   9.842   6.706   0.293
 6715SOL    HW231800   9.959   6.818   0.275
 6716SOL     OW31801   8.181   6.643   6.455
 6716SOL    HW131802   8.165   6.718   6.390
 6716SOL    HW231803   8.248   6.580   6.417
 6717SOL     OW31804   4.016   4.487   1.461
 6717SOL    HW131805   3.947   4.544   1.416
 6717SOL    HW231806   3.987   4.468   1.555
 6718SOL     OW31807   1.194   0.215   6.752
 6718SOL    HW131808   1.188   0.137   6.689
 6718SOL    HW231809   1.106   0.228   6.798
 6719SOL     OW31810   6.683   2.515   2.941
 6719SOL    HW131811   6.634   2.471   2.865
 6719SOL    HW231812   6.752   2.453   2.977
 6720SOL     OW31813   2.223   1.962   0.806
 6720SOL    HW131814   2.251   1.868   0.784
 6720SOL    HW231815   2.301   2.023   0.795
 6721SOL     OW31816   5.670   9.040   3.834
 6721SOL    HW131817   5.766   9.050   3.807
 6721SOL    HW231818   5.665   8.997   3.924
 6722SOL     OW31819   4.318   4.236   4.889
 6722SOL    HW131820   4.240   4.181   4.920
 6722SOL    HW231821   4.399   4.213   4.944
 6723SOL     OW31822   2.246   9.937   2.060
 6723SOL    HW131823   2.269   0.018   2.007
 6723SOL    HW231824   2.148   9.922   2.059
 6724SOL     OW31825   7.999   9.484   4.447
 6724SOL    HW131826   8.015   9.401   4.393
 6724SOL    HW231827   7.995   9.460   4.544
 6725SOL     OW31828   9.191   5.939   2.630
 6725SOL    HW131829   9.247   5.925   2.712
 6725SOL    HW231830   9.161   5.850   2.595
 6726SOL     OW31831   5.411   0.010   5.449
 6726SOL    HW131832   5.320   0.051   5.456
 6726SOL    HW231833   5.460   0.021   5.535
 6727SOL     OW31834   0.331   8.434   3.259
 6727SOL    HW131835   0.252   8.412   3.203
 6727SOL    HW231836   0.380   8.350   3.283
 6728SOL     OW31837   8.037   0.910   6.310
 6728SOL    HW131838   7.978   0.975   6.262
 6728SOL    HW231839   7.986   0.826   6.329
 6729SOL     OW31840   1.626   6.357   3.431
 6729SOL    HW131841   1.578   6.442   3.453
 6729SOL    HW231842   1.606   6.289   3.502
 6730SOL     OW31843   3.915   3.028   1.216
 6730SOL    HW131844   3.857   3.059   1.291
 6730SOL    HW231845   3.891   2.934   1.192
 6731SOL     OW31846   3.154   9.430   4.248
 6731SOL    HW131847   3.199   9.406   4.162
 6731SOL    HW231848   3.073   9.373   4.260
 6732SOL     OW31849   1.664   0.973   1.783
 6732SOL    HW131850   1.650   0.930   1.873
 6732SOL    HW231851   1.734   1.044   1.790
 6733SOL     OW31852   3.294   7.725   1.341
 6733SOL    HW131853   3.308   7.670   1.423
 6733SOL    HW231854   3.317   7.672   1.260
 6734SOL     OW31855   8.887   3.390   2.906
 6734SOL    HW131856   8.840   3.303   2.921
 6734SOL    HW231857   8.908   3.401   2.809
 6735SOL     OW31858   8.344   6.691   6.083
 6735SOL    HW131859   8.405   6.656   6.012
 6735SOL    HW231860   8.398   6.719   6.163
 6736SOL     OW31861   0.272   3.098   5.113
 6736SOL    HW131862   0.237   3.071   5.024
 6736SOL    HW231863   0.204   3.076   5.183
 6737SOL     OW31864   1.987   3.745   3.803
 6737SOL    HW131865   1.900   3.710   3.837
 6737SOL    HW231866   2.050   3.758   3.880
 6738SOL     OW31867   9.660   0.342   3.133
 6738SOL    HW131868   9.610   0.267   3.090
 6738SOL    HW231869   9.595   0.410   3.168
 6739SOL     OW31870   8.008   0.698   5.403
 6739SOL    HW131871   8.054   0.752   5.332
 6739SOL    HW231872   8.056   0.611   5.416
 6740SOL     OW31873   6.597   0.447   5.934
 6740SOL    HW131874   6.686   0.426   5.893
 6740SOL    HW231875   6.606   0.445   6.034
 6741SOL     OW31876   3.790   8.616   5.523
 6741SOL    HW131877   3.880   8.578   5.543
 6741SOL    HW231878   3.787   8.645   5.427
 6742SOL     OW31879   7.917   7.845   3.393
 6742SOL    HW131880   7.858   7.841   3.311
 6742SOL    HW231881   7.994   7.783   3.381
 6743SOL     OW31882   7.267   6.636   5.495
 6743SOL    HW131883   7.254   6.556   5.436
 6743SOL    HW231884   7.190   6.698   5.482
 6744SOL     OW31885   3.272   5.532   6.285
 6744SOL    HW131886   3.269   5.604   6.216
 6744SOL    HW231887   3.317   5.451   6.246
 6745SOL     OW31888   1.191   8.131   5.987
 6745SOL    HW131889   1.239   8.044   5.990
 6745SOL    HW231890   1.255   8.204   5.961
 6746SOL     OW31891   4.766   7.626   5.275
 6746SOL    HW131892   4.789   7.713   5.229
 6746SOL    HW231893   4.760   7.641   5.373
 6747SOL     OW31894   0.784   0.742   5.345
 6747SOL    HW131895   0.752   0.711   5.434
 6747SOL    HW231896   0.713   0.727   5.277
 6748SOL     OW31897   9.132   6.771   6.263
 6748SOL    HW131898   9.171   6.843   6.205
 6748SOL    HW231899   9.041   6.798   6.294
 6749SOL     OW31900   2.944   8.949   2.611
 6749SOL    HW131901   2.937   8.999   2.698
 6749SOL    HW231902   2.876   8.876   2.609
 6750SOL     OW31903   0.040   3.781   0.066
 6750SOL    HW131904   0.043   3.786   0.166
 6750SOL    HW231905   9.967   3.841   0.032
 6751SOL     OW31906   1.024   1.776   0.638
 6751SOL    HW131907   0.977   1.795   0.551
 6751SOL    HW231908   1.011   1.679   0.661
 6752SOL     OW31909   0.539   3.337   3.034
 6752SOL    HW131910   0.575   3.367   3.122
 6752SOL    HW231911   0.447   3.300   3.046
 6753SOL     OW31912   1.053   0.239   4.338
 6753SOL    HW131913   1.055   0.162   4.274
 6753SOL    HW231914   1.100   0.213   4.423
 6754SOL     OW31915   4.944   7.210   2.651
 6754SOL    HW131916   4.939   7.302   2.610
 6754SOL    HW231917   4.991   7.215   2.739
 6755SOL     OW31918   4.706   9.530   7.115
 6755SOL    HW131919   4.726   9.535   7.213
 6755SOL    HW231920   4.650   9.450   7.097
 6756SOL     OW31921   2.084   9.362   5.629
 6756SOL    HW131922   2.024   9.294   5.671
 6756SOL    HW231923   2.146   9.399   5.699
 6757SOL     OW31924   3.781   6.950   2.716
 6757SOL    HW131925   3.799   6.866   2.768
 6757SOL    HW231926   3.868   6.986   2.682
 6758SOL     OW31927   2.917   2.929   3.529
 6758SOL    HW131928   2.933   3.025   3.552
 6758SOL    HW231929   2.843   2.894   3.585
 6759SOL     OW31930   1.834   2.031   2.621
 6759SOL    HW131931   1.800   1.939   2.639
 6759SOL    HW231932   1.874   2.069   2.705
 6760SOL     OW31933   3.709   0.683   7.387
 6760SOL    HW131934   3.621   0.677   7.340
 6760SOL    HW231935   3.766   0.605   7.361
 6761SOL     OW31936   2.620   1.431   0.459
 6761SOL    HW131937   2.536   1.440   0.513
 6761SOL    HW231938   2.599   1.443   0.362
 6762SOL     OW31939   5.353   1.560   6.212
 6762SOL    HW131940   5.350   1.589   6.308
 6762SOL    HW231941   5.440   1.590   6.172
 6763SOL     OW31942   8.988   8.235   1.621
 6763SOL    HW131943   8.980   8.192   1.711
 6763SOL    HW231944   8.929   8.186   1.556
 6764SOL     OW31945   8.875   0.743   2.191
 6764SOL    HW131946   8.842   0.746   2.097
 6764SOL    HW231947   8.889   0.648   2.219
 6765SOL     OW31948   1.864   8.888   0.649
 6765SOL    HW131949   1.912   8.952   0.710
 6765SOL    HW231950   1.929   8.822   0.612
 6766SOL     OW31951   9.892   3.089   4.493
 6766SOL    HW131952   9.980   3.042   4.498
 6766SOL    HW231953   9.824   3.040   4.548
 6767SOL     OW31954   9.586   9.965   5.056
 6767SOL    HW131955   9.667   9.911   5.034
 6767SOL    HW231956   9.506   9.922   5.015
 6768SOL     OW31957   2.469   2.885   5.261
 6768SOL    HW131958   2.453   2.984   5.265
 6768SOL    HW231959   2.490   2.851   5.353
 6769SOL     OW31960   1.176   9.910   5.261
 6769SOL    HW131961   1.146   9.817   5.283
 6769SOL    HW231962   1.259   9.907   5.207
 6770SOL     OW31963   6.137   9.934   1.819
 6770SOL    HW131964   6.121   9.867   1.892
 6770SOL    HW231965   6.235   9.941   1.800
 6771SOL     OW31966   8.466   5.873   2.138
 6771SOL    HW131967   8.392   5.832   2.191
 6771SOL    HW231968   8.554   5.855   2.184
 6772SOL     OW31969   5.194   0.127   4.858
 6772SOL    HW131970   5.211   0.040   4.904
 6772SOL    HW231971   5.279   0.181   4.856
 6773SOL     OW31972   2.207   0.531   6.635
 6773SOL    HW131973   2.136   0.563   6.698
 6773SOL    HW231974   2.276   0.480   6.687
 6774SOL     OW31975   3.811   2.056   2.907
 6774SOL    HW131976   3.880   2.050   2.834
 6774SOL    HW231977   3.832   2.133   2.967
 6775SOL     OW31978   4.349   1.145   6.349
 6775SOL    HW131979   4.406   1.213   6.395
 6775SOL    HW231980   4.394   1.055   6.355
 6776SOL     OW31981   6.915   1.839   4.683
 6776SOL    HW131982   6.988   1.771   4.677
 6776SOL    HW231983   6.913   1.879   4.775
 6777SOL     OW31984   4.511   1.307   6.512
 6777SOL    HW131985   4.505   1.404   6.534
 6777SOL    HW231986   4.583   1.264   6.567
 6778SOL     OW31987   5.541   2.031   6.152
 6778SOL    HW131988   5.634   1.998   6.169
 6778SOL    HW231989   5.514   2.008   6.059
 6779SOL     OW31990   9.714   5.896   3.882
 6779SOL    HW131991   9.706   5.909   3.783
 6779SOL    HW231992   9.694   5.982   3.928
 6780SOL     OW31993   4.008   0.151   7.131
 6780SOL    HW131994   4.055   0.068   7.101
 6780SOL    HW231995   4.061   0.231   7.103
 6781SOL     OW31996   5.552   3.231   0.815
 6781SOL    HW131997   5.615   3.300   0.781
 6781SOL    HW231998   5.494   3.270   0.886
 6782SOL     OW31999   0.772   6.229   4.459
 6782SOL    HW132000   0.808   6.219   4.366
 6782SOL    HW232001   0.697   6.165   4.473
 6783SOL     OW32002   1.222   1.625   4.061
 6783SOL    HW132003   1.187   1.703   4.010
 6783SOL    HW232004   1.204   1.638   4.159
 6784SOL     OW32005   7.739   0.354   5.904
 6784SOL    HW132006   7.652   0.402   5.888
 6784SOL    HW232007   7.815   0.417   5.887
 6785SOL     OW32008   0.088   6.490   6.814
 6785SOL    HW132009   0.142   6.551   6.873
 6785SOL    HW232010   0.150   6.441   6.752
 6786SOL     OW32011   8.819   0.832   7.903
 6786SOL    HW132012   8.864   0.769   7.839
 6786SOL    HW232013   8.807   0.786   7.991
 6787SOL     OW32014   2.614   1.091   3.189
 6787SOL    HW132015   2.587   1.181   3.222
 6787SOL    HW232016   2.644   1.034   3.265
 6788SOL     OW32017   0.109   2.460   1.874
 6788SOL    HW132018   0.192   2.415   1.908
 6788SOL    HW232019   0.112   2.557   1.895
 6789SOL     OW32020   6.961   3.253   1.949
 6789SOL    HW132021   6.929   3.161   1.974
 6789SOL    HW232022   6.986   3.254   1.853
 6790SOL     OW32023   2.545   8.293   6.174
 6790SOL    HW132024   2.513   8.198   6.167
 6790SOL    HW232025   2.631   8.303   6.124
 6791SOL     OW32026   1.187   8.879   2.236
 6791SOL    HW132027   1.175   8.973   2.268
 6791SOL    HW232028   1.111   8.823   2.269
 6792SOL     OW32029   3.515   4.109   1.347
 6792SOL    HW132030   3.433   4.074   1.302
 6792SOL    HW232031   3.561   4.174   1.286
 6793SOL     OW32032   0.234   0.547   0.595
 6793SOL    HW132033   0.299   0.549   0.671
 6793SOL    HW232034   0.229   0.455   0.557
 6794SOL     OW32035   8.476   3.192   7.246
 6794SOL    HW132036   8.488   3.129   7.170
 6794SOL    HW232037   8.419   3.149   7.316
 6795SOL     OW32038   1.854   1.093   7.881
 6795SOL    HW132039   1.895   1.045   7.959
 6795SOL    HW232040   1.925   1.138   7.828
 6796SOL     OW32041   0.831   4.177   7.688
 6796SOL    HW132042   0.804   4.190   7.593
 6796SOL    HW232043   0.844   4.079   7.706
 6797SOL     OW32044   9.561   1.651   5.439
 6797SOL    HW132045   9.500   1.575   5.418
 6797SOL    HW232046   9.648   1.639   5.390
 6798SOL     OW32047   6.706   1.217   0.726
 6798SOL    HW132048   6.773   1.144   0.725
 6798SOL    HW232049   6.707   1.266   0.638
 6799SOL     OW32050   3.951   6.168   0.919
 6799SOL    HW132051   3.987   6.238   0.858
 6799SOL    HW232052   3.923   6.210   1.005
 6800SOL     OW32053   2.731   4.984   5.849
 6800SOL    HW132054   2.818   4.996   5.803
 6800SOL    HW232055   2.714   4.887   5.865
 6801SOL     OW32056   9.544   8.432   2.894
 6801SOL    HW132057   9.455   8.399   2.924
 6801SOL    HW232058   9.550   8.531   2.912
 6802SOL     OW32059   0.698   7.771   2.660
 6802SOL    HW132060   0.780   7.749   2.712
 6802SOL    HW232061   0.680   7.869   2.666
 6803SOL     OW32062   7.728   9.192   6.751
 6803SOL    HW132063   7.722   9.106   6.802
 6803SOL    HW232064   7.650   9.251   6.774
 6804SOL     OW32065   8.166   3.566   2.590
 6804SOL    HW132066   8.149   3.467   2.582
 6804SOL    HW232067   8.223   3.583   2.671
 6805SOL     OW32068   6.097   8.653   4.057
 6805SOL    HW132069   6.168   8.686   3.994
 6805SOL    HW232070   6.040   8.587   4.009
 6806SOL     OW32071   8.544   2.150   2.107
 6806SOL    HW132072   8.572   2.098   2.027
 6806SOL    HW232073   8.612   2.141   2.179
 6807SOL     OW32074   2.281   0.845   6.737
 6807SOL    HW132075   2.338   0.815   6.661
 6807SOL    HW232076   2.338   0.855   6.819
 6808SOL     OW32077   0.870   8.607   0.325
 6808SOL    HW132078   0.844   8.546   0.250
 6808SOL    HW232079   0.839   8.569   0.412
 6809SOL     OW32080   1.190   5.906   4.872
 6809SOL    HW132081   1.235   5.821   4.844
 6809SOL    HW232082   1.229   5.937   4.959
 6810SOL     OW32083   3.923   9.667   5.778
 6810SOL    HW132084   3.967   9.757   5.783
 6810SOL    HW232085   3.990   9.599   5.751
 6811SOL     OW32086   8.789   5.472   4.354
 6811SOL    HW132087   8.861   5.517   4.408
 6811SOL    HW232088   8.730   5.542   4.313
 6812SOL     OW32089   2.384   1.132   3.421
 6812SOL    HW132090   2.438   1.096   3.497
 6812SOL    HW232091   2.433   1.207   3.377
 6813SOL     OW32092   8.371   3.450   4.973
 6813SOL    HW132093   8.419   3.500   5.045
 6813SOL    HW232094   8.303   3.511   4.930
 6814SOL     OW32095   8.507   7.829   2.523
 6814SOL    HW132096   8.508   7.820   2.424
 6814SOL    HW232097   8.601   7.824   2.558
 6815SOL     OW32098   7.833   3.029   2.552
 6815SOL    HW132099   7.786   2.943   2.531
 6815SOL    HW232100   7.836   3.086   2.469
 6816SOL     OW32101   2.145   3.236   6.281
 6816SOL    HW132102   2.167   3.148   6.239
 6816SOL    HW232103   2.128   3.304   6.210
 6817SOL     OW32104   3.550   7.952   4.259
 6817SOL    HW132105   3.459   7.976   4.294
 6817SOL    HW232106   3.603   8.036   4.245
 6818SOL     OW32107   4.389   5.857   0.144
 6818SOL    HW132108   4.358   5.769   0.109
 6818SOL    HW232109   4.314   5.923   0.140
 6819SOL     OW32110   2.562   7.138   7.104
 6819SOL    HW132111   2.528   7.061   7.158
 6819SOL    HW232112   2.488   7.201   7.084
 6820SOL     OW32113   1.615   8.236   3.511
 6820SOL    HW132114   1.533   8.277   3.472
 6820SOL    HW232115   1.666   8.306   3.562
 6821SOL     OW32116   2.147   8.726   7.105
 6821SOL    HW132117   2.059   8.679   7.103
 6821SOL    HW232118   2.144   8.798   7.174
 6822SOL     OW32119   2.230   3.181   7.288
 6822SOL    HW132120   2.317   3.140   7.316
 6822SOL    HW232121   2.240   3.280   7.283
 6823SOL     OW32122   1.274   6.778   3.508
 6823SOL    HW132123   1.239   6.685   3.505
 6823SOL    HW232124   1.211   6.839   3.461
 6824SOL     OW32125   9.720   9.324   6.362
 6824SOL    HW132126   9.749   9.359   6.273
 6824SOL    HW232127   9.764   9.378   6.435
 6825SOL     OW32128   3.903   4.328   3.733
 6825SOL    HW132129   3.996   4.292   3.718
 6825SOL    HW232130   3.839   4.251   3.742
 6826SOL     OW32131   9.883   5.087   6.756
 6826SOL    HW132132   9.925   5.117   6.841
 6826SOL    HW232133   9.811   5.021   6.776
 6827SOL     OW32134   5.403   2.947   0.112
 6827SOL    HW132135   5.459   2.864   0.110
 6827SOL    HW232136   5.461   3.028   0.112
 6828SOL     OW32137   3.815   4.216   7.571
 6828SOL    HW132138   3.803   4.117   7.581
 6828SOL    HW232139   3.911   4.240   7.588
 6829SOL     OW32140   1.551   4.338   3.211
 6829SOL    HW132141   1.494   4.415   3.240
 6829SOL    HW232142   1.529   4.313   3.117
 6830SOL     OW32143   9.883   1.628   7.066
 6830SOL    HW132144   9.944   1.595   6.994
 6830SOL    HW232145   9.933   1.690   7.126
 6831SOL     OW32146   2.734   1.166   4.087
 6831SOL    HW132147   2.758   1.201   3.996
 6831SOL    HW232148   2.758   1.233   4.156
 6832SOL     OW32149   2.697   2.447   4.640
 6832SOL    HW132150   2.641   2.496   4.708
 6832SOL    HW232151   2.683   2.349   4.651
 6833SOL     OW32152   2.346   8.951   6.143
 6833SOL    HW132153   2.413   8.980   6.075
 6833SOL    HW232154   2.371   8.862   6.179
 6834SOL     OW32155   4.190   0.200   2.254
 6834SOL    HW132156   4.155   0.247   2.172
 6834SOL    HW232157   4.253   0.128   2.227
 6835SOL     OW32158   9.609   6.953   2.430
 6835SOL    HW132159   9.625   7.004   2.345
 6835SOL    HW232160   9.665   6.870   2.430
 6836SOL     OW32161   4.070   2.793   7.610
 6836SOL    HW132162   4.152   2.738   7.594
 6836SOL    HW232163   4.095   2.890   7.611
 6837SOL     OW32164   5.692   7.725   4.878
 6837SOL    HW132165   5.633   7.719   4.959
 6837SOL    HW232166   5.787   7.710   4.904
 6838SOL     OW32167   8.099   1.392   4.930
 6838SOL    HW132168   8.136   1.300   4.945
 6838SOL    HW232169   8.034   1.414   5.003
 6839SOL     OW32170   0.637   0.583   0.524
 6839SOL    HW132171   0.642   0.553   0.428
 6839SOL    HW232172   0.644   0.682   0.528
 6840SOL     OW32173   6.583   7.321   6.202
 6840SOL    HW132174   6.632   7.396   6.248
 6840SOL    HW232175   6.486   7.327   6.223
 6841SOL     OW32176   8.766   9.595   1.066
 6841SOL    HW132177   8.782   9.634   0.976
 6841SOL    HW232178   8.770   9.495   1.061
 6842SOL     OW32179   4.315   1.810   1.847
 6842SOL    HW132180   4.374   1.734   1.819
 6842SOL    HW232181   4.355   1.896   1.818
 6843SOL     OW32182   1.273   2.623   5.838
 6843SOL    HW132183   1.366   2.597   5.862
 6843SOL    HW232184   1.217   2.626   5.921
 6844SOL     OW32185   0.899   8.311   3.490
 6844SOL    HW132186   0.831   8.383   3.500
 6844SOL    HW232187   0.940   8.290   3.578
 6845SOL     OW32188   4.612   0.752   1.757
 6845SOL    HW132189   4.599   0.850   1.771
 6845SOL    HW232190   4.619   0.733   1.659
 6846SOL     OW32191   1.455   5.484   5.414
 6846SOL    HW132192   1.405   5.498   5.328
 6846SOL    HW232193   1.392   5.497   5.491
 6847SOL     OW32194   1.921   9.697   7.457
 6847SOL    HW132195   1.903   9.610   7.502
 6847SOL    HW232196   1.902   9.689   7.359
 6848SOL     OW32197   1.296   5.642   6.777
 6848SOL    HW132198   1.246   5.613   6.696
 6848SOL    HW232199   1.304   5.741   6.778
 6849SOL     OW32200   6.611   1.914   4.945
 6849SOL    HW132201   6.581   1.820   4.960
 6849SOL    HW232202   6.550   1.977   4.994
 6850SOL     OW32203   2.088   1.185   7.739
 6850SOL    HW132204   2.134   1.255   7.793
 6850SOL    HW232205   2.153   1.112   7.717
 6851SOL     OW32206   2.697   5.868   0.125
 6851SOL    HW132207   2.609   5.824   0.143
 6851SOL    HW232208   2.769   5.822   0.177
 6852SOL     OW32209   3.170   2.906   7.521
 6852SOL    HW132210   3.169   2.859   7.610
 6852SOL    HW232211   3.173   3.005   7.536
 6853SOL     OW32212   8.993   7.940   3.451
 6853SOL    HW132213   8.950   7.939   3.541
 6853SOL    HW232214   8.922   7.943   3.380
 6854SOL     OW32215   9.512   5.685   3.839
 6854SOL    HW132216   9.554   5.655   3.753
 6854SOL    HW232217   9.572   5.751   3.884
 6855SOL     OW32218   6.399   1.642   2.065
 6855SOL    HW132219   6.459   1.669   2.140
 6855SOL    HW232220   6.311   1.613   2.101
 6856SOL     OW32221   8.383   4.483   3.642
 6856SOL    HW132222   8.423   4.574   3.628
 6856SOL    HW232223   8.309   4.469   3.576
 6857SOL     OW32224   6.943   1.547   6.334
 6857SOL    HW132225   6.917   1.492   6.413
 6857SOL    HW232226   6.901   1.637   6.340
 6858SOL     OW32227   8.489   3.631   4.221
 6858SOL    HW132228   8.541   3.551   4.194
 6858SOL    HW232229   8.462   3.683   4.140
 6859SOL     OW32230   2.844   4.036   2.048
 6859SOL    HW132231   2.810   4.100   2.117
 6859SOL    HW232232   2.912   3.976   2.089
 6860SOL     OW32233   8.680   8.657   5.756
 6860SOL    HW132234   8.729   8.570   5.751
 6860SOL    HW232235   8.696   8.710   5.673
 6861SOL     OW32236   4.500   0.496   1.423
 6861SOL    HW132237   4.483   0.414   1.478
 6861SOL    HW232238   4.529   0.571   1.483
 6862SOL     OW32239   3.304   2.225   4.342
 6862SOL    HW132240   3.364   2.154   4.306
 6862SOL    HW232241   3.259   2.192   4.425
 6863SOL     OW32242   0.732   8.655   1.802
 6863SOL    HW132243   0.827   8.632   1.824
 6863SOL    HW232244   0.682   8.571   1.781
 6864SOL     OW32245   5.647   8.982   5.006
 6864SOL    HW132246   5.666   8.888   4.980
 6864SOL    HW232247   5.720   9.015   5.066
 6865SOL     OW32248   4.594   1.382   4.139
 6865SOL    HW132249   4.552   1.297   4.108
 6865SOL    HW232250   4.560   1.406   4.230
 6866SOL     OW32251   1.185   3.107   7.554
 6866SOL    HW132252   1.119   3.136   7.624
 6866SOL    HW232253   1.176   3.165   7.473
 6867SOL     OW32254   2.796   7.453   1.713
 6867SOL    HW132255   2.876   7.411   1.671
 6867SOL    HW232256   2.777   7.540   1.668
 6868SOL     OW32257   8.976   3.592   0.715
 6868SOL    HW132258   8.877   3.579   0.710
 6868SOL    HW232259   8.997   3.688   0.732
 6869SOL     OW32260   3.862   1.163   6.302
 6869SOL    HW132261   3.903   1.076   6.276
 6869SOL    HW232262   3.774   1.173   6.257
 6870SOL     OW32263   8.739   9.552   5.012
 6870SOL    HW132264   8.790   9.466   5.013
 6870SOL    HW232265   8.761   9.604   4.930
 6871SOL     OW32266   9.718   2.100   4.323
 6871SOL    HW132267   9.812   2.110   4.290
 6871SOL    HW232268   9.691   2.004   4.318
 6872SOL     OW32269   7.624   0.426   5.440
 6872SOL    HW132270   7.662   0.510   5.400
 6872SOL    HW232271   7.525   0.433   5.443
 6873SOL     OW32272   7.726   3.415   3.696
 6873SOL    HW132273   7.814   3.369   3.679
 6873SOL    HW232274   7.652   3.362   3.654
 6874SOL     OW32275   9.324   8.017   1.648
 6874SOL    HW132276   9.301   8.072   1.729
 6874SOL    HW232277   9.314   8.073   1.566
 6875SOL     OW32278   4.296   1.273   1.991
 6875SOL    HW132279   4.231   1.313   2.055
 6875SOL    HW232280   4.363   1.342   1.964
 6876SOL     OW32281   2.487   4.824   3.665
 6876SOL    HW132282   2.510   4.817   3.568
 6876SOL    HW232283   2.530   4.749   3.715
 6877SOL     OW32284   0.265   1.145   7.185
 6877SOL    HW132285   0.169   1.119   7.176
 6877SOL    HW232286   0.322   1.063   7.194
 6878SOL     OW32287   4.172   7.163   5.084
 6878SOL    HW132288   4.198   7.082   5.137
 6878SOL    HW232289   4.131   7.134   4.997
 6879SOL     OW32290   1.205   9.113   5.907
 6879SOL    HW132291   1.295   9.079   5.883
 6879SOL    HW232292   1.188   9.100   6.005
 6880SOL     OW32293   0.456   6.273   0.788
 6880SOL    HW132294   0.504   6.274   0.875
 6880SOL    HW232295   0.384   6.204   0.789
 6881SOL     OW32296   8.422   9.837   3.968
 6881SOL    HW132297   8.464   9.777   4.036
 6881SOL    HW232298   8.489   9.859   3.897
 6882SOL     OW32299   0.315   9.311   1.445
 6882SOL    HW132300   0.331   9.315   1.347
 6882SOL    HW232301   0.219   9.290   1.463
 6883SOL     OW32302   8.138   3.679   1.347
 6883SOL    HW132303   8.134   3.602   1.411
 6883SOL    HW232304   8.202   3.747   1.380
 6884SOL     OW32305   2.024   3.453   5.085
 6884SOL    HW132306   1.992   3.418   5.173
 6884SOL    HW232307   2.117   3.490   5.096
 6885SOL     OW32308   8.274   6.136   1.540
 6885SOL    HW132309   8.252   6.081   1.620
 6885SOL    HW232310   8.220   6.105   1.462
 6886SOL     OW32311   0.820   9.234   5.710
 6886SOL    HW132312   0.757   9.229   5.633
 6886SOL    HW232313   0.905   9.187   5.688
 6887SOL     OW32314   3.340   8.192   1.315
 6887SOL    HW132315   3.376   8.101   1.293
 6887SOL    HW232316   3.340   8.248   1.232
 6888SOL     OW32317   5.051   4.515   2.180
 6888SOL    HW132318   5.115   4.497   2.255
 6888SOL    HW232319   5.082   4.467   2.098
 6889SOL     OW32320   2.515   5.540   3.905
 6889SOL    HW132321   2.589   5.476   3.883
 6889SOL    HW232322   2.432   5.511   3.857
 6890SOL     OW32323   2.364   3.986   4.023
 6890SOL    HW132324   2.374   4.085   4.034
 6890SOL    HW232325   2.422   3.939   4.090
 6891SOL     OW32326   3.620   2.806   3.278
 6891SOL    HW132327   3.688   2.872   3.246
 6891SOL    HW232328   3.533   2.823   3.230
 6892SOL     OW32329   3.738   7.983   4.576
 6892SOL    HW132330   3.724   7.885   4.557
 6892SOL    HW232331   3.766   7.994   4.671
 6893SOL     OW32332   3.169   1.890   4.521
 6893SOL    HW132333   3.142   1.911   4.427
 6893SOL    HW232334   3.098   1.834   4.564
 6894SOL     OW32335   5.603   9.697   5.169
 6894SOL    HW132336   5.566   9.790   5.163
 6894SOL    HW232337   5.533   9.635   5.204
 6895SOL     OW32338   5.247   5.051   2.020
 6895SOL    HW132339   5.160   5.089   2.052
 6895SOL    HW232340   5.230   4.973   1.960
 6896SOL     OW32341   1.984   5.620   5.399
 6896SOL    HW132342   1.886   5.605   5.384
 6896SOL    HW232343   2.035   5.574   5.326
 6897SOL     OW32344   9.288   7.891   0.750
 6897SOL    HW132345   9.372   7.856   0.792
 6897SOL    HW232346   9.289   7.991   0.751
 6898SOL     OW32347   1.912   8.979   5.470
 6898SOL    HW132348   1.830   8.983   5.413
 6898SOL    HW232349   1.970   9.058   5.451
 6899SOL     OW32350   3.643   0.760   5.955
 6899SOL    HW132351   3.658   0.859   5.955
 6899SOL    HW232352   3.610   0.731   5.865
 6900SOL     OW32353   8.309   8.210   0.118
 6900SOL    HW132354   8.270   8.302   0.114
 6900SOL    HW232355   8.401   8.215   0.158
 6901SOL     OW32356   2.947   5.576   6.944
 6901SOL    HW132357   2.959   5.623   6.857
 6901SOL    HW232358   2.952   5.477   6.930
 6902SOL     OW32359   7.697   8.781   4.629
 6902SOL    HW132360   7.654   8.819   4.548
 6902SOL    HW232361   7.795   8.802   4.628
 6903SOL     OW32362   4.116   2.971   5.521
 6903SOL    HW132363   4.144   2.932   5.433
 6903SOL    HW232364   4.079   2.899   5.579
 6904SOL     OW32365   7.783   8.265   6.079
 6904SOL    HW132366   7.727   8.305   6.006
 6904SOL    HW232367   7.873   8.309   6.078
 6905SOL     OW32368   7.149   9.771   3.146
 6905SOL    HW132369   7.151   9.862   3.188
 6905SOL    HW232370   7.058   9.754   3.108
 6906SOL     OW32371   7.480   8.680   3.542
 6906SOL    HW132372   7.508   8.770   3.508
 6906SOL    HW232373   7.448   8.688   3.636
 6907SOL     OW32374   4.992   8.356   7.526
 6907SOL    HW132375   4.921   8.303   7.573
 6907SOL    HW232376   4.971   8.359   7.428
 6908SOL     OW32377   4.898   2.388   5.203
 6908SOL    HW132378   4.880   2.463   5.139
 6908SOL    HW232379   4.903   2.426   5.296
 6909SOL     OW32380   2.116   1.717   7.677
 6909SOL    HW132381   2.097   1.815   7.684
 6909SOL    HW232382   2.032   1.667   7.658
 6910SOL     OW32383   4.584   0.298   6.767
 6910SOL    HW132384   4.533   0.344   6.694
 6910SOL    HW232385   4.560   0.340   6.855
 6911SOL     OW32386   5.582   1.505   6.668
 6911SOL    HW132387   5.488   1.531   6.691
 6911SOL    HW232388   5.644   1.581   6.689
 6912SOL     OW32389   8.055   7.477   4.294
 6912SOL    HW132390   8.100   7.398   4.252
 6912SOL    HW232391   7.962   7.485   4.259
 6913SOL     OW32392   5.542   5.041   0.114
 6913SOL    HW132393   5.521   5.022   0.018
 6913SOL    HW232394   5.502   5.128   0.141
 6914SOL     OW32395   0.818   8.025   5.346
 6914SOL    HW132396   0.726   7.987   5.346
 6914SOL    HW232397   0.861   8.008   5.435
 6915SOL     OW32398   4.595   8.494   5.971
 6915SOL    HW132399   4.527   8.509   6.044
 6915SOL    HW232400   4.669   8.437   6.006
 6916SOL     OW32401   0.882   3.546   5.543
 6916SOL    HW132402   0.944   3.540   5.465
 6916SOL    HW232403   0.839   3.457   5.558
 6917SOL     OW32404   1.513   6.621   3.465
 6917SOL    HW132405   1.583   6.639   3.535
 6917SOL    HW232406   1.433   6.679   3.482
 6918SOL     OW32407   6.567   6.933   5.699
 6918SOL    HW132408   6.539   7.014   5.750
 6918SOL    HW232409   6.494   6.864   5.703
 6919SOL     OW32410   2.225   3.786   4.790
 6919SOL    HW132411   2.323   3.766   4.781
 6919SOL    HW232412   2.208   3.827   4.879
 6920SOL     OW32413   0.229   8.641   7.661
 6920SOL    HW132414   0.193   8.733   7.668
 6920SOL    HW232415   0.165   8.577   7.704
 6921SOL     OW32416   3.932   6.301   0.218
 6921SOL    HW132417   4.000   6.317   0.290
 6921SOL    HW232418   3.841   6.326   0.252
 6922SOL     OW32419   8.512   7.519   2.350
 6922SOL    HW132420   8.585   7.498   2.415
 6922SOL    HW232421   8.526   7.611   2.314
 6923SOL     OW32422   5.994   7.825   7.381
 6923SOL    HW132423   5.962   7.860   7.293
 6923SOL    HW232424   6.087   7.859   7.399
 6924SOL     OW32425   3.373   6.110   0.035
 6924SOL    HW132426   3.419   6.168  10.049
 6924SOL    HW232427   3.430   6.104   0.117
 6925SOL     OW32428   7.828   9.728   7.598
 6925SOL    HW132429   7.813   9.756   7.693
 6925SOL    HW232430   7.789   9.798   7.537
 6926SOL     OW32431   2.297   1.608   7.506
 6926SOL    HW132432   2.236   1.647   7.575
 6926SOL    HW232433   2.335   1.522   7.541
 6927SOL     OW32434   9.263   7.974   6.352
 6927SOL    HW132435   9.219   8.048   6.301
 6927SOL    HW232436   9.308   8.011   6.433
 6928SOL     OW32437   6.504   2.480   2.189
 6928SOL    HW132438   6.545   2.528   2.267
 6928SOL    HW232439   6.566   2.407   2.159
 6929SOL     OW32440   3.193   9.197   5.510
 6929SOL    HW132441   3.121   9.200   5.441
 6929SOL    HW232442   3.257   9.272   5.494
 6930SOL     OW32443   0.331   6.341   5.613
 6930SOL    HW132444   0.246   6.388   5.591
 6930SOL    HW232445   0.398   6.407   5.647
 6931SOL     OW32446   1.771   0.080   5.735
 6931SOL    HW132447   1.693   0.037   5.690
 6931SOL    HW232448   1.822   0.134   5.668
 6932SOL     OW32449   8.893   5.759   4.652
 6932SOL    HW132450   8.810   5.703   4.659
 6932SOL    HW232451   8.942   5.735   4.568
 6933SOL     OW32452   2.860   6.769   6.119
 6933SOL    HW132453   2.926   6.776   6.044
 6933SOL    HW232454   2.904   6.727   6.198
 6934SOL     OW32455   4.704   8.908   6.471
 6934SOL    HW132456   4.799   8.912   6.503
 6934SOL    HW232457   4.675   8.999   6.441
 6935SOL     OW32458   2.736   8.878   3.024
 6935SOL    HW132459   2.691   8.967   3.012
 6935SOL    HW232460   2.829   8.892   3.056
 6936SOL     OW32461   8.869   0.684   6.157
 6936SOL    HW132462   8.930   0.744   6.106
 6936SOL    HW232463   8.868   0.710   6.253
 6937SOL     OW32464   0.707   4.302   4.605
 6937SOL    HW132465   0.721   4.284   4.507
 6937SOL    HW232466   0.628   4.363   4.616
 6938SOL     OW32467   4.903   2.976   4.467
 6938SOL    HW132468   4.929   2.902   4.529
 6938SOL    HW232469   4.847   3.042   4.516
 6939SOL     OW32470   8.117   5.152   0.151
 6939SOL    HW132471   8.052   5.078   0.169
 6939SOL    HW232472   8.071   5.240   0.161
 6940SOL     OW32473   1.856   5.609   7.473
 6940SOL    HW132474   1.949   5.589   7.444
 6940SOL    HW232475   1.794   5.540   7.435
 6941SOL     OW32476   1.410   3.664   2.985
 6941SOL    HW132477   1.501   3.654   2.945
 6941SOL    HW232478   1.388   3.582   3.038
 6942SOL     OW32479   0.646   9.179   4.785
 6942SOL    HW132480   0.728   9.134   4.749
 6942SOL    HW232481   0.590   9.112   4.833
 6943SOL     OW32482   5.277   9.383   2.495
 6943SOL    HW132483   5.229   9.324   2.559
 6943SOL    HW232484   5.360   9.338   2.463
 6944SOL     OW32485   8.959   4.689   5.971
 6944SOL    HW132486   8.906   4.686   5.886
 6944SOL    HW232487   8.949   4.603   6.020
 6945SOL     OW32488   6.503   0.878   2.055
 6945SOL    HW132489   6.598   0.886   2.086
 6945SOL    HW232490   6.451   0.957   2.086
 6946SOL     OW32491   8.551   9.712   1.189
 6946SOL    HW132492   8.466   9.667   1.162
 6946SOL    HW232493   8.628   9.671   1.141
 6947SOL     OW32494   1.812   2.599   7.675
 6947SOL    HW132495   1.878   2.674   7.684
 6947SOL    HW232496   1.862   2.513   7.665
 6948SOL     OW32497   8.556   9.267   4.973
 6948SOL    HW132498   8.540   9.178   5.016
 6948SOL    HW232499   8.523   9.339   5.033
 6949SOL     OW32500   9.701   5.831   7.363
 6949SOL    HW132501   9.796   5.838   7.391
 6949SOL    HW232502   9.693   5.765   7.288
 6950SOL     OW32503   8.169   2.016   3.546
 6950SOL    HW132504   8.149   2.099   3.494
 6950SOL    HW232505   8.195   2.039   3.639
 6951SOL     OW32506   0.769   9.326   2.143
 6951SOL    HW132507   0.691   9.350   2.202
 6951SOL    HW232508   0.748   9.350   2.049
 6952SOL     OW32509   8.088   4.033   2.641
 6952SOL    HW132510   8.077   4.005   2.546
 6952SOL    HW232511   8.069   3.955   2.701
 6953SOL     OW32512   0.759   2.808   6.564
 6953SOL    HW132513   0.808   2.846   6.486
 6953SOL    HW232514   0.713   2.723   6.535
 6954SOL     OW32515   6.914   0.274   3.440
 6954SOL    HW132516   6.864   0.307   3.360
 6954SOL    HW232517   7.012   0.290   3.428
 6955SOL     OW32518   8.236   2.068   2.632
 6955SOL    HW132519   8.313   2.131   2.642
 6955SOL    HW232520   8.221   2.049   2.535
 6956SOL     OW32521   8.503   4.613   6.965
 6956SOL    HW132522   8.547   4.527   6.989
 6956SOL    HW232523   8.404   4.600   6.958
 6957SOL     OW32524   5.128   5.861   0.861
 6957SOL    HW132525   5.059   5.867   0.933
 6957SOL    HW232526   5.146   5.952   0.824
 6958SOL     OW32527   7.317   6.877   3.192
 6958SOL    HW132528   7.375   6.942   3.242
 6958SOL    HW232529   7.287   6.805   3.255
 6959SOL     OW32530   2.340   0.233   7.502
 6959SOL    HW132531   2.389   0.304   7.552
 6959SOL    HW232532   2.243   0.236   7.527
 6960SOL     OW32533   2.329   1.351   0.552
 6960SOL    HW132534   2.314   1.335   0.454
 6960SOL    HW232535   2.243   1.380   0.594
 6961SOL     OW32536   0.024   8.878   2.449
 6961SOL    HW132537   9.989   8.854   2.358
 6961SOL    HW232538   0.069   8.967   2.445
 6962SOL     OW32539   2.856   2.055   3.198
 6962SOL    HW132540   2.942   2.035   3.151
 6962SOL    HW232541   2.872   2.128   3.265
 6963SOL     OW32542   7.823   2.167   0.857
 6963SOL    HW132543   7.839   2.226   0.936
 6963SOL    HW232544   7.725   2.168   0.834
 6964SOL     OW32545   3.250   5.621   4.740
 6964SOL    HW132546   3.274   5.588   4.831
 6964SOL    HW232547   3.204   5.709   4.747
 6965SOL     OW32548   9.225   5.262   5.352
 6965SOL    HW132549   9.188   5.173   5.325
 6965SOL    HW232550   9.170   5.299   5.427
 6966SOL     OW32551   8.884   9.673   2.666
 6966SOL    HW132552   8.874   9.769   2.689
 6966SOL    HW232553   8.899   9.619   2.749
 6967SOL     OW32554   9.796   3.857   5.227
 6967SOL    HW132555   9.830   3.869   5.320
 6967SOL    HW232556   9.699   3.880   5.224
 6968SOL     OW32557   0.262   2.423   4.625
 6968SOL    HW132558   0.279   2.458   4.533
 6968SOL    HW232559   0.342   2.441   4.683
 6969SOL     OW32560   0.727   1.260   3.319
 6969SOL    HW132561   0.711   1.310   3.404
 6969SOL    HW232562   0.695   1.166   3.329
 6970SOL     OW32563   3.128   4.966   2.510
 6970SOL    HW132564   3.066   5.025   2.561
 6970SOL    HW232565   3.217   5.011   2.501
 6971SOL     OW32566   2.531   1.022   7.564
 6971SOL    HW132567   2.579   0.939   7.534
 6971SOL    HW232568   2.593   1.079   7.617
 6972SOL     OW32569   4.101   4.388   1.107
 6972SOL    HW132570   4.145   4.471   1.073
 6972SOL    HW232571   4.134   4.309   1.056
 6973SOL     OW32572   9.361   4.157   6.960
 6973SOL    HW132573   9.319   4.091   7.022
 6973SOL    HW232574   9.450   4.124   6.930
 6974SOL     OW32575   7.748   5.428   2.827
 6974SOL    HW132576   7.709   5.436   2.735
 6974SOL    HW232577   7.813   5.351   2.829
 6975SOL     OW32578   7.149   9.587   6.406
 6975SOL    HW132579   7.146   9.526   6.326
 6975SOL    HW232580   7.244   9.611   6.425
 6976SOL     OW32581   1.558   8.629   0.991
 6976SOL    HW132582   1.602   8.674   0.913
 6976SOL    HW232583   1.615   8.640   1.072
 6977SOL     OW32584   9.155   7.680   0.867
 6977SOL    HW132585   9.072   7.659   0.815
 6977SOL    HW232586   9.203   7.757   0.824
 6978SOL     OW32587   7.665   3.171   4.158
 6978SOL    HW132588   7.744   3.128   4.201
 6978SOL    HW232589   7.695   3.222   4.077
 6979SOL     OW32590   5.828   5.672   0.308
 6979SOL    HW132591   5.924   5.699   0.298
 6979SOL    HW232592   5.769   5.746   0.277
 6980SOL     OW32593   2.826   7.120   0.649
 6980SOL    HW132594   2.779   7.160   0.728
 6980SOL    HW232595   2.910   7.077   0.680
 6981SOL     OW32596   7.915   4.916   1.887
 6981SOL    HW132597   7.978   4.904   1.811
 6981SOL    HW232598   7.822   4.894   1.857
 6982SOL     OW32599   0.652   9.892   2.653
 6982SOL    HW132600   0.592   9.964   2.687
 6982SOL    HW232601   0.744   9.904   2.692
 6983SOL     OW32602   2.881   8.095   3.499
 6983SOL    HW132603   2.908   8.160   3.569
 6983SOL    HW232604   2.795   8.125   3.458
 6984SOL     OW32605   8.300   0.112   5.551
 6984SOL    HW132606   8.346   0.046   5.611
 6984SOL    HW232607   8.321   0.092   5.456
 6985SOL     OW32608   1.269   9.422   3.778
 6985SOL    HW132609   1.279   9.475   3.694
 6985SOL    HW232610   1.266   9.325   3.756
 6986SOL     OW32611   6.276   3.356   1.775
 6986SOL    HW132612   6.271   3.343   1.874
 6986SOL    HW232613   6.265   3.269   1.729
 6987SOL     OW32614   9.281   8.724   6.409
 6987SOL    HW132615   9.340   8.755   6.483
 6987SOL    HW232616   9.233   8.802   6.369
 6988SOL     OW32617   1.427   9.597   2.967
 6988SOL    HW132618   1.416   9.497   2.965
 6988SOL    HW232619   1.502   9.621   3.029
 6989SOL     OW32620   9.880   9.222   5.274
 6989SOL    HW132621   9.809   9.202   5.206
 6989SOL    HW232622   9.970   9.207   5.234
 6990SOL     OW32623   3.643   7.440   0.251
 6990SOL    HW132624   3.680   7.378   0.320
 6990SOL    HW232625   3.719   7.483   0.202
 6991SOL     OW32626   4.174   3.517   4.539
 6991SOL    HW132627   4.175   3.462   4.622
 6991SOL    HW232628   4.204   3.460   4.461
 6992SOL     OW32629   7.560   0.875   5.617
 6992SOL    HW132630   7.629   0.866   5.545
 6992SOL    HW232631   7.509   0.790   5.626
 6993SOL     OW32632   3.621   1.173   6.180
 6993SOL    HW132633   3.541   1.231   6.166
 6993SOL    HW232634   3.638   1.120   6.096
 6994SOL     OW32635   3.821   2.921   2.903
 6994SOL    HW132636   3.826   2.823   2.920
 6994SOL    HW232637   3.879   2.945   2.825
 6995SOL     OW32638   8.135   3.667   0.254
 6995SOL    HW132639   8.230   3.676   0.225
 6995SOL    HW232640   8.084   3.748   0.226
 6996SOL     OW32641   0.118   4.952   0.433
 6996SOL    HW132642   0.204   4.998   0.415
 6996SOL    HW232643   0.103   4.880   0.366
 6997SOL     OW32644   7.337   3.121   1.746
 6997SOL    HW132645   7.323   3.111   1.845
 6997SOL    HW232646   7.253   3.156   1.704
 6998SOL     OW32647   6.085   0.188   2.595
 6998SOL    HW132648   6.072   0.273   2.647
 6998SOL    HW232649   6.119   0.209   2.504
 6999SOL     OW32650   1.496   6.285   1.353
 6999SOL    HW132651   1.493   6.186   1.338
 6999SOL    HW232652   1.582   6.309   1.399
 7000SOL     OW32653   4.676   0.895   0.771
 7000SOL    HW132654   4.693   0.981   0.819
 7000SOL    HW232655   4.677   0.911   0.672
 7001SOL     OW32656   1.644   0.675   2.626
 7001SOL    HW132657   1.624   0.658   2.723
 7001SOL    HW232658   1.715   0.744   2.618
 7002SOL     OW32659   4.418   4.197   0.669
 7002SOL    HW132660   4.453   4.111   0.634
 7002SOL    HW232661   4.492   4.248   0.713
 7003SOL     OW32662   4.038   2.020   4.290
 7003SOL    HW132663   4.055   2.118   4.294
 7003SOL    HW232664   3.973   1.994   4.361
 7004SOL     OW32665   4.392   0.244   7.175
 7004SOL    HW132666   4.395   0.144   7.178
 7004SOL    HW232667   4.430   0.282   7.259
 7005SOL     OW32668   2.577   6.860   3.875
 7005SOL    HW132669   2.544   6.928   3.810
 7005SOL    HW232670   2.610   6.906   3.957
 7006SOL     OW32671   1.440   5.809   1.887
 7006SOL    HW132672   1.461   5.885   1.825
 7006SOL    HW232673   1.455   5.838   1.981
 7007SOL     OW32674   8.906   7.015   3.400
 7007SOL    HW132675   8.993   7.005   3.352
 7007SOL    HW232676   8.874   7.109   3.390
 7008SOL     OW32677   0.858   5.701   0.641
 7008SOL    HW132678   0.767   5.739   0.627
 7008SOL    HW232679   0.917   5.724   0.563
 7009SOL     OW32680   4.793   1.917   1.558
 7009SOL    HW132681   4.715   1.856   1.549
 7009SOL    HW232682   4.765   2.000   1.606
 7010SOL     OW32683   9.580   0.589   1.613
 7010SOL    HW132684   9.659   0.645   1.640
 7010SOL    HW232685   9.530   0.635   1.540
 7011SOL     OW32686   8.338   6.076   3.324
 7011SOL    HW132687   8.319   6.148   3.391
 7011SOL    HW232688   8.257   6.018   3.315
 7012SOL     OW32689   2.434   3.821   2.284
 7012SOL    HW132690   2.408   3.893   2.220
 7012SOL    HW232691   2.471   3.862   2.368
 7013SOL     OW32692   0.003   0.273   2.217
 7013SOL    HW132693   0.096   0.248   2.190
 7013SOL    HW232694   9.961   0.197   2.267
 7014SOL     OW32695   4.714   0.488   0.981
 7014SOL    HW132696   4.771   0.567   0.960
 7014SOL    HW232697   4.712   0.474   1.080
 7015SOL     OW32698   7.717   5.504   7.347
 7015SOL    HW132699   7.684   5.555   7.426
 7015SOL    HW232700   7.808   5.467   7.368
 7016SOL     OW32701   7.327   0.409   0.719
 7016SOL    HW132702   7.396   0.337   0.708
 7016SOL    HW232703   7.323   0.464   0.636
 7017SOL     OW32704   6.211   3.435   0.911
 7017SOL    HW132705   6.114   3.434   0.886
 7017SOL    HW232706   6.261   3.370   0.855
 7018SOL     OW32707   6.385   0.322   0.841
 7018SOL    HW132708   6.333   0.342   0.924
 7018SOL    HW232709   6.380   0.224   0.821
 7019SOL     OW32710   9.125   6.951   2.788
 7019SOL    HW132711   9.110   7.042   2.827
 7019SOL    HW232712   9.051   6.889   2.816
 7020SOL     OW32713   4.347   1.274   0.451
 7020SOL    HW132714   4.418   1.208   0.425
 7020SOL    HW232715   4.326   1.333   0.374
 7021SOL     OW32716   3.218   4.026   0.775
 7021SOL    HW132717   3.204   3.941   0.724
 7021SOL    HW232718   3.226   4.102   0.711
 7022SOL     OW32719   9.449   1.819   1.046
 7022SOL    HW132720   9.398   1.740   1.081
 7022SOL    HW232721   9.547   1.805   1.059
 7023SOL     OW32722   5.920   3.089   2.270
 7023SOL    HW132723   5.957   3.000   2.245
 7023SOL    HW232724   5.937   3.155   2.196
 7024SOL     OW32725   2.318   5.291   4.978
 7024SOL    HW132726   2.307   5.269   5.075
 7024SOL    HW232727   2.233   5.329   4.943
 7025SOL     OW32728   8.915   0.613   1.694
 7025SOL    HW132729   8.948   0.655   1.609
 7025SOL    HW232730   8.863   0.531   1.673
 7026SOL     OW32731   9.627   9.153   6.872
 7026SOL    HW132732   9.649   9.081   6.938
 7026SOL    HW232733   9.532   9.181   6.882
 7027SOL     OW32734   1.093   8.295   6.503
 7027SOL    HW132735   1.090   8.394   6.516
 7027SOL    HW232736   1.032   8.250   6.568
 7028SOL     OW32737   7.643   9.125   3.294
 7028SOL    HW132738   7.738   9.148   3.273
 7028SOL    HW232739   7.603   9.197   3.350
 7029SOL     OW32740   2.489   8.674   5.991
 7029SOL    HW132741   2.535   8.594   5.951
 7029SOL    HW232742   2.478   8.744   5.920
 7030SOL     OW32743   4.884   0.092   4.132
 7030SOL    HW132744   4.838   0.004   4.146
 7030SOL    HW232745   4.873   0.148   4.214
 7031SOL     OW32746   0.010   7.243   0.784
 7031SOL    HW132747   0.084   7.252   0.850
 7031SOL    HW232748   9.947   7.320   0.794
 7032SOL     OW32749   5.597   5.942   0.560
 7032SOL    HW132750   5.666   5.960   0.630
 7032SOL    HW232751   5.517   6.000   0.576
 7033SOL     OW32752   5.189   1.930   1.249
 7033SOL    HW132753   5.101   1.949   1.295
 7033SOL    HW232754   5.172   1.892   1.158
 7034SOL     OW32755   3.394   3.187   1.486
 7034SOL    HW132756   3.326   3.125   1.525
 7034SOL    HW232757   3.433   3.147   1.404
 7035SOL     OW32758   3.426   5.190   7.588
 7035SOL    HW132759   3.502   5.192   7.653
 7035SOL    HW232760   3.423   5.277   7.538
 7036SOL     OW32761   9.077   2.759   3.473
 7036SOL    HW132762   9.155   2.811   3.507
 7036SOL    HW232763   9.020   2.817   3.416
 7037SOL     OW32764   2.309   7.483   2.459
 7037SOL    HW132765   2.276   7.414   2.523
 7037SOL    HW232766   2.248   7.489   2.380
 7038SOL     OW32767   1.641   1.710   1.446
 7038SOL    HW132768   1.599   1.799   1.464
 7038SOL    HW232769   1.738   1.722   1.429
 7039SOL     OW32770   4.460   9.043   7.793
 7039SOL    HW132771   4.515   8.984   7.851
 7039SOL    HW232772   4.364   9.039   7.822
 7040SOL     OW32773   9.606   3.190   0.263
 7040SOL    HW132774   9.660   3.268   0.297
 7040SOL    HW232775   9.535   3.168   0.330
 7041SOL     OW32776   0.265   3.943   0.441
 7041SOL    HW132777   0.334   3.871   0.447
 7041SOL    HW232778   0.310   4.030   0.423
 7042SOL     OW32779   8.942   4.441   6.096
 7042SOL    HW132780   9.041   4.429   6.106
 7042SOL    HW232781   8.903   4.360   6.052
 7043SOL     OW32782   6.522   8.033   2.532
 7043SOL    HW132783   6.522   7.935   2.512
 7043SOL    HW232784   6.610   8.059   2.573
 7044SOL     OW32785   4.501   4.858   6.970
 7044SOL    HW132786   4.430   4.861   6.901
 7044SOL    HW232787   4.486   4.780   7.031
 7045SOL     OW32788   9.388   1.390   6.367
 7045SOL    HW132789   9.421   1.482   6.347
 7045SOL    HW232790   9.338   1.354   6.288
 7046SOL     OW32791   0.144   8.503   1.179
 7046SOL    HW132792   0.054   8.545   1.174
 7046SOL    HW232793   0.135   8.403   1.176
 7047SOL     OW32794   6.708   6.717   4.696
 7047SOL    HW132795   6.771   6.673   4.760
 7047SOL    HW232796   6.626   6.746   4.745
 7048SOL     OW32797   0.120   9.345   7.532
 7048SOL    HW132798   0.110   9.442   7.555
 7048SOL    HW232799   0.107   9.332   7.434
 7049SOL     OW32800   2.913   5.731   1.292
 7049SOL    HW132801   2.853   5.786   1.235
 7049SOL    HW232802   2.992   5.702   1.239
 7050SOL     OW32803   8.551   9.420   0.250
 7050SOL    HW132804   8.643   9.420   0.210
 7050SOL    HW232805   8.547   9.351   0.323
 7051SOL     OW32806   7.188   4.769   1.953
 7051SOL    HW132807   7.160   4.827   1.876
 7051SOL    HW232808   7.178   4.673   1.928
 7052SOL     OW32809   9.419   8.106   3.460
 7052SOL    HW132810   9.400   8.089   3.557
 7052SOL    HW232811   9.516   8.124   3.448
 7053SOL     OW32812   7.399   7.009   1.714
 7053SOL    HW132813   7.368   6.929   1.662
 7053SOL    HW232814   7.382   6.994   1.811
 7054SOL     OW32815   2.055   2.842   1.201
 7054SOL    HW132816   2.107   2.925   1.179
 7054SOL    HW232817   1.960   2.867   1.218
 7055SOL     OW32818   7.220   2.184   2.332
 7055SOL    HW132819   7.258   2.172   2.424
 7055SOL    HW232820   7.281   2.241   2.277
 7056SOL     OW32821   7.739   1.211   7.155
 7056SOL    HW132822   7.673   1.250   7.219
 7056SOL    HW232823   7.719   1.114   7.142
 7057SOL     OW32824   1.808   0.309   4.855
 7057SOL    HW132825   1.747   0.368   4.908
 7057SOL    HW232826   1.878   0.364   4.811
 7058SOL     OW32827   0.609   2.004   6.400
 7058SOL    HW132828   0.607   2.010   6.500
 7058SOL    HW232829   0.527   2.050   6.363
 7059SOL     OW32830   7.583   7.854   5.173
 7059SOL    HW132831   7.634   7.936   5.199
 7059SOL    HW232832   7.589   7.786   5.246
 7060SOL     OW32833   7.387   4.053   2.081
 7060SOL    HW132834   7.379   4.021   2.175
 7060SOL    HW232835   7.429   3.981   2.025
 7061SOL     OW32836   9.459   2.943   5.999
 7061SOL    HW132837   9.433   2.855   6.039
 7061SOL    HW232838   9.376   2.997   5.980
 7062SOL     OW32839   9.228   7.925   0.080
 7062SOL    HW132840   9.142   7.975   0.090
 7062SOL    HW232841   9.222   7.862   0.003
 7063SOL     OW32842   9.242   5.249   7.831
 7063SOL    HW132843   9.170   5.188   7.863
 7063SOL    HW232844   9.289   5.207   7.754
 7064SOL     OW32845   3.289   1.571   2.388
 7064SOL    HW132846   3.312   1.480   2.352
 7064SOL    HW232847   3.306   1.572   2.487
 7065SOL     OW32848   6.122   0.910   5.206
 7065SOL    HW132849   6.165   0.828   5.245
 7065SOL    HW232850   6.065   0.884   5.129
 7066SOL     OW32851   7.677   2.995   2.930
 7066SOL    HW132852   7.599   2.979   2.870
 7066SOL    HW232853   7.652   3.063   2.999
 7067SOL     OW32854   8.071   7.350   3.940
 7067SOL    HW132855   8.113   7.317   4.025
 7067SOL    HW232856   8.078   7.450   3.936
 7068SOL     OW32857   5.088   8.960   3.822
 7068SOL    HW132858   5.146   8.879   3.826
 7068SOL    HW232859   5.116   9.018   3.745
 7069SOL     OW32860   3.231   4.486   7.622
 7069SOL    HW132861   3.290   4.405   7.623
 7069SOL    HW232862   3.285   4.565   7.595
 7070SOL     OW32863   6.213   8.907   4.330
 7070SOL    HW132864   6.211   8.823   4.385
 7070SOL    HW232865   6.240   8.984   4.388
 7071SOL     OW32866   4.845   3.809   1.750
 7071SOL    HW132867   4.891   3.721   1.736
 7071SOL    HW232868   4.879   3.850   1.835
 7072SOL     OW32869   2.933   3.457   0.635
 7072SOL    HW132870   2.958   3.450   0.538
 7072SOL    HW232871   2.846   3.505   0.644
 7073SOL     OW32872   1.386   6.192   2.099
 7073SOL    HW132873   1.319   6.139   2.046
 7073SOL    HW232874   1.339   6.267   2.145
 7074SOL     OW32875   3.472   1.565   5.911
 7074SOL    HW132876   3.442   1.627   5.838
 7074SOL    HW232877   3.470   1.613   5.998
 7075SOL     OW32878   9.947   2.669   4.734
 7075SOL    HW132879   9.952   2.585   4.787
 7075SOL    HW232880   9.851   2.696   4.722
 7076SOL     OW32881   4.788   4.296   5.584
 7076SOL    HW132882   4.807   4.314   5.680
 7076SOL    HW232883   4.842   4.218   5.553
 7077SOL     OW32884   1.514   4.315   7.105
 7077SOL    HW132885   1.514   4.303   7.204
 7077SOL    HW232886   1.606   4.339   7.074
 7078SOL     OW32887   3.627   9.642   5.142
 7078SOL    HW132888   3.679   9.709   5.088
 7078SOL    HW232889   3.661   9.641   5.236
 7079SOL     OW32890   8.340   0.065   4.263
 7079SOL    HW132891   8.409   0.109   4.320
 7079SOL    HW232892   8.352   0.094   4.168
 7080SOL     OW32893   5.167   6.248   0.437
 7080SOL    HW132894   5.129   6.337   0.412
 7080SOL    HW232895   5.096   6.178   0.430
 7081SOL     OW32896   9.558   4.927   6.052
 7081SOL    HW132897   9.553   4.829   6.074
 7081SOL    HW232898   9.480   4.974   6.094
 7082SOL     OW32899   9.792   7.857   6.023
 7082SOL    HW132900   9.858   7.928   5.997
 7082SOL    HW232901   9.839   7.782   6.069
 7083SOL     OW32902   2.974   8.754   1.853
 7083SOL    HW132903   2.980   8.665   1.808
 7083SOL    HW232904   3.055   8.808   1.832
 7084SOL     OW32905   2.456   7.557   1.850
 7084SOL    HW132906   2.505   7.470   1.851
 7084SOL    HW232907   2.426   7.579   1.943
 7085SOL     OW32908   2.575   3.434   3.133
 7085SOL    HW132909   2.626   3.358   3.173
 7085SOL    HW232910   2.638   3.501   3.095
 7086SOL     OW32911   9.947   8.400   7.350
 7086SOL    HW132912   9.913   8.494   7.341
 7086SOL    HW232913   0.047   8.400   7.342
 7087SOL     OW32914   9.426   7.406   6.569
 7087SOL    HW132915   9.364   7.397   6.647
 7087SOL    HW232916   9.373   7.426   6.486
 7088SOL     OW32917   6.440   9.222   7.048
 7088SOL    HW132918   6.421   9.265   6.960
 7088SOL    HW232919   6.384   9.266   7.119
 7089SOL     OW32920   7.913   0.723   3.613
 7089SOL    HW132921   7.858   0.806   3.611
 7089SOL    HW232922   7.926   0.693   3.708
 7090SOL     OW32923   5.427   9.805   6.021
 7090SOL    HW132924   5.422   9.867   6.100
 7090SOL    HW232925   5.367   9.838   5.949
 7091SOL     OW32926   8.407   7.187   6.551
 7091SOL    HW132927   8.388   7.171   6.649
 7091SOL    HW232928   8.325   7.165   6.498
 7092SOL     OW32929   7.063   5.707   7.677
 7092SOL    HW132930   7.092   5.659   7.594
 7092SOL    HW232931   7.085   5.805   7.669
 7093SOL     OW32932   7.459   4.247   7.609
 7093SOL    HW132933   7.459   4.171   7.544
 7093SOL    HW232934   7.487   4.331   7.563
 7094SOL     OW32935   2.147   6.323   5.908
 7094SOL    HW132936   2.136   6.225   5.929
 7094SOL    HW232937   2.237   6.337   5.866
 7095SOL     OW32938   8.772   2.930   5.364
 7095SOL    HW132939   8.703   2.892   5.303
 7095SOL    HW232940   8.858   2.882   5.351
 7096SOL     OW32941   3.899   1.846   6.767
 7096SOL    HW132942   3.827   1.779   6.781
 7096SOL    HW232943   3.874   1.932   6.812
 7097SOL     OW32944   7.397   8.597   4.841
 7097SOL    HW132945   7.381   8.589   4.743
 7097SOL    HW232946   7.475   8.540   4.867
 7098SOL     OW32947   1.770   1.287   6.248
 7098SOL    HW132948   1.768   1.204   6.192
 7098SOL    HW232949   1.684   1.337   6.237
 7099SOL     OW32950   0.804   9.550   0.190
 7099SOL    HW132951   0.843   9.503   0.110
 7099SOL    HW232952   0.767   9.638   0.162
 7100SOL     OW32953   0.462   2.114   5.245
 7100SOL    HW132954   0.549   2.161   5.260
 7100SOL    HW232955   0.404   2.125   5.326
 7101SOL     OW32956   9.941   9.712   6.689
 7101SOL    HW132957   9.931   9.622   6.645
 7101SOL    HW232958   0.024   9.756   6.656
 7102SOL     OW32959   9.209   3.196   7.046
 7102SOL    HW132960   9.274   3.125   7.074
 7102SOL    HW232961   9.121   3.180   7.091
 7103SOL     OW32962   6.022   5.758   1.566
 7103SOL    HW132963   6.109   5.776   1.610
 7103SOL    HW232964   5.947   5.780   1.629
 7104SOL     OW32965   7.865   4.981   7.706
 7104SOL    HW132966   7.926   4.911   7.743
 7104SOL    HW232967   7.810   4.941   7.633
 7105SOL     OW32968   5.489   4.289   2.538
 7105SOL    HW132969   5.525   4.365   2.484
 7105SOL    HW232970   5.555   4.263   2.608
 7106SOL     OW32971   7.544   6.868   4.080
 7106SOL    HW132972   7.588   6.835   3.997
 7106SOL    HW232973   7.578   6.960   4.102
 7107SOL     OW32974   9.243   8.151   1.876
 7107SOL    HW132975   9.144   8.139   1.876
 7107SOL    HW232976   9.280   8.126   1.965
 7108SOL     OW32977   4.930   0.866   6.708
 7108SOL    HW132978   5.009   0.805   6.713
 7108SOL    HW232979   4.928   0.925   6.788
 7109SOL     OW32980   9.978   1.432   0.250
 7109SOL    HW132981   0.060   1.380   0.227
 7109SOL    HW232982   9.926   1.450   0.166
 7110SOL     OW32983   1.029   6.276   6.452
 7110SOL    HW132984   1.079   6.190   6.452
 7110SOL    HW232985   0.932   6.259   6.435
 7111SOL     OW32986   0.529   3.565   6.720
 7111SOL    HW132987   0.500   3.518   6.637
 7111SOL    HW232988   0.558   3.659   6.697
 7112SOL     OW32989   6.338   9.365   2.090
 7112SOL    HW132990   6.300   9.308   2.018
 7112SOL    HW232991   6.315   9.326   2.179
 7113SOL     OW32992   6.843   0.601   0.863
 7113SOL    HW132993   6.772   0.566   0.802
 7113SOL    HW232994   6.933   0.576   0.827
 7114SOL     OW32995   3.770   7.510   1.216
 7114SOL    HW132996   3.796   7.595   1.261
 7114SOL    HW232997   3.674   7.488   1.238
 7115SOL     OW32998   9.292   0.910   6.841
 7115SOL    HW132999   9.215   0.883   6.899
 7115SOL    HW233000   9.297   0.850   6.762
 7116SOL     OW33001   8.328   8.897   6.156
 7116SOL    HW133002   8.338   8.989   6.118
 7116SOL    HW233003   8.381   8.891   6.241
 7117SOL     OW33004   8.335   8.130   7.366
 7117SOL    HW133005   8.392   8.054   7.399
 7117SOL    HW233006   8.385   8.216   7.374
 7118SOL     OW33007   3.319   9.939   6.298
 7118SOL    HW133008   3.333   9.862   6.236
 7118SOL    HW233009   3.390   0.007   6.283
 7119SOL     OW33010   2.268   8.228   5.753
 7119SOL    HW133011   2.326   8.303   5.723
 7119SOL    HW233012   2.319   8.142   5.747
 7120SOL     OW33013   9.549   0.121   3.009
 7120SOL    HW133014   9.626   0.079   3.056
 7120SOL    HW233015   9.488   0.050   2.975
 7121SOL     OW33016   9.631   2.197   5.904
 7121SOL    HW133017   9.569   2.119   5.915
 7121SOL    HW233018   9.688   2.206   5.986
 7122SOL     OW33019   0.058   6.329   3.621
 7122SOL    HW133020   0.118   6.403   3.590
 7122SOL    HW233021   0.075   6.247   3.566
 7123SOL     OW33022   4.830   5.792   7.441
 7123SOL    HW133023   4.780   5.706   7.441
 7123SOL    HW233024   4.765   5.868   7.432
 7124SOL     OW33025   8.169   1.288   3.956
 7124SOL    HW133026   8.134   1.241   3.875
 7124SOL    HW233027   8.135   1.382   3.958
 7125SOL     OW33028   0.030   5.547   4.507
 7125SOL    HW133029   9.995   5.486   4.436
 7125SOL    HW233030   9.968   5.625   4.518
 7126SOL     OW33031   2.260   2.303   2.792
 7126SOL    HW133032   2.249   2.235   2.864
 7126SOL    HW233033   2.305   2.384   2.829
 7127SOL     OW33034   3.491   5.304   1.160
 7127SOL    HW133035   3.395   5.303   1.132
 7127SOL    HW233036   3.526   5.211   1.162
 7128SOL     OW33037   7.623   5.923   7.338
 7128SOL    HW133038   7.651   5.887   7.249
 7128SOL    HW233039   7.691   5.897   7.407
 7129SOL     OW33040   9.800   5.199   1.805
 7129SOL    HW133041   9.894   5.228   1.820
 7129SOL    HW233042   9.742   5.236   1.877
 7130SOL     OW33043   8.151   2.443   1.060
 7130SOL    HW133044   8.205   2.395   1.130
 7130SOL    HW233045   8.209   2.462   0.981
 7131SOL     OW33046   3.572   8.733   5.111
 7131SOL    HW133047   3.531   8.656   5.062
 7131SOL    HW233048   3.599   8.804   5.045
 7132SOL     OW33049   4.097   2.991   7.899
 7132SOL    HW133050   4.043   2.907   7.892
 7132SOL    HW233051   4.043   3.061   7.946
 7133SOL     OW33052   1.924   3.625   1.426
 7133SOL    HW133053   1.952   3.702   1.483
 7133SOL    HW233054   2.002   3.594   1.372
 7134SOL     OW33055   1.915   8.616   2.264
 7134SOL    HW133056   1.981   8.648   2.332
 7134SOL    HW233057   1.963   8.567   2.192
 7135SOL     OW33058   8.207   5.045   7.227
 7135SOL    HW133059   8.225   5.009   7.319
 7135SOL    HW233060   8.289   5.093   7.194
 7136SOL     OW33061   0.727   2.498   1.950
 7136SOL    HW133062   0.770   2.433   2.012
 7136SOL    HW233063   0.720   2.458   1.858
 7137SOL     OW33064   6.155   1.406   0.637
 7137SOL    HW133065   6.140   1.503   0.658
 7137SOL    HW233066   6.231   1.372   0.692
 7138SOL     OW33067   7.561   6.773   5.393
 7138SOL    HW133068   7.522   6.760   5.484
 7138SOL    HW233069   7.648   6.726   5.387
 7139SOL     OW33070   1.470   4.159   1.814
 7139SOL    HW133071   1.460   4.247   1.860
 7139SOL    HW233072   1.474   4.085   1.882
 7140SOL     OW33073   3.667   4.243   4.939
 7140SOL    HW133074   3.701   4.319   4.995
 7140SOL    HW233075   3.726   4.232   4.859
 7141SOL     OW33076   2.850   3.673   4.573
 7141SOL    HW133077   2.853   3.754   4.516
 7141SOL    HW233078   2.760   3.630   4.565
 7142SOL     OW33079   9.341   2.264   5.651
 7142SOL    HW133080   9.332   2.240   5.554
 7142SOL    HW233081   9.277   2.338   5.673
 7143SOL     OW33082   0.410   6.257   6.266
 7143SOL    HW133083   0.327   6.297   6.306
 7143SOL    HW233084   0.475   6.330   6.244
 7144SOL     OW33085   8.599   8.772   7.482
 7144SOL    HW133086   8.692   8.734   7.486
 7144SOL    HW233087   8.553   8.754   7.569
 7145SOL     OW33088   3.270   8.811   1.295
 7145SOL    HW133089   3.308   8.724   1.262
 7145SOL    HW233090   3.343   8.879   1.301
 7146SOL     OW33091   8.228   4.918   7.477
 7146SOL    HW133092   8.189   4.831   7.506
 7146SOL    HW233093   8.313   4.935   7.528
 7147SOL     OW33094   8.902   7.310   4.613
 7147SOL    HW133095   8.811   7.283   4.584
 7147SOL    HW233096   8.940   7.377   4.549
 7148SOL     OW33097   4.042   5.569   2.564
 7148SOL    HW133098   4.019   5.516   2.482
 7148SOL    HW233099   4.006   5.523   2.645
 7149SOL     OW33100   3.024   9.388   7.108
 7149SOL    HW133101   2.975   9.340   7.035
 7149SOL    HW233102   3.113   9.418   7.073
 7150SOL     OW33103   9.806   5.591   6.914
 7150SOL    HW133104   9.717   5.596   6.868
 7150SOL    HW233105   9.876   5.627   6.853
 7151SOL     OW33106   2.438   9.732   1.499
 7151SOL    HW133107   2.363   9.768   1.444
 7151SOL    HW233108   2.515   9.796   1.495
 7152SOL     OW33109   7.297   8.416   5.784
 7152SOL    HW133110   7.302   8.460   5.694
 7152SOL    HW233111   7.327   8.482   5.854
 7153SOL     OW33112   9.954   6.814   3.831
 7153SOL    HW133113   9.988   6.784   3.742
 7153SOL    HW233114   9.908   6.738   3.877
 7154SOL     OW33115   8.193   6.750   5.212
 7154SOL    HW133116   8.126   6.722   5.143
 7154SOL    HW233117   8.145   6.772   5.297
 7155SOL     OW33118   5.349   9.675   6.560
 7155SOL    HW133119   5.420   9.607   6.545
 7155SOL    HW233120   5.376   9.736   6.634
 7156SOL     OW33121   7.571   3.149   3.138
 7156SOL    HW133122   7.593   3.080   3.206
 7156SOL    HW233123   7.595   3.240   3.173
 7157SOL     OW33124   0.918   4.415   6.875
 7157SOL    HW133125   1.000   4.369   6.908
 7157SOL    HW233126   0.866   4.451   6.952
 7158SOL     OW33127   9.893   8.219   0.350
 7158SOL    HW133128   9.864   8.266   0.434
 7158SOL    HW233129   9.817   8.214   0.286
 7159SOL     OW33130   7.916   2.418   4.327
 7159SOL    HW133131   7.889   2.512   4.346
 7159SOL    HW233132   7.855   2.378   4.258
 7160SOL     OW33133   6.125   1.136   6.951
 7160SOL    HW133134   6.202   1.123   7.013
 7160SOL    HW233135   6.149   1.203   6.882
 7161SOL     OW33136   7.630   5.212   1.300
 7161SOL    HW133137   7.545   5.163   1.282
 7161SOL    HW233138   7.614   5.284   1.368
 7162SOL     OW33139   0.966   0.833   7.085
 7162SOL    HW133140   0.979   0.905   7.016
 7162SOL    HW233141   1.009   0.862   7.171
 7163SOL     OW33142   7.986   7.934   2.064
 7163SOL    HW133143   7.962   7.848   2.018
 7163SOL    HW233144   8.067   7.920   2.120
 7164SOL     OW33145   9.130   5.496   4.287
 7164SOL    HW133146   9.095   5.413   4.331
 7164SOL    HW233147   9.081   5.511   4.201
 7165SOL     OW33148   9.117   3.785   2.832
 7165SOL    HW133149   9.169   3.701   2.847
 7165SOL    HW233150   9.062   3.806   2.913
 7166SOL     OW33151   3.583   0.330   4.590
 7166SOL    HW133152   3.548   0.336   4.684
 7166SOL    HW233153   3.611   0.420   4.559
 7167SOL     OW33154   1.518   1.161   0.841
 7167SOL    HW133155   1.599   1.211   0.873
 7167SOL    HW233156   1.541   1.110   0.758
 7168SOL     OW33157   1.648   1.083   3.153
 7168SOL    HW133158   1.682   1.147   3.222
 7168SOL    HW233159   1.602   1.133   3.080
 7169SOL     OW33160   2.029   3.310   2.534
 7169SOL    HW133161   1.988   3.285   2.622
 7169SOL    HW233162   2.129   3.307   2.543
 7170SOL     OW33163   2.446   7.360   7.483
 7170SOL    HW133164   2.492   7.314   7.559
 7170SOL    HW233165   2.479   7.454   7.475
 7171SOL     OW33166   7.326   8.523   6.379
 7171SOL    HW133167   7.301   8.458   6.307
 7171SOL    HW233168   7.245   8.546   6.432
 7172SOL     OW33169   9.027   4.557   2.041
 7172SOL    HW133170   8.992   4.588   2.129
 7172SOL    HW233171   9.122   4.529   2.051
 7173SOL     OW33172   2.963   4.311   0.644
 7173SOL    HW133173   2.910   4.331   0.726
 7173SOL    HW233174   2.959   4.389   0.581
 7174SOL     OW33175   9.112   3.451   1.113
 7174SOL    HW133176   9.026   3.474   1.159
 7174SOL    HW233177   9.182   3.519   1.138
 7175SOL     OW33178   0.500   1.507   5.653
 7175SOL    HW133179   0.474   1.602   5.632
 7175SOL    HW233180   0.434   1.445   5.611
 7176SOL     OW33181   3.250   1.520   6.733
 7176SOL    HW133182   3.185   1.444   6.735
 7176SOL    HW233183   3.207   1.600   6.691
 7177SOL     OW33184   9.155   4.197   2.651
 7177SOL    HW133185   9.087   4.133   2.614
 7177SOL    HW233186   9.236   4.197   2.593
 7178SOL     OW33187   2.177   8.679   3.330
 7178SOL    HW133188   2.245   8.749   3.309
 7178SOL    HW233189   2.210   8.590   3.300
 7179SOL     OW33190   0.945   8.183   2.471
 7179SOL    HW133191   0.982   8.144   2.555
 7179SOL    HW233192   0.939   8.112   2.401
 7180SOL     OW33193   4.049   6.987   2.312
 7180SOL    HW133194   4.140   6.993   2.353
 7180SOL    HW233195   4.058   6.976   2.213
 7181SOL     OW33196   2.337   1.373   2.606
 7181SOL    HW133197   2.264   1.308   2.626
 7181SOL    HW233198   2.418   1.323   2.575
 7182SOL     OW33199   3.263   9.420   5.218
 7182SOL    HW133200   3.166   9.439   5.235
 7182SOL    HW233201   3.309   9.404   5.305
 7183SOL     OW33202   7.739   6.118   6.520
 7183SOL    HW133203   7.655   6.119   6.574
 7183SOL    HW233204   7.719   6.087   6.427
 7184SOL     OW33205   0.197   7.570   5.360
 7184SOL    HW133206   0.290   7.582   5.395
 7184SOL    HW233207   0.163   7.657   5.325
 7185SOL     OW33208   2.570   1.239   0.890
 7185SOL    HW133209   2.573   1.198   0.799
 7185SOL    HW233210   2.530   1.174   0.955
 7186SOL     OW33211   0.603   8.882   1.872
 7186SOL    HW133212   0.622   8.889   1.970
 7186SOL    HW233213   0.651   8.803   1.834
 7187SOL     OW33214   0.664   3.784   1.942
 7187SOL    HW133215   0.686   3.725   2.019
 7187SOL    HW233216   0.635   3.728   1.864
 7188SOL     OW33217   4.509   4.931   2.065
 7188SOL    HW133218   4.540   4.836   2.066
 7188SOL    HW233219   4.479   4.955   1.973
 7189SOL     OW33220   0.446   8.572   0.783
 7189SOL    HW133221   0.354   8.585   0.818
 7189SOL    HW233222   0.505   8.647   0.815
 7190SOL     OW33223   4.085   3.423   5.356
 7190SOL    HW133224   4.066   3.518   5.330
 7190SOL    HW233225   4.103   3.369   5.275
 7191SOL     OW33226   2.302   0.288   7.010
 7191SOL    HW133227   2.274   0.322   7.100
 7191SOL    HW233228   2.390   0.241   7.019
 7192SOL     OW33229   9.512   1.210   6.546
 7192SOL    HW133230   9.480   1.280   6.481
 7192SOL    HW233231   9.435   1.179   6.601
 7193SOL     OW33232   4.308   1.001   3.431
 7193SOL    HW133233   4.348   1.020   3.341
 7193SOL    HW233234   4.312   1.083   3.488
 7194SOL     OW33235   1.113   4.042   7.077
 7194SOL    HW133236   1.059   4.033   7.161
 7194SOL    HW233237   1.197   3.989   7.086
 7195SOL     OW33238   7.842   5.541   1.765
 7195SOL    HW133239   7.909   5.470   1.742
 7195SOL    HW233240   7.858   5.572   1.858
 7196SOL     OW33241   4.476   8.276   6.299
 7196SOL    HW133242   4.398   8.220   6.329
 7196SOL    HW233243   4.549   8.216   6.266
 7197SOL     OW33244   2.036   4.701   3.612
 7197SOL    HW133245   2.097   4.720   3.534
 7197SOL    HW233246   1.941   4.710   3.582
 7198SOL     OW33247   6.888   3.401   3.393
 7198SOL    HW133248   6.899   3.308   3.429
 7198SOL    HW233249   6.929   3.466   3.457
 7199SOL     OW33250   9.170   8.768   6.102
 7199SOL    HW133251   9.182   8.844   6.166
 7199SOL    HW233252   9.236   8.778   6.027
 7200SOL     OW33253   7.831   6.431   0.319
 7200SOL    HW133254   7.793   6.368   0.387
 7200SOL    HW233255   7.908   6.388   0.272
 7201SOL     OW33256   0.583   2.691   6.788
 7201SOL    HW133257   0.522   2.627   6.835
 7201SOL    HW233258   0.529   2.749   6.726
 7202SOL     OW33259   0.857   1.446   4.122
 7202SOL    HW133260   0.878   1.519   4.057
 7202SOL    HW233261   0.941   1.418   4.169
 7203SOL     OW33262   3.230   1.216   5.662
 7203SOL    HW133263   3.283   1.131   5.660
 7203SOL    HW233264   3.196   1.237   5.570
 7204SOL     OW33265   2.826   3.597   7.540
 7204SOL    HW133266   2.852   3.666   7.608
 7204SOL    HW233267   2.743   3.550   7.570
 7205SOL     OW33268   8.331   2.002   6.012
 7205SOL    HW133269   8.414   1.947   6.013
 7205SOL    HW233270   8.315   2.041   6.102
 7206SOL     OW33271   9.187   5.858   7.606
 7206SOL    HW133272   9.262   5.924   7.610
 7206SOL    HW233273   9.222   5.769   7.580
 7207SOL     OW33274   3.317   2.283   2.032
 7207SOL    HW133275   3.249   2.350   2.063
 7207SOL    HW233276   3.317   2.205   2.095
 7208SOL     OW33277   0.299   7.612   4.013
 7208SOL    HW133278   0.346   7.534   3.972
 7208SOL    HW233279   0.203   7.613   3.983
 7209SOL     OW33280   7.403   4.599   0.745
 7209SOL    HW133281   7.325   4.637   0.795
 7209SOL    HW233282   7.428   4.511   0.785
 7210SOL     OW33283   2.583   2.207   1.812
 7210SOL    HW133284   2.566   2.118   1.769
 7210SOL    HW233285   2.532   2.213   1.898
 7211SOL     OW33286   6.751   5.656   1.980
 7211SOL    HW133287   6.847   5.628   1.986
 7211SOL    HW233288   6.744   5.755   1.987
 7212SOL     OW33289   9.676   3.603   2.256
 7212SOL    HW133290   9.747   3.669   2.282
 7212SOL    HW233291   9.678   3.525   2.318
 7213SOL     OW33292   7.372   3.599   1.600
 7213SOL    HW133293   7.371   3.683   1.546
 7213SOL    HW233294   7.465   3.581   1.633
 7214SOL     OW33295   6.674   5.684   6.830
 7214SOL    HW133296   6.754   5.624   6.821
 7214SOL    HW233297   6.704   5.780   6.826
 7215SOL     OW33298   2.418   4.061   4.473
 7215SOL    HW133299   2.362   3.984   4.441
 7215SOL    HW233300   2.459   4.038   4.562
 7216SOL     OW33301   8.359   0.025   2.630
 7216SOL    HW133302   8.449   0.047   2.592
 7216SOL    HW233303   8.297   0.001   2.556
 7217SOL     OW33304   4.786   9.224   2.991
 7217SOL    HW133305   4.719   9.296   3.012
 7217SOL    HW233306   4.847   9.255   2.919
 7218SOL     OW33307   4.593   8.242   7.200
 7218SOL    HW133308   4.511   8.210   7.153
 7218SOL    HW233309   4.644   8.303   7.140
 7219SOL     OW33310   4.374   7.133   0.812
 7219SOL    HW133311   4.406   7.228   0.820
 7219SOL    HW233312   4.299   7.129   0.747
 7220SOL     OW33313   3.726   4.785   3.029
 7220SOL    HW133314   3.765   4.693   3.028
 7220SOL    HW233315   3.632   4.781   2.994
 7221SOL     OW33316   3.204   8.593   5.222
 7221SOL    HW133317   3.280   8.639   5.267
 7221SOL    HW233318   3.220   8.589   5.123
 7222SOL     OW33319   5.126   2.468   7.653
 7222SOL    HW133320   5.182   2.551   7.651
 7222SOL    HW233321   5.134   2.425   7.743
 7223SOL     OW33322   4.040   3.401   6.780
 7223SOL    HW133323   3.952   3.409   6.733
 7223SOL    HW233324   4.089   3.320   6.747
 7224SOL     OW33325   3.710   4.100   0.354
 7224SOL    HW133326   3.720   4.187   0.402
 7224SOL    HW233327   3.617   4.065   0.367
 7225SOL     OW33328   1.228   7.601   1.254
 7225SOL    HW133329   1.287   7.659   1.198
 7225SOL    HW233330   1.282   7.529   1.297
 7226SOL     OW33331   1.174   7.981   6.917
 7226SOL    HW133332   1.163   8.071   6.877
 7226SOL    HW233333   1.190   7.990   7.016
 7227SOL     OW33334   7.483   9.653   3.708
 7227SOL    HW133335   7.501   9.556   3.691
 7227SOL    HW233336   7.566   9.696   3.745
 7228SOL     OW33337   3.776   8.714   7.208
 7228SOL    HW133338   3.780   8.806   7.169
 7228SOL    HW233339   3.868   8.687   7.238
 7229SOL     OW33340   8.008   6.259   4.221
 7229SOL    HW133341   7.979   6.221   4.133
 7229SOL    HW233342   8.004   6.359   4.217
 7230SOL     OW33343   0.409   0.542   1.299
 7230SOL    HW133344   0.432   0.460   1.246
 7230SOL    HW233345   0.483   0.609   1.290
 7231SOL     OW33346   8.002   6.679   5.016
 7231SOL    HW133347   8.013   6.584   4.987
 7231SOL    HW233348   8.044   6.739   4.948
 7232SOL     OW33349   0.559   4.633   0.403
 7232SOL    HW133350   0.612   4.702   0.353
 7232SOL    HW233351   0.488   4.596   0.343
 7233SOL     OW33352   1.075   9.247   0.939
 7233SOL    HW133353   1.082   9.304   1.022
 7233SOL    HW233354   0.994   9.273   0.888
 7234SOL     OW33355   2.760   5.802   2.398
 7234SOL    HW133356   2.677   5.753   2.427
 7234SOL    HW233357   2.821   5.813   2.477
 7235SOL     OW33358   4.446   1.308   3.267
 7235SOL    HW133359   4.352   1.343   3.273
 7235SOL    HW233360   4.445   1.216   3.229
 7236SOL     OW33361   4.593   3.138   7.150
 7236SOL    HW133362   4.655   3.063   7.127
 7236SOL    HW233363   4.646   3.223   7.157
 7237SOL     OW33364   7.966   2.194   5.708
 7237SOL    HW133365   8.015   2.122   5.757
 7237SOL    HW233366   8.016   2.217   5.624
 7238SOL     OW33367   1.520   9.705   1.263
 7238SOL    HW133368   1.429   9.677   1.233
 7238SOL    HW233369   1.549   9.785   1.212
 7239SOL     OW33370   9.911   2.919   6.495
 7239SOL    HW133371   9.904   2.960   6.404
 7239SOL    HW233372   9.994   2.863   6.500
 7240SOL     OW33373   4.270   7.393   2.866
 7240SOL    HW133374   4.334   7.319   2.847
 7240SOL    HW233375   4.247   7.394   2.964
 7241SOL     OW33376   0.978   2.491   5.626
 7241SOL    HW133377   0.929   2.578   5.640
 7241SOL    HW233378   1.073   2.510   5.602
 7242SOL     OW33379   1.066   3.389   1.147
 7242SOL    HW133380   1.058   3.360   1.243
 7242SOL    HW233381   0.976   3.417   1.113
 7243SOL     OW33382   6.370   9.603   7.681
 7243SOL    HW133383   6.326   9.667   7.744
 7243SOL    HW233384   6.469   9.603   7.697
 7244SOL     OW33385   6.931   6.825   1.933
 7244SOL    HW133386   6.990   6.905   1.926
 7244SOL    HW233387   6.905   6.794   1.842
 7245SOL     OW33388   7.173   5.501   0.909
 7245SOL    HW133389   7.256   5.558   0.909
 7245SOL    HW233390   7.174   5.442   0.990
 7246SOL     OW33391   0.827   6.901   3.072
 7246SOL    HW133392   0.879   6.985   3.086
 7246SOL    HW233393   0.729   6.921   3.074
 7247SOL     OW33394   2.801   7.923   1.558
 7247SOL    HW133395   2.749   7.941   1.642
 7247SOL    HW233396   2.739   7.888   1.488
 7248SOL     OW33397   6.268   4.884   7.728
 7248SOL    HW133398   6.234   4.812   7.788
 7248SOL    HW233399   6.287   4.966   7.782
 7249SOL     OW33400   1.928   3.541   1.063
 7249SOL    HW133401   1.917   3.639   1.077
 7249SOL    HW233402   1.846   3.493   1.096
 7250SOL     OW33403   1.360   8.247   2.511
 7250SOL    HW133404   1.382   8.252   2.608
 7250SOL    HW233405   1.312   8.331   2.484
 7251SOL     OW33406   3.640   8.189   1.666
 7251SOL    HW133407   3.711   8.135   1.621
 7251SOL    HW233408   3.550   8.159   1.633
 7252SOL     OW33409   2.853   3.756   2.822
 7252SOL    HW133410   2.941   3.763   2.869
 7252SOL    HW233411   2.816   3.848   2.808
 7253SOL     OW33412   3.620   7.769   4.075
 7253SOL    HW133413   3.599   7.834   4.147
 7253SOL    HW233414   3.706   7.796   4.030
 7254SOL     OW33415   0.249   1.088   6.597
 7254SOL    HW133416   0.317   1.016   6.613
 7254SOL    HW233417   0.257   1.121   6.502
 7255SOL     OW33418   9.547   9.332   2.421
 7255SOL    HW133419   9.612   9.259   2.443
 7255SOL    HW233420   9.555   9.357   2.325
 7256SOL     OW33421   1.419   9.576   3.309
 7256SOL    HW133422   1.365   9.660   3.299
 7256SOL    HW233423   1.503   9.584   3.255
 7257SOL     OW33424   0.637   2.208   0.731
 7257SOL    HW133425   0.558   2.266   0.712
 7257SOL    HW233426   0.665   2.161   0.647
 7258SOL     OW33427   2.101   7.178   2.885
 7258SOL    HW133428   2.159   7.209   2.960
 7258SOL    HW233429   2.127   7.225   2.801
 7259SOL     OW33430   1.451   5.882   2.505
 7259SOL    HW133431   1.441   5.982   2.501
 7259SOL    HW233432   1.523   5.853   2.443
 7260SOL     OW33433   0.587   2.105   4.588
 7260SOL    HW133434   0.537   2.139   4.667
 7260SOL    HW233435   0.553   2.015   4.562
 7261SOL     OW33436   7.287   0.979   1.738
 7261SOL    HW133437   7.358   1.049   1.735
 7261SOL    HW233438   7.271   0.943   1.646
 7262SOL     OW33439   9.003   5.175   7.014
 7262SOL    HW133440   8.945   5.192   7.094
 7262SOL    HW233441   9.007   5.258   6.958
 7263SOL     OW33442   9.862   6.119   4.417
 7263SOL    HW133443   9.822   6.098   4.506
 7263SOL    HW233444   9.872   6.035   4.364
 7264SOL     OW33445   7.553   2.390   2.872
 7264SOL    HW133446   7.455   2.412   2.865
 7264SOL    HW233447   7.597   2.407   2.784
 7265SOL     OW33448   1.093   1.464   3.873
 7265SOL    HW133449   1.155   1.503   3.941
 7265SOL    HW233450   1.012   1.523   3.865
 7266SOL     OW33451   7.344   9.009   6.568
 7266SOL    HW133452   7.331   9.082   6.634
 7266SOL    HW233453   7.439   8.978   6.572
 7267SOL     OW33454   3.870   5.108   6.712
 7267SOL    HW133455   3.818   5.168   6.772
 7267SOL    HW233456   3.809   5.067   6.644
 7268SOL     OW33457   8.131   4.596   2.537
 7268SOL    HW133458   8.125   4.656   2.457
 7268SOL    HW233459   8.067   4.520   2.527
 7269SOL     OW33460   8.729   8.525   0.173
 7269SOL    HW133461   8.823   8.550   0.195
 7269SOL    HW233462   8.729   8.461   0.096
 7270SOL     OW33463   0.581   5.501   2.908
 7270SOL    HW133464   0.511   5.504   2.837
 7270SOL    HW233465   0.539   5.521   2.997
 7271SOL     OW33466   2.653   9.766   0.610
 7271SOL    HW133467   2.651   9.691   0.676
 7271SOL    HW233468   2.748   9.792   0.592
 7272SOL     OW33469   3.023   7.548   5.807
 7272SOL    HW133470   2.989   7.454   5.800
 7272SOL    HW233471   2.947   7.612   5.797
 7273SOL     OW33472   1.045   0.339   1.160
 7273SOL    HW133473   1.047   0.367   1.064
 7273SOL    HW233474   1.136   0.309   1.188
 7274SOL     OW33475   9.269   8.384   6.582
 7274SOL    HW133476   9.233   8.412   6.493
 7274SOL    HW233477   9.192   8.358   6.641
 7275SOL     OW33478   6.059   4.010   0.357
 7275SOL    HW133479   6.057   3.981   0.262
 7275SOL    HW233480   6.153   4.014   0.390
 7276SOL     OW33481   1.464   1.345   1.996
 7276SOL    HW133482   1.371   1.368   2.024
 7276SOL    HW233483   1.519   1.322   2.076
 7277SOL     OW33484   3.580   0.304   3.474
 7277SOL    HW133485   3.622   0.310   3.564
 7277SOL    HW233486   3.482   0.325   3.480
 7278SOL     OW33487   0.494   7.862   2.066
 7278SOL    HW133488   0.485   7.846   2.164
 7278SOL    HW233489   0.591   7.863   2.041
 7279SOL     OW33490   3.687   2.880   0.447
 7279SOL    HW133491   3.743   2.956   0.480
 7279SOL    HW233492   3.739   2.795   0.454
 7280SOL     OW33493   8.271   2.588   2.014
 7280SOL    HW133494   8.283   2.672   2.066
 7280SOL    HW233495   8.358   2.561   1.972
 7281SOL     OW33496   9.434   3.925   3.050
 7281SOL    HW133497   9.494   3.997   3.085
 7281SOL    HW233498   9.354   3.916   3.108
 7282SOL     OW33499   0.085   8.017   0.360
 7282SOL    HW133500   0.019   8.093   0.362
 7282SOL    HW233501   0.054   7.948   0.295
 7283SOL     OW33502   2.841   8.917   7.242
 7283SOL    HW133503   2.764   8.934   7.180
 7283SOL    HW233504   2.915   8.873   7.192
 7284SOL     OW33505   0.425   0.772   4.546
 7284SOL    HW133506   0.400   0.827   4.467
 7284SOL    HW233507   0.378   0.805   4.628
 7285SOL     OW33508   0.885   5.670   2.324
 7285SOL    HW133509   0.899   5.758   2.278
 7285SOL    HW233510   0.841   5.606   2.260
 7286SOL     OW33511   9.265   8.346   4.880
 7286SOL    HW133512   9.365   8.344   4.879
 7286SOL    HW233513   9.233   8.374   4.970
 7287SOL     OW33514   3.727   2.351   6.151
 7287SOL    HW133515   3.738   2.357   6.250
 7287SOL    HW233516   3.799   2.293   6.113
 7288SOL     OW33517   2.751   5.092   0.769
 7288SOL    HW133518   2.732   5.161   0.840
 7288SOL    HW233519   2.671   5.083   0.710
 7289SOL     OW33520   8.502   3.578   5.171
 7289SOL    HW133521   8.464   3.587   5.263
 7289SOL    HW233522   8.578   3.643   5.161
 7290SOL     OW33523   3.710   1.176   1.384
 7290SOL    HW133524   3.728   1.244   1.455
 7290SOL    HW233525   3.611   1.163   1.373
 7291SOL     OW33526   2.887   4.043   0.623
 7291SOL    HW133527   2.917   3.986   0.546
 7291SOL    HW233528   2.925   4.135   0.613
 7292SOL     OW33529   2.611   9.007   4.449
 7292SOL    HW133530   2.544   8.933   4.459
 7292SOL    HW233531   2.669   9.010   4.531
 7293SOL     OW33532   2.972   5.904   5.757
 7293SOL    HW133533   3.061   5.945   5.743
 7293SOL    HW233534   2.930   5.884   5.669
 7294SOL     OW33535   9.831   3.994   0.366
 7294SOL    HW133536   9.829   4.066   0.297
 7294SOL    HW233537   9.754   4.007   0.429
 7295SOL     OW33538   1.760   4.038   0.429
 7295SOL    HW133539   1.733   4.123   0.385
 7295SOL    HW233540   1.827   3.990   0.372
 7296SOL     OW33541   8.188   9.240   2.738
 7296SOL    HW133542   8.119   9.189   2.687
 7296SOL    HW233543   8.260   9.271   2.675
 7297SOL     OW33544   6.533   1.785   3.231
 7297SOL    HW133545   6.558   1.691   3.251
 7297SOL    HW233546   6.583   1.817   3.150
 7298SOL     OW33547   6.096   3.398   0.590
 7298SOL    HW133548   6.080   3.477   0.531
 7298SOL    HW233549   6.049   3.411   0.677
 7299SOL     OW33550   0.401   2.365   5.622
 7299SOL    HW133551   0.466   2.294   5.652
 7299SOL    HW233552   0.369   2.416   5.702
 7300SOL     OW33553   7.651   4.453   7.167
 7300SOL    HW133554   7.740   4.423   7.132
 7300SOL    HW233555   7.638   4.417   7.260
 7301SOL     OW33556   1.462   8.069   5.222
 7301SOL    HW133557   1.433   8.107   5.134
 7301SOL    HW233558   1.556   8.094   5.241
 7302SOL     OW33559   6.714   0.317   7.098
 7302SOL    HW133560   6.740   0.225   7.068
 7302SOL    HW233561   6.795   0.373   7.110
 7303SOL     OW33562   9.608   8.445   6.480
 7303SOL    HW133563   9.701   8.423   6.449
 7303SOL    HW233564   9.576   8.372   6.541
 7304SOL     OW33565   2.127   1.245   2.248
 7304SOL    HW133566   2.067   1.283   2.318
 7304SOL    HW233567   2.206   1.305   2.234
 7305SOL     OW33568   1.909   0.294   1.330
 7305SOL    HW133569   1.965   0.211   1.330
 7305SOL    HW233570   1.812   0.270   1.337
 7306SOL     OW33571   8.155   1.533   7.611
 7306SOL    HW133572   8.179   1.611   7.553
 7306SOL    HW233573   8.219   1.527   7.687
 7307SOL     OW33574   3.799   6.683   4.540
 7307SOL    HW133575   3.776   6.780   4.543
 7307SOL    HW233576   3.720   6.630   4.509
 7308SOL     OW33577   9.012   9.046   4.123
 7308SOL    HW133578   8.961   9.126   4.153
 7308SOL    HW233579   9.058   9.066   4.036
 7309SOL     OW33580   0.257   3.574   2.808
 7309SOL    HW133581   0.233   3.671   2.808
 7309SOL    HW233582   0.180   3.521   2.772
 7310SOL     OW33583   8.702   0.595   3.617
 7310SOL    HW133584   8.767   0.610   3.542
 7310SOL    HW233585   8.748   0.545   3.691
 7311SOL     OW33586   8.733   1.455   2.287
 7311SOL    HW133587   8.743   1.364   2.328
 7311SOL    HW233588   8.636   1.478   2.280
 7312SOL     OW33589   2.284   0.680   5.059
 7312SOL    HW133590   2.309   0.701   5.153
 7312SOL    HW233591   2.187   0.699   5.045
 7313SOL     OW33592   1.893   4.359   4.665
 7313SOL    HW133593   1.945   4.304   4.600
 7313SOL    HW233594   1.868   4.446   4.622
 7314SOL     OW33595   4.096   9.994   2.427
 7314SOL    HW133596   4.049   0.018   2.512
 7314SOL    HW233597   4.123   0.077   2.379
 7315SOL     OW33598   3.103   2.077   3.851
 7315SOL    HW133599   3.156   2.013   3.906
 7315SOL    HW233600   3.047   2.134   3.911
 7316SOL     OW33601   5.518   9.251   2.422
 7316SOL    HW133602   5.601   9.272   2.473
 7316SOL    HW233603   5.500   9.153   2.425
 7317SOL     OW33604   8.880   2.343   6.756
 7317SOL    HW133605   8.949   2.370   6.689
 7317SOL    HW233606   8.802   2.406   6.751
 7318SOL     OW33607   4.188   6.626   0.746
 7318SOL    HW133608   4.265   6.647   0.806
 7318SOL    HW233609   4.210   6.653   0.653
 7319SOL     OW33610   3.132   3.721   2.371
 7319SOL    HW133611   3.185   3.649   2.327
 7319SOL    HW233612   3.169   3.740   2.462
 7320SOL     OW33613   1.438   0.943   6.684
 7320SOL    HW133614   1.500   0.913   6.756
 7320SOL    HW233615   1.447   1.041   6.670
 7321SOL     OW33616   1.156   3.788   2.967
 7321SOL    HW133617   1.239   3.734   2.954
 7321SOL    HW233618   1.097   3.777   2.887
 7322SOL     OW33619   0.751   5.074   4.067
 7322SOL    HW133620   0.750   4.975   4.079
 7322SOL    HW233621   0.835   5.112   4.104
 7323SOL     OW33622   9.608   0.804   0.974
 7323SOL    HW133623   9.681   0.746   1.011
 7323SOL    HW233624   9.647   0.892   0.947
 7324SOL     OW33625   2.726   1.098   6.060
 7324SOL    HW133626   2.776   1.174   6.019
 7324SOL    HW233627   2.789   1.036   6.106
 7325SOL     OW33628   8.271   6.906   0.709
 7325SOL    HW133629   8.180   6.888   0.746
 7325SOL    HW233630   8.263   6.943   0.617
 7326SOL     OW33631   0.805   1.037   4.809
 7326SOL    HW133632   0.714   0.996   4.814
 7326SOL    HW233633   0.871   0.978   4.856
 7327SOL     OW33634   8.322   0.584   7.467
 7327SOL    HW133635   8.295   0.489   7.479
 7327SOL    HW233636   8.242   0.639   7.444
 7328SOL     OW33637   3.173   9.483   7.823
 7328SOL    HW133638   3.261   9.450   7.857
 7328SOL    HW233639   3.184   9.514   7.729
 7329SOL     OW33640   2.007   9.041   0.822
 7329SOL    HW133641   2.094   9.086   0.803
 7329SOL    HW233642   1.945   9.105   0.867
 7330SOL     OW33643   1.410   9.987   6.686
 7330SOL    HW133644   1.463   9.968   6.603
 7330SOL    HW233645   1.312   9.990   6.663
 7331SOL     OW33646   0.185   8.143   4.957
 7331SOL    HW133647   0.201   8.091   4.873
 7331SOL    HW233648   0.270   8.153   5.008
 7332SOL     OW33649   2.176   2.602   1.274
 7332SOL    HW133650   2.131   2.685   1.240
 7332SOL    HW233651   2.151   2.525   1.216
 7333SOL     OW33652   9.847   2.080   4.721
 7333SOL    HW133653   9.877   1.990   4.687
 7333SOL    HW233654   9.922   2.145   4.714
 7334SOL     OW33655   3.727   5.046   2.090
 7334SOL    HW133656   3.688   5.125   2.042
 7334SOL    HW233657   3.823   5.035   2.064
 7335SOL     OW33658   0.855   1.854   5.040
 7335SOL    HW133659   0.935   1.831   4.984
 7335SOL    HW233660   0.806   1.931   4.998
 7336SOL     OW33661   1.325   3.096   4.860
 7336SOL    HW133662   1.386   3.129   4.788
 7336SOL    HW233663   1.249   3.159   4.871
 7337SOL     OW33664   0.892   8.364   2.256
 7337SOL    HW133665   0.805   8.340   2.211
 7337SOL    HW233666   0.905   8.306   2.336
 7338SOL     OW33667   1.260   9.150   4.325
 7338SOL    HW133668   1.277   9.055   4.353
 7338SOL    HW233669   1.227   9.151   4.231
 7339SOL     OW33670   9.140   8.425   5.115
 7339SOL    HW133671   9.204   8.466   5.179
 7339SOL    HW233672   9.079   8.496   5.079
 7340SOL     OW33673   8.443   1.743   5.699
 7340SOL    HW133674   8.390   1.666   5.665
 7340SOL    HW233675   8.436   1.819   5.634
 7341SOL     OW33676   0.684   1.583   0.377
 7341SOL    HW133677   0.664   1.608   0.472
 7341SOL    HW233678   0.683   1.664   0.320
 7342SOL     OW33679   1.656   3.351   5.677
 7342SOL    HW133680   1.670   3.441   5.718
 7342SOL    HW233681   1.558   3.339   5.657
 7343SOL     OW33682   0.710   6.119   6.034
 7343SOL    HW133683   0.784   6.055   6.054
 7343SOL    HW233684   0.748   6.210   6.018
 7344SOL     OW33685   2.977   4.419   7.517
 7344SOL    HW133686   3.061   4.456   7.557
 7344SOL    HW233687   2.971   4.322   7.538
 7345SOL     OW33688   4.510   2.752   0.550
 7345SOL    HW133689   4.496   2.685   0.477
 7345SOL    HW233690   4.507   2.706   0.638
 7346SOL     OW33691   0.086   7.435   2.562
 7346SOL    HW133692   0.061   7.340   2.546
 7346SOL    HW233693   0.033   7.470   2.639
 7347SOL     OW33694   7.519   2.160   5.048
 7347SOL    HW133695   7.420   2.156   5.063
 7347SOL    HW233696   7.543   2.112   4.964
 7348SOL     OW33697   6.943   7.104   2.268
 7348SOL    HW133698   6.993   7.019   2.284
 7348SOL    HW233699   6.993   7.161   2.202
 7349SOL     OW33700   6.621   8.838   7.784
 7349SOL    HW133701   6.680   8.781   7.842
 7349SOL    HW233702   6.550   8.781   7.743
 7350SOL     OW33703   9.136   5.494   7.753
 7350SOL    HW133704   9.172   5.404   7.777
 7350SOL    HW233705   9.181   5.527   7.670
 7351SOL     OW33706   3.607   5.214   2.577
 7351SOL    HW133707   3.646   5.172   2.495
 7351SOL    HW233708   3.655   5.299   2.596
 7352SOL     OW33709   3.742   3.993   2.196
 7352SOL    HW133710   3.711   3.903   2.225
 7352SOL    HW233711   3.664   4.049   2.170
 7353SOL     OW33712   0.471   5.992   6.335
 7353SOL    HW133713   0.570   5.982   6.326
 7353SOL    HW233714   0.446   6.088   6.318
 7354SOL     OW33715   1.796   6.048   1.253
 7354SOL    HW133716   1.704   6.029   1.287
 7354SOL    HW233717   1.855   5.969   1.269
 7355SOL     OW33718   2.527   3.825   1.071
 7355SOL    HW133719   2.454   3.796   1.131
 7355SOL    HW233720   2.603   3.760   1.076
 7356SOL     OW33721   3.118   3.381   1.253
 7356SOL    HW133722   3.121   3.481   1.243
 7356SOL    HW233723   3.045   3.357   1.317
 7357SOL     OW33724   2.562   1.884   6.131
 7357SOL    HW133725   2.513   1.879   6.217
 7357SOL    HW233726   2.529   1.812   6.069
 7358SOL     OW33727   1.796   2.995   6.610
 7358SOL    HW133728   1.815   3.009   6.707
 7358SOL    HW233729   1.853   3.056   6.556
 7359SOL     OW33730   3.541   6.378   0.963
 7359SOL    HW133731   3.559   6.459   1.017
 7359SOL    HW233732   3.539   6.298   1.022
 7360SOL     OW33733   1.458   3.134   0.919
 7360SOL    HW133734   1.492   3.162   0.829
 7360SOL    HW233735   1.366   3.171   0.933
 7361SOL     OW33736   1.450   5.194   7.630
 7361SOL    HW133737   1.517   5.123   7.610
 7361SOL    HW233738   1.495   5.283   7.632
 7362SOL     OW33739   7.335   7.870   4.727
 7362SOL    HW133740   7.276   7.876   4.646
 7362SOL    HW233741   7.278   7.851   4.807
 7363SOL     OW33742   8.465   9.844   7.212
 7363SOL    HW133743   8.531   9.787   7.262
 7363SOL    HW233744   8.507   9.879   7.129
 7364SOL     OW33745   1.194   9.653   4.746
 7364SOL    HW133746   1.202   9.554   4.756
 7364SOL    HW233747   1.261   9.698   4.805
 7365SOL     OW33748   7.082   7.611   3.209
 7365SOL    HW133749   7.119   7.572   3.294
 7365SOL    HW233750   7.132   7.574   3.131
 7366SOL     OW33751   9.677   2.573   3.886
 7366SOL    HW133752   9.709   2.478   3.880
 7366SOL    HW233753   9.579   2.573   3.903
 7367SOL     OW33754   8.970   6.467   6.627
 7367SOL    HW133755   8.958   6.381   6.578
 7367SOL    HW233756   9.055   6.464   6.679
 7368SOL     OW33757   9.746   5.787   0.715
 7368SOL    HW133758   9.674   5.774   0.784
 7368SOL    HW233759   9.731   5.724   0.639
 7369SOL     OW33760   8.320   0.833   4.741
 7369SOL    HW133761   8.241   0.772   4.747
 7369SOL    HW233762   8.303   0.903   4.672
 7370SOL     OW33763   6.940   8.857   4.524
 7370SOL    HW133764   6.965   8.777   4.469
 7370SOL    HW233765   6.929   8.830   4.619
 7371SOL     OW33766   6.575   8.034   4.661
 7371SOL    HW133767   6.492   8.031   4.606
 7371SOL    HW233768   6.655   8.033   4.601
 7372SOL     OW33769   0.870   2.757   3.173
 7372SOL    HW133770   0.799   2.688   3.172
 7372SOL    HW233771   0.893   2.783   3.079
 7373SOL     OW33772   9.205   3.387   2.636
 7373SOL    HW133773   9.241   3.448   2.707
 7373SOL    HW233774   9.106   3.378   2.647
 7374SOL     OW33775   3.135   0.652   2.226
 7374SOL    HW133776   3.213   0.662   2.287
 7374SOL    HW233777   3.051   0.671   2.276
 7375SOL     OW33778   4.165   1.651   5.464
 7375SOL    HW133779   4.248   1.597   5.450
 7375SOL    HW233780   4.085   1.597   5.438
 7376SOL     OW33781   7.639   2.071   3.627
 7376SOL    HW133782   7.640   1.972   3.634
 7376SOL    HW233783   7.719   2.103   3.577
 7377SOL     OW33784   0.954   9.011   3.845
 7377SOL    HW133785   0.920   9.061   3.766
 7377SOL    HW233786   1.038   8.962   3.821
 7378SOL     OW33787   2.663   8.696   2.078
 7378SOL    HW133788   2.722   8.709   2.157
 7378SOL    HW233789   2.610   8.780   2.062
 7379SOL     OW33790   9.020   7.846   7.725
 7379SOL    HW133791   9.030   7.747   7.719
 7379SOL    HW233792   8.926   7.872   7.699
 7380SOL     OW33793   7.692   0.077   1.995
 7380SOL    HW133794   7.609   0.022   2.005
 7380SOL    HW233795   7.762   0.024   1.947
 7381SOL     OW33796   8.874   5.838   5.077
 7381SOL    HW133797   8.809   5.833   5.001
 7381SOL    HW233798   8.833   5.888   5.153
 7382SOL     OW33799   5.598   5.324   1.315
 7382SOL    HW133800   5.654   5.289   1.391
 7382SOL    HW233801   5.512   5.361   1.351
 7383SOL     OW33802   5.251   2.155   1.099
 7383SOL    HW133803   5.229   2.088   1.170
 7383SOL    HW233804   5.343   2.138   1.065
 7384SOL     OW33805   4.851   9.503   3.818
 7384SOL    HW133806   4.880   9.459   3.734
 7384SOL    HW233807   4.842   9.435   3.891
 7385SOL     OW33808   9.118   6.658   7.195
 7385SOL    HW133809   9.063   6.671   7.278
 7385SOL    HW233810   9.112   6.740   7.139
 7386SOL     OW33811   1.506   5.572   4.518
 7386SOL    HW133812   1.535   5.658   4.561
 7386SOL    HW233813   1.408   5.578   4.495
 7387SOL     OW33814   1.074   1.804   4.877
 7387SOL    HW133815   1.098   1.895   4.842
 7387SOL    HW233816   1.155   1.745   4.875
 7388SOL     OW33817   2.543   2.820   5.513
 7388SOL    HW133818   2.641   2.801   5.509
 7388SOL    HW233819   2.527   2.901   5.569
 7389SOL     OW33820   1.810   3.136   5.625
 7389SOL    HW133821   1.761   3.220   5.645
 7389SOL    HW233822   1.907   3.148   5.647
 7390SOL     OW33823   3.284   8.818   2.161
 7390SOL    HW133824   3.343   8.748   2.122
 7390SOL    HW233825   3.189   8.790   2.153
 7391SOL     OW33826   0.743   8.529   3.550
 7391SOL    HW133827   0.794   8.552   3.632
 7391SOL    HW233828   0.770   8.590   3.475
 7392SOL     OW33829   0.982   8.034   0.604
 7392SOL    HW133830   0.916   8.074   0.540
 7392SOL    HW233831   1.021   8.106   0.661
 7393SOL     OW33832   8.315   4.773   1.729
 7393SOL    HW133833   8.395   4.833   1.739
 7393SOL    HW233834   8.313   4.737   1.636
 7394SOL     OW33835   8.018   1.746   5.059
 7394SOL    HW133836   8.109   1.727   5.021
 7394SOL    HW233837   7.969   1.659   5.073
 7395SOL     OW33838   4.923   2.889   1.573
 7395SOL    HW133839   4.917   2.938   1.486
 7395SOL    HW233840   4.834   2.849   1.594
 7396SOL     OW33841   1.580   4.040   7.136
 7396SOL    HW133842   1.548   4.131   7.109
 7396SOL    HW233843   1.665   4.047   7.187
 7397SOL     OW33844   9.269   0.781   6.158
 7397SOL    HW133845   9.352   0.830   6.130
 7397SOL    HW233846   9.244   0.809   6.251
 7398SOL     OW33847   0.116   3.126   4.247
 7398SOL    HW133848   0.022   3.102   4.224
 7398SOL    HW233849   0.142   3.082   4.333
 7399SOL     OW33850   5.180   9.339   6.693
 7399SOL    HW133851   5.255   9.296   6.642
 7399SOL    HW233852   5.194   9.323   6.791
 7400SOL     OW33853   4.690   8.416   7.003
 7400SOL    HW133854   4.746   8.479   7.058
 7400SOL    HW233855   4.740   8.389   6.922
 7401SOL     OW33856   7.735   6.836   1.892
 7401SOL    HW133857   7.702   6.926   1.920
 7401SOL    HW233858   7.683   6.804   1.813
 7402SOL     OW33859   5.923   0.240   4.658
 7402SOL    HW133860   5.868   0.191   4.590
 7402SOL    HW233861   5.953   0.328   4.621
 7403SOL     OW33862   3.258   6.773   2.290
 7403SOL    HW133863   3.339   6.776   2.231
 7403SOL    HW233864   3.181   6.738   2.238
 7404SOL     OW33865   3.794   6.513   7.461
 7404SOL    HW133866   3.757   6.429   7.501
 7404SOL    HW233867   3.877   6.540   7.510
 7405SOL     OW33868   8.058   9.403   6.915
 7405SOL    HW133869   7.991   9.438   6.980
 7405SOL    HW233870   8.017   9.400   6.823
 7406SOL     OW33871   2.937   9.315   4.651
 7406SOL    HW133872   2.955   9.306   4.749
 7406SOL    HW233873   2.965   9.232   4.604
 7407SOL     OW33874   1.322   7.825   3.886
 7407SOL    HW133875   1.378   7.754   3.842
 7407SOL    HW233876   1.328   7.909   3.832
 7408SOL     OW33877   6.541   4.004   2.574
 7408SOL    HW133878   6.524   3.969   2.666
 7408SOL    HW233879   6.639   3.997   2.554
 7409SOL     OW33880   2.730   5.816   3.195
 7409SOL    HW133881   2.684   5.856   3.117
 7409SOL    HW233882   2.729   5.880   3.272
 7410SOL     OW33883   2.758   9.045   6.055
 7410SOL    HW133884   2.793   9.035   6.149
 7410SOL    HW233885   2.811   8.987   5.994
 7411SOL     OW33886   2.363   3.255   7.765
 7411SOL    HW133887   2.353   3.353   7.751
 7411SOL    HW233888   2.451   3.236   7.810
 7412SOL     OW33889   8.787   9.316   1.100
 7412SOL    HW133890   8.794   9.291   1.197
 7412SOL    HW233891   8.825   9.243   1.044
 7413SOL     OW33892   7.685   6.952   3.092
 7413SOL    HW133893   7.773   6.923   3.054
 7413SOL    HW233894   7.613   6.888   3.063
 7414SOL     OW33895   3.008   4.070   0.951
 7414SOL    HW133896   3.084   4.054   0.888
 7414SOL    HW233897   2.927   4.018   0.921
 7415SOL     OW33898   7.267   6.191   6.875
 7415SOL    HW133899   7.315   6.257   6.818
 7415SOL    HW233900   7.179   6.229   6.903
 7416SOL     OW33901   8.705   8.766   6.008
 7416SOL    HW133902   8.632   8.715   6.054
 7416SOL    HW233903   8.707   8.740   5.911
 7417SOL     OW33904   1.918   8.967   2.631
 7417SOL    HW133905   1.962   8.961   2.541
 7417SOL    HW233906   1.891   9.061   2.649
 7418SOL     OW33907   3.828   7.881   2.064
 7418SOL    HW133908   3.784   7.966   2.092
 7418SOL    HW233909   3.912   7.867   2.117
 7419SOL     OW33910   7.372   8.536   4.578
 7419SOL    HW133911   7.468   8.514   4.559
 7419SOL    HW233912   7.331   8.581   4.499
 7420SOL     OW33913   5.334   9.712   3.094
 7420SOL    HW133914   5.348   9.702   3.193
 7420SOL    HW233915   5.251   9.765   3.077
 7421SOL     OW33916   0.318   5.841   5.741
 7421SOL    HW133917   0.362   5.931   5.736
 7421SOL    HW233918   0.388   5.770   5.751
 7422SOL     OW33919   7.302   2.194   4.497
 7422SOL    HW133920   7.385   2.211   4.444
 7422SOL    HW233921   7.225   2.176   4.435
 7423SOL     OW33922   5.789   4.962   1.498
 7423SOL    HW133923   5.873   5.016   1.491
 7423SOL    HW233924   5.808   4.878   1.548
 7424SOL     OW33925   9.883   1.584   2.761
 7424SOL    HW133926   9.804   1.534   2.797
 7424SOL    HW233927   9.940   1.616   2.836
 7425SOL     OW33928   8.016   6.881   0.783
 7425SOL    HW133929   7.941   6.823   0.815
 7425SOL    HW233930   8.005   6.973   0.822
 7426SOL     OW33931   2.083   2.855   0.559
 7426SOL    HW133932   2.077   2.879   0.656
 7426SOL    HW233933   2.138   2.923   0.511
 7427SOL     OW33934   3.862   1.961   5.643
 7427SOL    HW133935   3.943   1.905   5.659
 7427SOL    HW233936   3.824   1.989   5.731
 7428SOL     OW33937   8.806   2.085   0.506
 7428SOL    HW133938   8.831   1.994   0.473
 7428SOL    HW233939   8.710   2.104   0.484
 7429SOL     OW33940   7.229   0.485   3.121
 7429SOL    HW133941   7.274   0.546   3.186
 7429SOL    HW233942   7.131   0.504   3.120
 7430SOL     OW33943   7.192   3.028   3.136
 7430SOL    HW133944   7.160   3.105   3.191
 7430SOL    HW233945   7.251   3.061   3.063
 7431SOL     OW33946   2.732   8.094   6.978
 7431SOL    HW133947   2.730   8.185   6.938
 7431SOL    HW233948   2.826   8.072   7.005
 7432SOL     OW33949   3.651   3.436   5.123
 7432SOL    HW133950   3.569   3.383   5.148
 7432SOL    HW233951   3.673   3.500   5.197
 7433SOL     OW33952   5.956   9.887   6.168
 7433SOL    HW133953   5.978   9.887   6.265
 7433SOL    HW233954   5.876   9.946   6.153
 7434SOL     OW33955   8.535   2.885   4.339
 7434SOL    HW133956   8.486   2.801   4.318
 7434SOL    HW233957   8.471   2.962   4.341
 7435SOL     OW33958   8.845   1.283   7.142
 7435SOL    HW133959   8.749   1.259   7.154
 7435SOL    HW233960   8.890   1.288   7.231
 7436SOL     OW33961   4.163   0.554   1.758
 7436SOL    HW133962   4.128   0.519   1.846
 7436SOL    HW233963   4.172   0.478   1.694
 7437SOL     OW33964   5.454   0.536   6.927
 7437SOL    HW133965   5.365   0.490   6.930
 7437SOL    HW233966   5.441   0.634   6.943
 7438SOL     OW33967   6.898   9.954   1.650
 7438SOL    HW133968   6.848   9.882   1.698
 7438SOL    HW233969   6.836   0.004   1.590
 7439SOL     OW33970   7.119   9.552   4.987
 7439SOL    HW133971   7.158   9.618   4.923
 7439SOL    HW233972   7.114   9.462   4.942
 7440SOL     OW33973   4.597   0.878   3.330
 7440SOL    HW133974   4.602   0.950   3.400
 7440SOL    HW233975   4.670   0.812   3.345
 7441SOL     OW33976   4.715   4.221   6.671
 7441SOL    HW133977   4.680   4.315   6.673
 7441SOL    HW233978   4.640   4.157   6.685
 7442SOL     OW33979   8.071   4.133   3.058
 7442SOL    HW133980   8.037   4.145   2.965
 7442SOL    HW233981   8.031   4.202   3.118
 7443SOL     OW33982   7.561   2.195   0.783
 7443SOL    HW133983   7.555   2.204   0.684
 7443SOL    HW233984   7.530   2.280   0.826
 7444SOL     OW33985   0.291   4.352   1.888
 7444SOL    HW133986   0.336   4.440   1.875
 7444SOL    HW233987   0.195   4.366   1.911
 7445SOL     OW33988   5.468   2.885   5.232
 7445SOL    HW133989   5.380   2.837   5.236
 7445SOL    HW233990   5.460   2.973   5.279
 7446SOL     OW33991   4.230   9.821   2.985
 7446SOL    HW133992   4.197   9.851   3.074
 7446SOL    HW233993   4.171   9.747   2.952
 7447SOL     OW33994   6.429   5.156   1.370
 7447SOL    HW133995   6.395   5.218   1.300
 7447SOL    HW233996   6.360   5.143   1.441
 7448SOL     OW33997   8.197   1.183   6.840
 7448SOL    HW133998   8.268   1.254   6.838
 7448SOL    HW233999   8.194   1.143   6.931
 7449SOL     OW34000   4.008   8.608   7.299
 7449SOL    HW134001   4.002   8.565   7.389
 7449SOL    HW234002   4.096   8.587   7.258
 7450SOL     OW34003   0.975   6.415   1.607
 7450SOL    HW134004   1.009   6.324   1.632
 7450SOL    HW234005   1.044   6.462   1.552
 7451SOL     OW34006   9.079   3.601   6.541
 7451SOL    HW134007   9.083   3.692   6.500
 7451SOL    HW234008   9.128   3.537   6.482
 7452SOL     OW34009   7.564   0.247   0.758
 7452SOL    HW134010   7.594   0.297   0.839
 7452SOL    HW234011   7.641   0.239   0.694
 7453SOL     OW34012   6.862   7.573   5.815
 7453SOL    HW134013   6.837   7.478   5.832
 7453SOL    HW234014   6.956   7.577   5.781
 7454SOL     OW34015   5.799   4.110   1.430
 7454SOL    HW134016   5.772   4.021   1.395
 7454SOL    HW234017   5.717   4.164   1.452
 7455SOL     OW34018   9.347   9.190   2.213
 7455SOL    HW134019   9.253   9.173   2.184
 7455SOL    HW234020   9.350   9.204   2.312
 7456SOL     OW34021   2.315   1.517   3.088
 7456SOL    HW134022   2.263   1.435   3.114
 7456SOL    HW234023   2.367   1.498   3.005
 7457SOL     OW34024   0.042   0.965   3.093
 7457SOL    HW134025   0.015   1.000   3.183
 7457SOL    HW234026   0.085   0.875   3.103
 7458SOL     OW34027   9.858   9.848   4.287
 7458SOL    HW134028   9.897   9.892   4.206
 7458SOL    HW234029   9.845   9.915   4.359
 7459SOL     OW34030   1.834   8.196   4.052
 7459SOL    HW134031   1.769   8.140   4.102
 7459SOL    HW234032   1.785   8.262   3.995
 7460SOL     OW34033   0.078   3.419   3.383
 7460SOL    HW134034   0.118   3.345   3.437
 7460SOL    HW234035   0.065   3.388   3.289
 7461SOL     OW34036   6.784   5.454   7.555
 7461SOL    HW134037   6.745   5.533   7.603
 7461SOL    HW234038   6.882   5.467   7.543
 7462SOL     OW34039   0.568   4.286   1.911
 7462SOL    HW134040   0.469   4.296   1.923
 7462SOL    HW234041   0.589   4.192   1.884
 7463SOL     OW34042   9.708   8.320   5.125
 7463SOL    HW134043   9.624   8.367   5.097
 7463SOL    HW234044   9.734   8.350   5.216
 7464SOL     OW34045   4.497   0.908   6.378
 7464SOL    HW134046   4.564   0.908   6.452
 7464SOL    HW234047   4.544   0.904   6.290
 7465SOL     OW34048   4.159   5.262   7.070
 7465SOL    HW134049   4.195   5.289   6.980
 7465SOL    HW234050   4.197   5.322   7.140
 7466SOL     OW34051   0.721   7.193   0.127
 7466SOL    HW134052   0.751   7.194   0.031
 7466SOL    HW234053   0.668   7.276   0.146
 7467SOL     OW34054   3.738   3.705   0.292
 7467SOL    HW134055   3.716   3.682   0.387
 7467SOL    HW234056   3.788   3.629   0.250
 7468SOL     OW34057   7.897   6.804   2.979
 7468SOL    HW134058   7.875   6.730   3.042
 7468SOL    HW234059   7.890   6.770   2.885
 7469SOL     OW34060   3.407   9.594   4.539
 7469SOL    HW134061   3.499   9.632   4.529
 7469SOL    HW234062   3.380   9.595   4.635
 7470SOL     OW34063   9.324   7.614   4.728
 7470SOL    HW134064   9.379   7.681   4.779
 7470SOL    HW234065   9.368   7.596   4.640
 7471SOL     OW34066   8.345   4.224   1.775
 7471SOL    HW134067   8.362   4.243   1.679
 7471SOL    HW234068   8.351   4.126   1.792
 7472SOL     OW34069   1.891   8.618   7.135
 7472SOL    HW134070   1.818   8.570   7.085
 7472SOL    HW234071   1.925   8.559   7.208
 7473SOL     OW34072   9.817   2.563   2.375
 7473SOL    HW134073   9.823   2.574   2.475
 7473SOL    HW234074   9.791   2.651   2.334
 7474SOL     OW34075   8.325   1.520   7.247
 7474SOL    HW134076   8.422   1.513   7.272
 7474SOL    HW234077   8.283   1.597   7.296
 7475SOL     OW34078   8.438   0.079   6.687
 7475SOL    HW134079   8.387   0.015   6.744
 7475SOL    HW234080   8.385   0.164   6.677
 7476SOL     OW34081   3.437   3.344   4.774
 7476SOL    HW134082   3.513   3.400   4.807
 7476SOL    HW234083   3.364   3.403   4.738
 7477SOL     OW34084   1.778   5.271   3.028
 7477SOL    HW134085   1.870   5.307   3.015
 7477SOL    HW234086   1.744   5.299   3.118
 7478SOL     OW34087   9.685   8.189   3.436
 7478SOL    HW134088   9.748   8.112   3.424
 7478SOL    HW234089   9.694   8.252   3.360
 7479SOL     OW34090   0.153   1.821   1.046
 7479SOL    HW134091   0.209   1.884   0.992
 7479SOL    HW234092   0.066   1.805   0.999
 7480SOL     OW34093   5.978   2.935   1.966
 7480SOL    HW134094   6.057   2.987   1.999
 7480SOL    HW234095   5.994   2.837   1.980
 7481SOL     OW34096   2.873   8.315   4.680
 7481SOL    HW134097   2.864   8.414   4.666
 7481SOL    HW234098   2.950   8.298   4.741
 7482SOL     OW34099   8.037   0.923   0.085
 7482SOL    HW134100   8.101   0.923   0.161
 7482SOL    HW234101   8.017   0.829   0.059
 7483SOL     OW34102   1.320   1.289   0.389
 7483SOL    HW134103   1.329   1.195   0.425
 7483SOL    HW234104   1.243   1.334   0.433
 7484SOL     OW34105   0.603   9.591   1.536
 7484SOL    HW134106   0.689   9.584   1.587
 7484SOL    HW234107   0.531   9.543   1.585
 7485SOL     OW34108   7.793   4.568   2.034
 7485SOL    HW134109   7.726   4.639   2.053
 7485SOL    HW234110   7.786   4.497   2.104
 7486SOL     OW34111   3.906   8.122   5.857
 7486SOL    HW134112   3.837   8.194   5.866
 7486SOL    HW234113   3.991   8.162   5.823
 7487SOL     OW34114   5.205   4.456   0.357
 7487SOL    HW134115   5.287   4.508   0.335
 7487SOL    HW234116   5.170   4.485   0.446
 7488SOL     OW34117   0.237   4.230   2.702
 7488SOL    HW134118   0.166   4.165   2.675
 7488SOL    HW234119   0.241   4.236   2.801
 7489SOL     OW34120   1.358   2.363   1.185
 7489SOL    HW134121   1.313   2.274   1.180
 7489SOL    HW234122   1.457   2.351   1.183
 7490SOL     OW34123   5.468   7.664   4.343
 7490SOL    HW134124   5.401   7.689   4.273
 7490SOL    HW234125   5.456   7.568   4.367
 7491SOL     OW34126   3.909   4.545   7.584
 7491SOL    HW134127   3.908   4.599   7.669
 7491SOL    HW234128   3.969   4.466   7.596
 7492SOL     OW34129   0.258   0.530   6.281
 7492SOL    HW134130   0.170   0.574   6.294
 7492SOL    HW234131   0.287   0.487   6.366
 7493SOL     OW34132   1.521   1.912   7.164
 7493SOL    HW134133   1.519   1.888   7.261
 7493SOL    HW234134   1.610   1.953   7.142
 7494SOL     OW34135   8.492   5.490   2.970
 7494SOL    HW134136   8.429   5.560   3.002
 7494SOL    HW234137   8.469   5.465   2.876
 7495SOL     OW34138   6.701   5.330   0.303
 7495SOL    HW134139   6.739   5.347   0.212
 7495SOL    HW234140   6.602   5.333   0.300
 7496SOL     OW34141   8.812   7.365   6.705
 7496SOL    HW134142   8.828   7.280   6.755
 7496SOL    HW234143   8.899   7.409   6.686
 7497SOL     OW34144   6.654   5.738   1.243
 7497SOL    HW134145   6.582   5.729   1.174
 7497SOL    HW234146   6.712   5.816   1.219
 7498SOL     OW34147   3.291   9.146   1.828
 7498SOL    HW134148   3.278   9.129   1.926
 7498SOL    HW234149   3.282   9.243   1.809
 7499SOL     OW34150   0.214   6.690   5.436
 7499SOL    HW134151   0.145   6.762   5.427
 7499SOL    HW234152   0.172   6.608   5.475
 7500SOL     OW34153   9.560   7.684   2.279
 7500SOL    HW134154   9.465   7.706   2.300
 7500SOL    HW234155   9.580   7.590   2.305
 7501SOL     OW34156   1.720   0.904   4.430
 7501SOL    HW134157   1.761   0.950   4.351
 7501SOL    HW234158   1.733   0.805   4.422
 7502SOL     OW34159   6.677   7.975   3.203
 7502SOL    HW134160   6.728   7.889   3.211
 7502SOL    HW234161   6.599   7.973   3.265
 7503SOL     OW34162   1.460   7.455   7.335
 7503SOL    HW134163   1.408   7.537   7.357
 7503SOL    HW234164   1.537   7.479   7.276
 7504SOL     OW34165   6.888   9.844   4.503
 7504SOL    HW134166   6.837   9.840   4.417
 7504SOL    HW234167   6.824   9.862   4.578
 7505SOL     OW34168   4.079   5.919   2.299
 7505SOL    HW134169   4.177   5.911   2.316
 7505SOL    HW234170   4.056   5.874   2.212
 7506SOL     OW34171   7.719   0.363   7.749
 7506SOL    HW134172   7.634   0.413   7.766
 7506SOL    HW234173   7.796   0.418   7.782
 7507SOL     OW34174   1.967   0.961   5.161
 7507SOL    HW134175   2.041   1.026   5.139
 7507SOL    HW234176   1.990   0.871   5.124
 7508SOL     OW34177   2.411   4.307   2.656
 7508SOL    HW134178   2.414   4.209   2.636
 7508SOL    HW234179   2.321   4.344   2.630
 7509SOL     OW34180   4.109   8.177   0.561
 7509SOL    HW134181   4.073   8.095   0.606
 7509SOL    HW234182   4.207   8.165   0.544
 7510SOL     OW34183   1.317   3.323   4.047
 7510SOL    HW134184   1.388   3.252   4.050
 7510SOL    HW234185   1.302   3.359   4.138
 7511SOL     OW34186   5.786   7.883   6.587
 7511SOL    HW134187   5.867   7.942   6.584
 7511SOL    HW234188   5.767   7.857   6.682
 7512SOL     OW34189   0.787   5.632   2.773
 7512SOL    HW134190   0.711   5.597   2.828
 7512SOL    HW234191   0.868   5.576   2.789
 7513SOL     OW34192   2.804   4.675   5.047
 7513SOL    HW134193   2.840   4.681   5.140
 7513SOL    HW234194   2.860   4.612   4.993
 7514SOL     OW34195   5.204   6.048   1.335
 7514SOL    HW134196   5.132   6.001   1.385
 7514SOL    HW234197   5.252   5.983   1.276
 7515SOL     OW34198   2.818   6.165   7.589
 7515SOL    HW134199   2.900   6.140   7.641
 7515SOL    HW234200   2.803   6.099   7.517
 7516SOL     OW34201   1.507   6.963   6.922
 7516SOL    HW134202   1.483   6.871   6.892
 7516SOL    HW234203   1.424   7.012   6.950
 7517SOL     OW34204   3.343   4.514   2.302
 7517SOL    HW134205   3.327   4.586   2.370
 7517SOL    HW234206   3.256   4.486   2.261
 7518SOL     OW34207   2.199   9.425   7.129
 7518SOL    HW134208   2.111   9.389   7.160
 7518SOL    HW234209   2.237   9.365   7.059
 7519SOL     OW34210   9.628   0.970   7.859
 7519SOL    HW134211   9.712   1.009   7.822
 7519SOL    HW234212   9.597   1.026   7.936
 7520SOL     OW34213   5.684   2.777   4.909
 7520SOL    HW134214   5.667   2.764   4.811
 7520SOL    HW234215   5.637   2.705   4.961
 7521SOL     OW34216   0.135   0.320   0.859
 7521SOL    HW134217   0.141   0.304   0.760
 7521SOL    HW234218   0.224   0.303   0.901
 7522SOL     OW34219   8.301   9.359   6.373
 7522SOL    HW134220   8.329   9.360   6.469
 7522SOL    HW234221   8.319   9.448   6.331
 7523SOL     OW34222   1.877   7.490   0.429
 7523SOL    HW134223   1.967   7.533   0.438
 7523SOL    HW234224   1.889   7.395   0.400
 7524SOL     OW34225   5.788   2.533   1.044
 7524SOL    HW134226   5.772   2.631   1.056
 7524SOL    HW234227   5.834   2.517   0.957
 7525SOL     OW34228   4.155   2.829   1.014
 7525SOL    HW134229   4.225   2.881   0.966
 7525SOL    HW234230   4.069   2.832   0.963
 7526SOL     OW34231   5.461   9.352   5.905
 7526SOL    HW134232   5.464   9.428   5.970
 7526SOL    HW234233   5.554   9.322   5.885
 7527SOL     OW34234   5.674   3.010   0.921
 7527SOL    HW134235   5.636   3.095   0.885
 7527SOL    HW234236   5.665   2.938   0.852
 7528SOL     OW34237   6.238   1.352   4.845
 7528SOL    HW134238   6.149   1.380   4.807
 7528SOL    HW234239   6.304   1.343   4.771
 7529SOL     OW34240   3.749   3.698   3.114
 7529SOL    HW134241   3.837   3.720   3.073
 7529SOL    HW234242   3.732   3.759   3.192
 7530SOL     OW34243   2.317   7.038   4.326
 7530SOL    HW134244   2.359   6.952   4.300
 7530SOL    HW234245   2.295   7.037   4.424
 7531SOL     OW34246   2.607   1.132   6.398
 7531SOL    HW134247   2.636   1.128   6.494
 7531SOL    HW234248   2.579   1.225   6.376
 7532SOL     OW34249   1.690   5.190   7.854
 7532SOL    HW134250   1.623   5.140   7.909
 7532SOL    HW234251   1.655   5.282   7.834
 7533SOL     OW34252   5.562   0.202   2.996
 7533SOL    HW134253   5.498   0.219   2.921
 7533SOL    HW234254   5.537   0.260   3.074
 7534SOL     OW34255   3.136   8.302   1.463
 7534SOL    HW134256   3.210   8.262   1.410
 7534SOL    HW234257   3.153   8.399   1.478
 7535SOL     OW34258   3.563   1.893   5.998
 7535SOL    HW134259   3.500   1.970   5.986
 7535SOL    HW234260   3.525   1.829   6.065
 7536SOL     OW34261   4.030   9.802   6.069
 7536SOL    HW134262   3.962   9.728   6.064
 7536SOL    HW234263   4.032   9.850   5.982
 7537SOL     OW34264   3.493   6.569   2.694
 7537SOL    HW134265   3.418   6.510   2.724
 7537SOL    HW234266   3.527   6.537   2.605
 7538SOL     OW34267   1.427   4.017   1.117
 7538SOL    HW134268   1.468   4.104   1.089
 7538SOL    HW234269   1.484   3.941   1.087
 7539SOL     OW34270   1.172   1.394   7.885
 7539SOL    HW134271   1.121   1.400   7.971
 7539SOL    HW234272   1.165   1.301   7.849
 7540SOL     OW34273   0.687   1.730   6.656
 7540SOL    HW134274   0.783   1.702   6.659
 7540SOL    HW234275   0.635   1.679   6.725
 7541SOL     OW34276   9.463   6.749   4.693
 7541SOL    HW134277   9.501   6.817   4.630
 7541SOL    HW234278   9.378   6.785   4.733
 7542SOL     OW34279   3.920   0.515   3.558
 7542SOL    HW134280   3.912   0.589   3.492
 7542SOL    HW234281   3.853   0.528   3.632
 7543SOL     OW34282   0.490   8.094   4.636
 7543SOL    HW134283   0.545   8.166   4.677
 7543SOL    HW234284   0.426   8.135   4.569
 7544SOL     OW34285   6.872   8.110   2.346
 7544SOL    HW134286   6.845   8.205   2.336
 7544SOL    HW234287   6.809   8.051   2.295
 7545SOL     OW34288   2.610   5.250   7.730
 7545SOL    HW134289   2.560   5.183   7.676
 7545SOL    HW234290   2.610   5.338   7.682
 7546SOL     OW34291   9.892   3.206   2.944
 7546SOL    HW134292   9.845   3.130   2.990
 7546SOL    HW234293   9.938   3.172   2.862
 7547SOL     OW34294   9.953   9.828   6.350
 7547SOL    HW134295   0.022   9.764   6.384
 7547SOL    HW234296   9.871   9.777   6.323
 7548SOL     OW34297   4.294   2.459   1.167
 7548SOL    HW134298   4.290   2.520   1.246
 7548SOL    HW234299   4.236   2.495   1.094
 7549SOL     OW34300   3.804   8.004   4.843
 7549SOL    HW134301   3.770   8.047   4.926
 7549SOL    HW234302   3.903   7.988   4.851
 7550SOL     OW34303   9.164   9.684   5.281
 7550SOL    HW134304   9.095   9.755   5.270
 7550SOL    HW234305   9.198   9.656   5.192
 7551SOL     OW34306   8.971   8.136   2.265
 7551SOL    HW134307   9.003   8.049   2.230
 7551SOL    HW234308   8.883   8.159   2.223
 7552SOL     OW34309   4.026   4.589   2.690
 7552SOL    HW134310   4.042   4.686   2.708
 7552SOL    HW234311   4.031   4.538   2.776
 7553SOL     OW34312   7.350   1.490   4.863
 7553SOL    HW134313   7.342   1.582   4.827
 7553SOL    HW234314   7.364   1.426   4.787
 7554SOL     OW34315   4.031   3.434   2.184
 7554SOL    HW134316   4.083   3.518   2.199
 7554SOL    HW234317   4.091   3.364   2.143
 7555SOL     OW34318   6.601   5.729   2.277
 7555SOL    HW134319   6.590   5.740   2.376
 7555SOL    HW234320   6.516   5.755   2.231
 7556SOL     OW34321   3.341   5.906   1.215
 7556SOL    HW134322   3.358   5.808   1.223
 7556SOL    HW234323   3.392   5.943   1.137
 7557SOL     OW34324   4.090   1.046   2.175
 7557SOL    HW134325   4.120   1.142   2.169
 7557SOL    HW234326   4.003   1.042   2.224
 7558SOL     OW34327   3.808   7.401   0.962
 7558SOL    HW134328   3.905   7.406   0.938
 7558SOL    HW234329   3.794   7.440   1.053
 7559SOL     OW34330   3.489   9.744   2.277
 7559SOL    HW134331   3.396   9.728   2.245
 7559SOL    HW234332   3.527   9.660   2.315
 7560SOL     OW34333   8.630   5.196   2.598
 7560SOL    HW134334   8.704   5.253   2.634
 7560SOL    HW234335   8.662   5.148   2.516
 7561SOL     OW34336   3.029   8.227   6.850
 7561SOL    HW134337   2.937   8.259   6.826
 7561SOL    HW234338   3.022   8.152   6.916
 7562SOL     OW34339   3.727   4.017   0.090
 7562SOL    HW134340   3.728   4.059   0.181
 7562SOL    HW234341   3.643   3.964   0.080
 7563SOL     OW34342   2.847   7.853   6.031
 7563SOL    HW134343   2.891   7.904   6.105
 7563SOL    HW234344   2.748   7.856   6.043
 7564SOL     OW34345   7.405   7.866   7.250
 7564SOL    HW134346   7.483   7.882   7.189
 7564SOL    HW234347   7.367   7.954   7.279
 7565SOL     OW34348   8.869   0.769   6.419
 7565SOL    HW134349   8.891   0.753   6.515
 7565SOL    HW234350   8.770   0.765   6.406
 7566SOL     OW34351   1.240   4.225   2.057
 7566SOL    HW134352   1.311   4.289   2.028
 7566SOL    HW234353   1.272   4.174   2.137
 7567SOL     OW34354   0.084   4.975   5.526
 7567SOL    HW134355   0.173   4.938   5.554
 7567SOL    HW234356   0.056   5.046   5.590
 7568SOL     OW34357   5.692   0.505   1.564
 7568SOL    HW134358   5.694   0.605   1.561
 7568SOL    HW234359   5.761   0.472   1.627
 7569SOL     OW34360   3.909   3.914   0.357
 7569SOL    HW134361   3.846   3.992   0.360
 7569SOL    HW234362   3.858   3.831   0.337
 7570SOL     OW34363   9.489   0.561   0.035
 7570SOL    HW134364   9.418   0.558  10.046
 7570SOL    HW234365   9.519   0.656   0.049
 7571SOL     OW34366   6.687   1.185   6.802
 7571SOL    HW134367   6.784   1.168   6.783
 7571SOL    HW234368   6.677   1.223   6.893
 7572SOL     OW34369   3.549   6.760   4.766
 7572SOL    HW134370   3.648   6.763   4.781
 7572SOL    HW234371   3.526   6.815   4.685
 7573SOL     OW34372   5.298   5.136   1.379
 7573SOL    HW134373   5.298   5.101   1.473
 7573SOL    HW234374   5.322   5.233   1.380
 7574SOL     OW34375   1.898   0.915   0.953
 7574SOL    HW134376   1.972   0.875   1.007
 7574SOL    HW234377   1.860   0.993   1.003
 7575SOL     OW34378   2.655   9.526   7.496
 7575SOL    HW134379   2.628   9.614   7.455
 7575SOL    HW234380   2.637   9.452   7.431
 7576SOL     OW34381   0.177   6.096   6.882
 7576SOL    HW134382   0.249   6.154   6.920
 7576SOL    HW234383   0.122   6.058   6.957
 7577SOL     OW34384   1.400   9.933   7.240
 7577SOL    HW134385   1.416   9.895   7.149
 7577SOL    HW234386   1.443   0.023   7.246
 7578SOL     OW34387   2.887   5.188   7.495
 7578SOL    HW134388   2.921   5.104   7.538
 7578SOL    HW234389   2.822   5.165   7.423
 7579SOL     OW34390   8.262   0.959   7.420
 7579SOL    HW134391   8.228   0.962   7.514
 7579SOL    HW234392   8.280   1.051   7.388
 7580SOL     OW34393   1.151   3.750   3.478
 7580SOL    HW134394   1.074   3.719   3.422
 7580SOL    HW234395   1.236   3.741   3.426
 7581SOL     OW34396   8.286   7.591   6.137
 7581SOL    HW134397   8.377   7.609   6.175
 7581SOL    HW234398   8.295   7.561   6.042
 7582SOL     OW34399   3.379   4.278   5.271
 7582SOL    HW134400   3.424   4.245   5.355
 7582SOL    HW234401   3.363   4.377   5.279
 7583SOL     OW34402   0.116   6.104   3.477
 7583SOL    HW134403   0.122   6.119   3.378
 7583SOL    HW234404   0.206   6.077   3.511
 7584SOL     OW34405   2.597   8.941   7.081
 7584SOL    HW134406   2.533   8.921   7.155
 7584SOL    HW234407   2.594   8.867   7.014
 7585SOL     OW34408   4.935   2.462   0.844
 7585SOL    HW134409   5.012   2.525   0.835
 7585SOL    HW234410   4.969   2.371   0.868
 7586SOL     OW34411   4.362   0.917   7.912
 7586SOL    HW134412   4.362   0.830   7.863
 7586SOL    HW234413   4.288   0.975   7.877
 7587SOL     OW34414   2.573   7.841   6.039
 7587SOL    HW134415   2.537   7.794   5.958
 7587SOL    HW234416   2.514   7.920   6.060
 7588SOL     OW34417   0.010   8.274   1.886
 7588SOL    HW134418   0.041   8.326   1.966
 7588SOL    HW234419   9.959   8.194   1.916
 7589SOL     OW34420   8.627   7.572   0.936
 7589SOL    HW134421   8.638   7.619   0.848
 7589SOL    HW234422   8.670   7.625   1.008
 7590SOL     OW34423   8.274   4.204   0.182
 7590SOL    HW134424   8.236   4.182   0.272
 7590SOL    HW234425   8.232   4.288   0.147
 7591SOL     OW34426   1.563   3.069   0.436
 7591SOL    HW134427   1.495   2.999   0.417
 7591SOL    HW234428   1.647   3.049   0.385
 7592SOL     OW34429   6.137   9.180   6.703
 7592SOL    HW134430   6.059   9.241   6.695
 7592SOL    HW234431   6.207   9.206   6.637
 7593SOL     OW34432   4.456   9.941   7.675
 7593SOL    HW134433   4.473   9.986   7.587
 7593SOL    HW234434   4.535   9.954   7.735
 7594SOL     OW34435   0.109   3.079   2.251
 7594SOL    HW134436   0.050   3.147   2.296
 7594SOL    HW234437   0.117   3.101   2.154
 7595SOL     OW34438   4.346   4.389   1.376
 7595SOL    HW134439   4.343   4.298   1.416
 7595SOL    HW234440   4.257   4.411   1.336
 7596SOL     OW34441   6.556   1.913   2.448
 7596SOL    HW134442   6.538   1.847   2.375
 7596SOL    HW234443   6.578   1.864   2.533
 7597SOL     OW34444   0.153   7.482   2.046
 7597SOL    HW134445   0.181   7.431   2.127
 7597SOL    HW234446   0.218   7.557   2.029
 7598SOL     OW34447   9.601   2.065   4.597
 7598SOL    HW134448   9.614   2.085   4.500
 7598SOL    HW234449   9.686   2.084   4.647
 7599SOL     OW34450   5.719   0.965   1.908
 7599SOL    HW134451   5.729   1.050   1.958
 7599SOL    HW234452   5.626   0.960   1.870
 7600SOL     OW34453   6.910   1.456   3.711
 7600SOL    HW134454   6.814   1.440   3.730
 7600SOL    HW234455   6.941   1.536   3.762
 7601SOL     OW34456   9.993   2.991   5.680
 7601SOL    HW134457   0.030   3.078   5.649
 7601SOL    HW234458   0.043   2.915   5.638
 7602SOL     OW34459   3.908   7.453   3.957
 7602SOL    HW134460   3.811   7.466   3.974
 7602SOL    HW234461   3.955   7.435   4.043
 7603SOL     OW34462   2.848   9.710   0.135
 7603SOL    HW134463   2.884   9.675   0.222
 7603SOL    HW234464   2.765   9.660   0.110
 7604SOL     OW34465   9.302   7.381   5.633
 7604SOL    HW134466   9.398   7.381   5.663
 7604SOL    HW234467   9.272   7.287   5.617
 7605SOL     OW34468   0.208   0.755   2.643
 7605SOL    HW134469   0.158   0.830   2.600
 7605SOL    HW234470   0.302   0.753   2.608
 7606SOL     OW34471   0.043   0.175   0.396
 7606SOL    HW134472   9.997   0.159   0.483
 7606SOL    HW234473   9.997   0.248   0.346
 7607SOL     OW34474   8.860   2.748   1.199
 7607SOL    HW134475   8.802   2.721   1.276
 7607SOL    HW234476   8.951   2.708   1.211
 7608SOL     OW34477   8.388   0.883   1.707
 7608SOL    HW134478   8.289   0.885   1.722
 7608SOL    HW234479   8.421   0.789   1.710
 7609SOL     OW34480   4.780   4.823   0.352
 7609SOL    HW134481   4.800   4.916   0.323
 7609SOL    HW234482   4.690   4.819   0.395
 7610SOL     OW34483   7.212   0.835   0.983
 7610SOL    HW134484   7.305   0.874   0.988
 7610SOL    HW234485   7.213   0.743   1.021
 7611SOL     OW34486   8.982   6.643   7.442
 7611SOL    HW134487   9.063   6.664   7.496
 7611SOL    HW234488   8.900   6.665   7.495
 7612SOL     OW34489   2.044   2.581   7.005
 7612SOL    HW134490   2.086   2.503   6.959
 7612SOL    HW234491   1.947   2.587   6.980
 7613SOL     OW34492   4.173   7.160   0.613
 7613SOL    HW134493   4.087   7.119   0.582
 7613SOL    HW234494   4.163   7.259   0.618
 7614SOL     OW34495   2.782   1.344   4.290
 7614SOL    HW134496   2.725   1.319   4.368
 7614SOL    HW234497   2.762   1.437   4.262
 7615SOL     OW34498   8.395   5.872   1.248
 7615SOL    HW134499   8.380   5.814   1.168
 7615SOL    HW234500   8.331   5.948   1.247
 7616SOL     OW34501   3.740   0.471   0.974
 7616SOL    HW134502   3.773   0.478   0.880
 7616SOL    HW234503   3.727   0.562   1.012
 7617SOL     OW34504   2.363   1.657   4.045
 7617SOL    HW134505   2.292   1.601   4.003
 7617SOL    HW234506   2.321   1.741   4.081
 7618SOL     OW34507   1.262   9.663   6.913
 7618SOL    HW134508   1.335   9.729   6.930
 7618SOL    HW234509   1.174   9.712   6.906
 7619SOL     OW34510   0.631   7.952   2.358
 7619SOL    HW134511   0.586   8.030   2.315
 7619SOL    HW234512   0.637   7.967   2.457
 7620SOL     OW34513   9.559   2.353   1.235
 7620SOL    HW134514   9.609   2.306   1.308
 7620SOL    HW234515   9.463   2.329   1.240
 7621SOL     OW34516   2.728   1.469   6.192
 7621SOL    HW134517   2.754   1.541   6.128
 7621SOL    HW234518   2.810   1.426   6.229
 7622SOL     OW34519   9.581   3.379   1.262
 7622SOL    HW134520   9.645   3.450   1.232
 7622SOL    HW234521   9.537   3.407   1.347
 7623SOL     OW34522   4.186   1.404   5.077
 7623SOL    HW134523   4.125   1.343   5.127
 7623SOL    HW234524   4.201   1.369   4.984
 7624SOL     OW34525   6.328   3.638   2.397
 7624SOL    HW134526   6.345   3.618   2.301
 7624SOL    HW234527   6.233   3.614   2.420
 7625SOL     OW34528   5.591   5.291   1.803
 7625SOL    HW134529   5.512   5.291   1.865
 7625SOL    HW234530   5.606   5.384   1.769
 7626SOL     OW34531   5.427   3.062   2.296
 7626SOL    HW134532   5.518   3.062   2.337
 7626SOL    HW234533   5.368   3.124   2.347
 7627SOL     OW34534   2.085   8.754   1.807
 7627SOL    HW134535   2.009   8.689   1.814
 7627SOL    HW234536   2.114   8.782   1.898
 7628SOL     OW34537   9.447   8.010   2.543
 7628SOL    HW134538   9.430   8.108   2.552
 7628SOL    HW234539   9.476   7.990   2.449
 7629SOL     OW34540   5.721   6.370   0.824
 7629SOL    HW134541   5.760   6.305   0.890
 7629SOL    HW234542   5.780   6.375   0.744
 7630SOL     OW34543   3.217   1.893   4.035
 7630SOL    HW134544   3.161   1.817   4.003
 7630SOL    HW234545   3.308   1.860   4.058
 7631SOL     OW34546   6.619   7.559   4.029
 7631SOL    HW134547   6.626   7.464   4.061
 7631SOL    HW234548   6.523   7.582   4.014
 7632SOL     OW34549   8.054   8.422   2.436
 7632SOL    HW134550   8.072   8.355   2.364
 7632SOL    HW234551   8.140   8.454   2.474
 7633SOL     OW34552   0.346   6.794   0.130
 7633SOL    HW134553   0.373   6.745   0.047
 7633SOL    HW234554   0.415   6.864   0.151
 7634SOL     OW34555   8.351   3.791   7.281
 7634SOL    HW134556   8.430   3.769   7.224
 7634SOL    HW234557   8.365   3.755   7.373
 7635SOL     OW34558   5.692   2.299   0.289
 7635SOL    HW134559   5.633   2.267   0.364
 7635SOL    HW234560   5.755   2.226   0.263
 7636SOL     OW34561   7.755   3.537   0.544
 7636SOL    HW134562   7.768   3.474   0.468
 7636SOL    HW234563   7.657   3.558   0.552
 7637SOL     OW34564   9.762   8.425   5.380
 7637SOL    HW134565   9.783   8.519   5.351
 7637SOL    HW234566   9.843   8.385   5.422
 7638SOL     OW34567   1.713   7.902   7.494
 7638SOL    HW134568   1.687   7.986   7.447
 7638SOL    HW234569   1.785   7.921   7.560
 7639SOL     OW34570   3.910   7.215   6.696
 7639SOL    HW134571   3.984   7.168   6.649
 7639SOL    HW234572   3.923   7.314   6.688
 7640SOL     OW34573   9.026   9.975   3.839
 7640SOL    HW134574   9.079   0.021   3.910
 7640SOL    HW234575   9.085   9.954   3.761
 7641SOL     OW34576   6.175   7.660   6.192
 7641SOL    HW134577   6.211   7.600   6.120
 7641SOL    HW234578   6.251   7.705   6.238
 7642SOL     OW34579   1.364   8.690   5.701
 7642SOL    HW134580   1.363   8.777   5.652
 7642SOL    HW234581   1.429   8.695   5.777
 7643SOL     OW34582   2.519   4.528   1.750
 7643SOL    HW134583   2.523   4.619   1.710
 7643SOL    HW234584   2.517   4.459   1.677
 7644SOL     OW34585   5.771   3.314   0.637
 7644SOL    HW134586   5.773   3.373   0.556
 7644SOL    HW234587   5.760   3.219   0.609
 7645SOL     OW34588   2.274   0.867   0.175
 7645SOL    HW134589   2.232   0.776   0.177
 7645SOL    HW234590   2.232   0.924   0.246
 7646SOL     OW34591   3.392   3.709   2.733
 7646SOL    HW134592   3.348   3.626   2.701
 7646SOL    HW234593   3.427   3.695   2.825
 7647SOL     OW34594   8.331   9.579   3.387
 7647SOL    HW134595   8.368   9.665   3.353
 7647SOL    HW234596   8.247   9.556   3.337
 7648SOL     OW34597   1.388   3.932   6.800
 7648SOL    HW134598   1.483   3.949   6.772
 7648SOL    HW234599   1.334   4.014   6.784
 7649SOL     OW34600   6.925   8.707   3.326
 7649SOL    HW134601   6.867   8.629   3.304
 7649SOL    HW234602   6.968   8.741   3.243
 7650SOL     OW34603   8.354   8.108   6.791
 7650SOL    HW134604   8.327   8.075   6.700
 7650SOL    HW234605   8.321   8.044   6.861
 7651SOL     OW34606   9.279   6.135   4.551
 7651SOL    HW134607   9.269   6.102   4.645
 7651SOL    HW234608   9.265   6.234   4.549
 7652SOL     OW34609   2.587   8.153   4.102
 7652SOL    HW134610   2.667   8.212   4.116
 7652SOL    HW234611   2.561   8.154   4.005
 7653SOL     OW34612   2.959   1.791   2.602
 7653SOL    HW134613   3.002   1.858   2.541
 7653SOL    HW234614   2.863   1.815   2.615
 7654SOL     OW34615   1.189   5.472   4.741
 7654SOL    HW134616   1.113   5.501   4.800
 7654SOL    HW234617   1.240   5.399   4.786
 7655SOL     OW34618   0.465   5.901   0.456
 7655SOL    HW134619   0.399   5.903   0.381
 7655SOL    HW234620   0.492   5.995   0.478
 7656SOL     OW34621   8.257   9.383   7.436
 7656SOL    HW134622   8.244   9.473   7.478
 7656SOL    HW234623   8.343   9.381   7.386
 7657SOL     OW34624   3.557   0.269   6.418
 7657SOL    HW134625   3.541   0.206   6.342
 7657SOL    HW234626   3.505   0.353   6.404
 7658SOL     OW34627   3.402   1.420   6.515
 7658SOL    HW134628   3.356   1.428   6.604
 7658SOL    HW234629   3.429   1.325   6.500
 7659SOL     OW34630   8.756   1.298   0.697
 7659SOL    HW134631   8.823   1.365   0.729
 7659SOL    HW234632   8.754   1.220   0.760
 7660SOL     OW34633   2.984   1.619   1.477
 7660SOL    HW134634   3.046   1.621   1.399
 7660SOL    HW234635   2.938   1.708   1.485
 7661SOL     OW34636   7.892   7.549   2.168
 7661SOL    HW134637   7.871   7.462   2.125
 7661SOL    HW234638   7.989   7.552   2.193
 7662SOL     OW34639   4.312   8.073   3.142
 7662SOL    HW134640   4.383   8.006   3.121
 7662SOL    HW234641   4.351   8.149   3.195
 7663SOL     OW34642   4.381   5.985   3.120
 7663SOL    HW134643   4.402   5.943   3.208
 7663SOL    HW234644   4.289   5.958   3.091
 7664SOL     OW34645   1.982   1.869   0.611
 7664SOL    HW134646   1.912   1.801   0.588
 7664SOL    HW234647   1.943   1.939   0.671
 7665SOL     OW34648   6.660   4.355   2.808
 7665SOL    HW134649   6.645   4.278   2.870
 7665SOL    HW234650   6.610   4.340   2.723
 7666SOL     OW34651   8.366   8.247   2.084
 7666SOL    HW134652   8.324   8.336   2.071
 7666SOL    HW234653   8.443   8.236   2.020
 7667SOL     OW34654   3.694   6.161   2.035
 7667SOL    HW134655   3.670   6.114   2.120
 7667SOL    HW234656   3.764   6.230   2.055
 7668SOL     OW34657   0.043   5.722   7.221
 7668SOL    HW134658   0.124   5.676   7.184
 7668SOL    HW234659   9.978   5.654   7.252
 7669SOL     OW34660   0.490   4.672   5.100
 7669SOL    HW134661   0.537   4.675   5.011
 7669SOL    HW234662   0.477   4.576   5.127
 7670SOL     OW34663   8.585   0.097   2.488
 7670SOL    HW134664   8.684   0.086   2.495
 7670SOL    HW234665   8.563   0.193   2.473
 7671SOL     OW34666   4.962   5.230   0.918
 7671SOL    HW134667   4.878   5.268   0.880
 7671SOL    HW234668   5.010   5.301   0.971
 7672SOL     OW34669   2.306   5.931   7.093
 7672SOL    HW134670   2.403   5.944   7.073
 7672SOL    HW234671   2.284   5.976   7.180
 7673SOL     OW34672   0.072   8.588   3.651
 7673SOL    HW134673   0.158   8.575   3.601
 7673SOL    HW234674   0.005   8.632   3.591
 7674SOL     OW34675   5.565   0.160   3.460
 7674SOL    HW134676   5.548   0.088   3.527
 7674SOL    HW234677   5.661   0.187   3.463
 7675SOL     OW34678   7.300   4.446   2.977
 7675SOL    HW134679   7.270   4.449   3.072
 7675SOL    HW234680   7.341   4.534   2.952
 7676SOL     OW34681   5.969   4.348   1.548
 7676SOL    HW134682   5.901   4.395   1.604
 7676SOL    HW234683   5.932   4.335   1.456
 7677SOL     OW34684   5.031   9.028   4.681
 7677SOL    HW134685   5.116   9.066   4.718
 7677SOL    HW234686   4.954   9.056   4.739
 7678SOL     OW34687   3.041   9.928   7.724
 7678SOL    HW134688   3.017   0.012   7.771
 7678SOL    HW234689   3.026   9.850   7.785
 7679SOL     OW34690   4.101   0.680   2.156
 7679SOL    HW134691   4.043   0.745   2.107
 7679SOL    HW234692   4.166   0.730   2.213
 7680SOL     OW34693   3.254   6.571   1.306
 7680SOL    HW134694   3.247   6.670   1.305
 7680SOL    HW234695   3.342   6.544   1.346
 7681SOL     OW34696   4.472   9.763   3.596
 7681SOL    HW134697   4.505   9.682   3.644
 7681SOL    HW234698   4.543   9.798   3.536
 7682SOL     OW34699   9.416   5.834   0.141
 7682SOL    HW134700   9.339   5.888   0.109
 7682SOL    HW234701   9.430   5.756   0.080
 7683SOL     OW34702   7.036   0.527   5.497
 7683SOL    HW134703   6.997   0.496   5.410
 7683SOL    HW234704   7.075   0.618   5.485
 7684SOL     OW34705   8.030   5.985   0.395
 7684SOL    HW134706   8.013   6.050   0.321
 7684SOL    HW234707   8.100   5.919   0.366
 7685SOL     OW34708   6.043   7.382   4.556
 7685SOL    HW134709   6.128   7.333   4.572
 7685SOL    HW234710   6.026   7.389   4.457
 7686SOL     OW34711   7.470   7.433   3.284
 7686SOL    HW134712   7.552   7.379   3.303
 7686SOL    HW234713   7.494   7.509   3.223
 7687SOL     OW34714   4.573   8.673   4.161
 7687SOL    HW134715   4.644   8.626   4.214
 7687SOL    HW234716   4.517   8.606   4.112
 7688SOL     OW34717   1.628   5.752   7.774
 7688SOL    HW134718   1.618   5.850   7.759
 7688SOL    HW234719   1.545   5.705   7.741
 7689SOL     OW34720   3.961   8.915   7.812
 7689SOL    HW134721   3.898   8.981   7.772
 7689SOL    HW234722   3.910   8.847   7.864
 7690SOL     OW34723   1.020   0.527   3.898
 7690SOL    HW134724   0.959   0.449   3.886
 7690SOL    HW234725   1.098   0.501   3.955
 7691SOL     OW34726   2.056   8.504   3.075
 7691SOL    HW134727   2.140   8.472   3.119
 7691SOL    HW234728   1.980   8.445   3.101
 7692SOL     OW34729   2.040   7.640   2.666
 7692SOL    HW134730   1.997   7.730   2.675
 7692SOL    HW234731   2.139   7.652   2.654
 7693SOL     OW34732   5.009   7.924   3.379
 7693SOL    HW134733   5.106   7.931   3.401
 7693SOL    HW234734   4.955   7.974   3.447
 7694SOL     OW34735   3.162   2.107   7.151
 7694SOL    HW134736   3.155   2.187   7.210
 7694SOL    HW234737   3.170   2.025   7.208
 7695SOL     OW34738   5.555   9.211   5.278
 7695SOL    HW134739   5.645   9.253   5.272
 7695SOL    HW234740   5.505   9.226   5.193
 7696SOL     OW34741   4.451   8.401   6.548
 7696SOL    HW134742   4.486   8.494   6.554
 7696SOL    HW234743   4.453   8.370   6.453
 7697SOL     OW34744   8.743   0.313   0.477
 7697SOL    HW134745   8.761   0.343   0.383
 7697SOL    HW234746   8.645   0.302   0.490
 7698SOL     OW34747   5.867   9.054   5.174
 7698SOL    HW134748   5.908   8.966   5.196
 7698SOL    HW234749   5.921   9.100   5.104
 7699SOL     OW34750   8.873   9.583   1.644
 7699SOL    HW134751   8.777   9.583   1.673
 7699SOL    HW234752   8.888   9.659   1.580
 7700SOL     OW34753   3.764   4.832   7.588
 7700SOL    HW134754   3.845   4.857   7.641
 7700SOL    HW234755   3.714   4.761   7.637
 7701SOL     OW34756   9.565   2.760   7.155
 7701SOL    HW134757   9.601   2.668   7.141
 7701SOL    HW234758   9.626   2.810   7.218
 7702SOL     OW34759   8.849   3.209   6.742
 7702SOL    HW134760   8.852   3.290   6.684
 7702SOL    HW234761   8.937   3.162   6.738
 7703SOL     OW34762   5.315   1.392   7.610
 7703SOL    HW134763   5.377   1.367   7.536
 7703SOL    HW234764   5.340   1.482   7.645
 7704SOL     OW34765   0.999   9.764   3.565
 7704SOL    HW134766   1.002   9.704   3.645
 7704SOL    HW234767   0.905   9.792   3.549
 7705SOL     OW34768   5.822   9.623   1.649
 7705SOL    HW134769   5.871   9.536   1.644
 7705SOL    HW234770   5.749   9.616   1.717
 7706SOL     OW34771   2.837   7.243   3.918
 7706SOL    HW134772   2.812   7.205   4.008
 7706SOL    HW234773   2.766   7.308   3.889
 7707SOL     OW34774   4.603   1.505   4.825
 7707SOL    HW134775   4.575   1.591   4.781
 7707SOL    HW234776   4.703   1.502   4.832
 7708SOL     OW34777   2.418   3.797   5.646
 7708SOL    HW134778   2.464   3.853   5.715
 7708SOL    HW234779   2.479   3.723   5.618
 7709SOL     OW34780   3.862   3.334   4.244
 7709SOL    HW134781   3.779   3.371   4.202
 7709SOL    HW234782   3.846   3.321   4.342
 7710SOL     OW34783   8.555   7.455   4.676
 7710SOL    HW134784   8.564   7.418   4.768
 7710SOL    HW234785   8.477   7.518   4.673
 7711SOL     OW34786   1.650   2.432   0.553
 7711SOL    HW134787   1.642   2.465   0.647
 7711SOL    HW234788   1.708   2.351   0.551
 7712SOL     OW34789   9.513   4.352   4.879
 7712SOL    HW134790   9.526   4.336   4.977
 7712SOL    HW234791   9.430   4.305   4.849
 7713SOL     OW34792   0.352   6.764   3.885
 7713SOL    HW134793   0.312   6.703   3.954
 7713SOL    HW234794   0.378   6.711   3.804
 7714SOL     OW34795   8.747   3.726   2.567
 7714SOL    HW134796   8.727   3.821   2.592
 7714SOL    HW234797   8.723   3.711   2.471
 7715SOL     OW34798   2.134   2.322   0.749
 7715SOL    HW134799   2.210   2.359   0.803
 7715SOL    HW234800   2.110   2.387   0.677
 7716SOL     OW34801   0.367   6.569   7.404
 7716SOL    HW134802   0.286   6.626   7.390
 7716SOL    HW234803   0.438   6.596   7.338
 7717SOL     OW34804   3.192   5.471   3.833
 7717SOL    HW134805   3.218   5.521   3.916
 7717SOL    HW234806   3.113   5.516   3.791
 7718SOL     OW34807   3.329   8.962   5.495
 7718SOL    HW134808   3.402   8.988   5.433
 7718SOL    HW234809   3.266   9.038   5.508
 7719SOL     OW34810   6.988   5.155   0.699
 7719SOL    HW134811   6.945   5.147   0.609
 7719SOL    HW234812   7.071   5.211   0.692
 7720SOL     OW34813   0.209   7.327   7.471
 7720SOL    HW134814   0.257   7.325   7.384
 7720SOL    HW234815   0.121   7.279   7.461
 7721SOL     OW34816   0.948   4.437   3.399
 7721SOL    HW134817   0.906   4.521   3.364
 7721SOL    HW234818   0.923   4.424   3.495
 7722SOL     OW34819   8.109   7.298   1.384
 7722SOL    HW134820   8.081   7.351   1.304
 7722SOL    HW234821   8.188   7.242   1.361
 7723SOL     OW34822   7.110   8.593   6.540
 7723SOL    HW134823   7.121   8.686   6.576
 7723SOL    HW234824   7.024   8.588   6.488
 7724SOL     OW34825   9.701   1.720   0.772
 7724SOL    HW134826   9.665   1.814   0.776
 7724SOL    HW234827   9.626   1.655   0.785
 7725SOL     OW34828   1.772   7.143   0.590
 7725SOL    HW134829   1.707   7.220   0.589
 7725SOL    HW234830   1.771   7.097   0.502
 7726SOL     OW34831   8.981   1.701   7.567
 7726SOL    HW134832   9.075   1.695   7.534
 7726SOL    HW234833   8.975   1.768   7.640
 7727SOL     OW34834   0.007   0.207   2.854
 7727SOL    HW134835   0.050   0.275   2.796
 7727SOL    HW234836   0.014   0.117   2.811
 7728SOL     OW34837   4.508   0.708   5.540
 7728SOL    HW134838   4.574   0.676   5.608
 7728SOL    HW234839   4.435   0.641   5.530
 7729SOL     OW34840   6.151   2.378   3.991
 7729SOL    HW134841   6.195   2.427   3.916
 7729SOL    HW234842   6.105   2.297   3.955
 7730SOL     OW34843   3.073   3.772   2.990
 7730SOL    HW134844   3.016   3.840   3.037
 7730SOL    HW234845   3.153   3.752   3.046
 7731SOL     OW34846   0.499   7.480   2.206
 7731SOL    HW134847   0.481   7.579   2.210
 7731SOL    HW234848   0.415   7.430   2.229
 7732SOL     OW34849   0.911   1.968   7.526
 7732SOL    HW134850   0.928   2.061   7.491
 7732SOL    HW234851   0.833   1.970   7.588
 7733SOL     OW34852   3.878   3.646   1.495
 7733SOL    HW134853   3.901   3.735   1.536
 7733SOL    HW234854   3.903   3.647   1.398
 7734SOL     OW34855   1.499   3.070   0.099
 7734SOL    HW134856   1.412   3.060   0.050
 7734SOL    HW234857   1.500   3.157   0.148
 7735SOL     OW34858   6.566   6.221   1.635
 7735SOL    HW134859   6.637   6.291   1.645
 7735SOL    HW234860   6.513   6.215   1.720
 7736SOL     OW34861   3.226   6.866   1.981
 7736SOL    HW134862   3.316   6.832   2.011
 7736SOL    HW234863   3.155   6.806   2.018
 7737SOL     OW34864   1.030   5.138   6.924
 7737SOL    HW134865   1.033   5.187   6.837
 7737SOL    HW234866   1.122   5.108   6.948
 7738SOL     OW34867   2.945   1.735   4.606
 7738SOL    HW134868   2.856   1.767   4.574
 7738SOL    HW234869   2.953   1.752   4.704
 7739SOL     OW34870   2.302   6.995   4.612
 7739SOL    HW134871   2.347   6.906   4.609
 7739SOL    HW234872   2.363   7.062   4.655
 7740SOL     OW34873   0.697   5.267   4.904
 7740SOL    HW134874   0.655   5.289   4.815
 7740SOL    HW234875   0.685   5.169   4.922
 7741SOL     OW34876   0.504   7.849   5.798
 7741SOL    HW134877   0.565   7.770   5.806
 7741SOL    HW234878   0.519   7.910   5.876
 7742SOL     OW34879   4.603   7.975   6.460
 7742SOL    HW134880   4.665   7.901   6.484
 7742SOL    HW234881   4.533   7.942   6.397
 7743SOL     OW34882   8.568   7.139   5.414
 7743SOL    HW134883   8.518   7.054   5.430
 7743SOL    HW234884   8.541   7.176   5.325
 7744SOL     OW34885   5.986   7.556   3.003
 7744SOL    HW134886   6.056   7.540   2.933
 7744SOL    HW234887   5.941   7.643   2.985
 7745SOL     OW34888   0.875   7.862   7.249
 7745SOL    HW134889   0.906   7.788   7.189
 7745SOL    HW234890   0.881   7.949   7.200
 7746SOL     OW34891   4.513   1.124   1.117
 7746SOL    HW134892   4.542   1.220   1.117
 7746SOL    HW234893   4.421   1.117   1.077
 7747SOL     OW34894   6.046   5.919   1.344
 7747SOL    HW134895   6.023   5.854   1.417
 7747SOL    HW234896   6.143   5.909   1.321
 7748SOL     OW34897   1.533   9.034   1.340
 7748SOL    HW134898   1.513   9.128   1.366
 7748SOL    HW234899   1.450   8.990   1.305
 7749SOL     OW34900   2.226   9.283   3.359
 7749SOL    HW134901   2.211   9.381   3.349
 7749SOL    HW234902   2.145   9.241   3.401
 7750SOL     OW34903   2.839   2.264   6.651
 7750SOL    HW134904   2.854   2.285   6.748
 7750SOL    HW234905   2.852   2.347   6.597
 7751SOL     OW34906   2.322   5.589   6.698
 7751SOL    HW134907   2.243   5.648   6.681
 7751SOL    HW234908   2.346   5.593   6.795
 7752SOL     OW34909   8.533   0.508   0.303
 7752SOL    HW134910   8.623   0.481   0.269
 7752SOL    HW234911   8.504   0.446   0.376
 7753SOL     OW34912   1.122   9.638   0.467
 7753SOL    HW134913   1.099   9.734   0.486
 7753SOL    HW234914   1.158   9.630   0.374
 7754SOL     OW34915   1.998   3.180   3.039
 7754SOL    HW134916   1.981   3.195   2.942
 7754SOL    HW234917   1.955   3.252   3.092
 7755SOL     OW34918   1.010   4.680   7.477
 7755SOL    HW134919   1.107   4.667   7.497
 7755SOL    HW234920   0.990   4.778   7.466
 7756SOL     OW34921   6.966   3.252   1.150
 7756SOL    HW134922   6.912   3.245   1.234
 7756SOL    HW234923   6.944   3.337   1.103
 7757SOL     OW34924   2.768   9.333   0.152
 7757SOL    HW134925   2.754   9.267   0.079
 7757SOL    HW234926   2.709   9.413   0.137
 7758SOL     OW34927   8.668   5.780   2.578
 7758SOL    HW134928   8.574   5.805   2.551
 7758SOL    HW234929   8.692   5.693   2.534
 7759SOL     OW34930   9.185   7.697   1.132
 7759SOL    HW134931   9.131   7.626   1.178
 7759SOL    HW234932   9.179   7.685   1.033
 7760SOL     OW34933   9.636   4.072   6.437
 7760SOL    HW134934   9.668   4.166   6.439
 7760SOL    HW234935   9.709   4.012   6.407
 7761SOL     OW34936   0.227   6.521   1.724
 7761SOL    HW134937   0.318   6.516   1.764
 7761SOL    HW234938   0.185   6.430   1.726
 7762SOL     OW34939   1.474   8.154   6.256
 7762SOL    HW134940   1.425   8.205   6.185
 7762SOL    HW234941   1.566   8.131   6.223
 7763SOL     OW34942   0.042   7.773   6.727
 7763SOL    HW134943   9.958   7.803   6.774
 7763SOL    HW234944   0.067   7.840   6.658
 7764SOL     OW34945   9.835   0.773   4.725
 7764SOL    HW134946   9.779   0.767   4.643
 7764SOL    HW234947   9.868   0.682   4.750
 7765SOL     OW34948   4.366   1.349   6.798
 7765SOL    HW134949   4.391   1.320   6.706
 7765SOL    HW234950   4.271   1.322   6.817
 7766SOL     OW34951   9.112   0.013   7.646
 7766SOL    HW134952   9.083   0.051   7.559
 7766SOL    HW234953   9.209   0.030   7.660
 7767SOL     OW34954   3.827   8.496   4.792
 7767SOL    HW134955   3.835   8.495   4.693
 7767SOL    HW234956   3.732   8.513   4.818
 7768SOL     OW34957   2.948   4.526   5.853
 7768SOL    HW134958   2.976   4.601   5.793
 7768SOL    HW234959   2.978   4.544   5.946
 7769SOL     OW34960   9.622   7.433   2.368
 7769SOL    HW134961   9.708   7.423   2.318
 7769SOL    HW234962   9.638   7.418   2.465
 7770SOL     OW34963   7.072   4.936   7.198
 7770SOL    HW134964   7.021   5.012   7.238
 7770SOL    HW234965   7.074   4.859   7.262
 7771SOL     OW34966   3.073   9.511   3.545
 7771SOL    HW134967   3.097   9.605   3.569
 7771SOL    HW234968   2.983   9.510   3.500
 7772SOL     OW34969   8.147   6.493   2.316
 7772SOL    HW134970   8.227   6.517   2.261
 7772SOL    HW234971   8.124   6.397   2.303
 7773SOL     OW34972   8.898   1.601   4.602
 7773SOL    HW134973   8.900   1.642   4.693
 7773SOL    HW234974   8.932   1.668   4.535
 7774SOL     OW34975   8.490   1.116   1.025
 7774SOL    HW134976   8.577   1.100   0.979
 7774SOL    HW234977   8.505   1.169   1.108
 7775SOL     OW34978   6.526   2.229   3.875
 7775SOL    HW134979   6.522   2.253   3.972
 7775SOL    HW234980   6.528   2.312   3.820
 7776SOL     OW34981   9.309   0.074   6.669
 7776SOL    HW134982   9.377   0.131   6.714
 7776SOL    HW234983   9.318   9.980   6.702
 7777SOL     OW34984   7.977   6.276   5.117
 7777SOL    HW134985   8.000   6.328   5.035
 7777SOL    HW234986   7.880   6.285   5.136
 7778SOL     OW34987   0.580   6.651   7.244
 7778SOL    HW134988   0.573   6.741   7.286
 7778SOL    HW234989   0.676   6.633   7.221
 7779SOL     OW34990   8.567   9.192   4.568
 7779SOL    HW134991   8.539   9.272   4.620
 7779SOL    HW234992   8.651   9.154   4.607
 7780SOL     OW34993   3.033   2.055   0.345
 7780SOL    HW134994   3.039   2.040   0.444
 7780SOL    HW234995   2.941   2.033   0.314
 7781SOL     OW34996   8.913   5.265   5.301
 7781SOL    HW134997   8.962   5.178   5.300
 7781SOL    HW234998   8.910   5.303   5.209
 7782SOL     OW34999   0.161   2.793   6.888
 7782SOL    HW135000   0.231   2.773   6.956
 7782SOL    HW235001   0.143   2.710   6.835
 7783SOL     OW35002   3.959   0.778   5.471
 7783SOL    HW135003   4.025   0.725   5.419
 7783SOL    HW235004   3.929   0.725   5.551
 7784SOL     OW35005   8.420   7.410   7.855
 7784SOL    HW135006   8.459   7.480   7.795
 7784SOL    HW235007   8.495   7.357   7.896
 7785SOL     OW35008   9.103   7.342   4.212
 7785SOL    HW135009   9.065   7.391   4.291
 7785SOL    HW235010   9.203   7.348   4.214
 7786SOL     OW35011   1.017   9.025   3.505
 7786SOL    HW135012   0.934   9.073   3.534
 7786SOL    HW235013   1.017   8.933   3.543
 7787SOL     OW35014   4.103   9.536   1.577
 7787SOL    HW135015   4.194   9.558   1.543
 7787SOL    HW235016   4.040   9.609   1.551
 7788SOL     OW35017   4.248   5.459   2.065
 7788SOL    HW135018   4.287   5.479   2.154
 7788SOL    HW235019   4.272   5.366   2.038
 7789SOL     OW35020   0.686   2.738   2.730
 7789SOL    HW135021   0.729   2.767   2.644
 7789SOL    HW235022   0.741   2.772   2.807
 7790SOL     OW35023   8.609   7.363   6.520
 7790SOL    HW135024   8.677   7.356   6.593
 7790SOL    HW235025   8.541   7.290   6.530
 7791SOL     OW35026   2.511   5.618   6.506
 7791SOL    HW135027   2.441   5.610   6.577
 7791SOL    HW235028   2.600   5.594   6.545
 7792SOL     OW35029   4.694   8.727   4.668
 7792SOL    HW135030   4.672   8.658   4.600
 7792SOL    HW235031   4.633   8.806   4.655
 7793SOL     OW35032   4.157   3.246   2.016
 7793SOL    HW135033   4.113   3.262   1.928
 7793SOL    HW235034   4.254   3.271   2.010
 7794SOL     OW35035   1.827   9.216   0.944
 7794SOL    HW135036   1.796   9.180   1.032
 7794SOL    HW235037   1.835   9.315   0.950
 7795SOL     OW35038   1.798   3.567   7.407
 7795SOL    HW135039   1.767   3.594   7.316
 7795SOL    HW235040   1.773   3.471   7.424
 7796SOL     OW35041   9.872   3.927   5.494
 7796SOL    HW135042   9.889   4.020   5.462
 7796SOL    HW235043   9.806   3.928   5.569
 7797SOL     OW35044   8.322   5.690   3.080
 7797SOL    HW135045   8.362   5.782   3.075
 7797SOL    HW235046   8.293   5.671   3.174
 7798SOL     OW35047   3.802   9.088   7.677
 7798SOL    HW135048   3.853   9.140   7.608
 7798SOL    HW235049   3.733   9.031   7.633
 7799SOL     OW35050   1.924   4.119   4.820
 7799SOL    HW135051   1.904   4.210   4.783
 7799SOL    HW235052   1.931   4.124   4.919
 7800SOL     OW35053   0.229   3.005   1.316
 7800SOL    HW135054   0.274   3.039   1.234
 7800SOL    HW235055   0.297   2.963   1.376
 7801SOL     OW35056   0.251   6.193   1.448
 7801SOL    HW135057   0.236   6.105   1.493
 7801SOL    HW235058   0.311   6.250   1.505
 7802SOL     OW35059   8.586   2.626   1.004
 7802SOL    HW135060   8.550   2.588   1.089
 7802SOL    HW235061   8.627   2.716   1.022
 7803SOL     OW35062   8.875   7.018   4.899
 7803SOL    HW135063   8.822   7.014   4.814
 7803SOL    HW235064   8.812   7.023   4.976
 7804SOL     OW35065   2.604   1.997   3.873
 7804SOL    HW135066   2.620   1.948   3.787
 7804SOL    HW235067   2.652   2.085   3.871
 7805SOL     OW35068   8.893   4.083   4.638
 7805SOL    HW135069   8.948   4.101   4.556
 7805SOL    HW235070   8.801   4.119   4.624
 7806SOL     OW35071   6.258   8.867   2.597
 7806SOL    HW135072   6.278   8.773   2.624
 7806SOL    HW235073   6.267   8.927   2.676
 7807SOL     OW35074   9.362   1.432   7.469
 7807SOL    HW135075   9.357   1.333   7.455
 7807SOL    HW235076   9.454   1.464   7.445
 7808SOL     OW35077   5.109   0.154   6.627
 7808SOL    HW135078   5.195   0.112   6.599
 7808SOL    HW235079   5.036   0.086   6.624
 7809SOL     OW35080   9.292   0.843   2.246
 7809SOL    HW135081   9.330   0.853   2.338
 7809SOL    HW235082   9.337   0.766   2.199
 7810SOL     OW35083   9.422   3.502   4.380
 7810SOL    HW135084   9.482   3.422   4.387
 7810SOL    HW235085   9.409   3.542   4.471
 7811SOL     OW35086   2.028   2.404   6.424
 7811SOL    HW135087   2.019   2.326   6.485
 7811SOL    HW235088   2.017   2.373   6.329
 7812SOL     OW35089   7.753   0.643   5.314
 7812SOL    HW135090   7.840   0.667   5.357
 7812SOL    HW235091   7.767   0.621   5.218
 7813SOL     OW35092   3.940   2.128   0.896
 7813SOL    HW135093   4.010   2.149   0.828
 7813SOL    HW235094   3.960   2.177   0.980
 7814SOL     OW35095   1.095   9.116   7.577
 7814SOL    HW135096   1.006   9.155   7.554
 7814SOL    HW235097   1.085   9.053   7.654
 7815SOL     OW35098   8.306   4.849   7.857
 7815SOL    HW135099   8.350   4.759   7.862
 7815SOL    HW235100   8.346   4.902   7.782
 7816SOL     OW35101   1.341   5.084   7.852
 7816SOL    HW135102   1.381   5.136   7.777
 7816SOL    HW235103   1.383   4.993   7.856
 7817SOL     OW35104   3.898   7.324   5.066
 7817SOL    HW135105   3.965   7.331   4.991
 7817SOL    HW235106   3.942   7.349   5.152
 7818SOL     OW35107   1.756   9.118   1.189
 7818SOL    HW135108   1.675   9.074   1.227
 7818SOL    HW235109   1.835   9.058   1.201
 7819SOL     OW35110   8.491   3.019   6.556
 7819SOL    HW135111   8.517   3.043   6.463
 7819SOL    HW235112   8.433   3.091   6.594
 7820SOL     OW35113   6.524   3.155   2.951
 7820SOL    HW135114   6.441   3.211   2.956
 7820SOL    HW235115   6.498   3.059   2.938
 7821SOL     OW35116   9.494   8.061   4.803
 7821SOL    HW135117   9.510   8.159   4.794
 7821SOL    HW235118   9.581   8.013   4.806
 7822SOL     OW35119   9.770   3.000   3.076
 7822SOL    HW135120   9.790   3.045   3.164
 7822SOL    HW235121   9.675   2.968   3.077
 7823SOL     OW35122   7.074   7.866   3.106
 7823SOL    HW135123   7.077   7.781   3.158
 7823SOL    HW235124   7.166   7.891   3.076
 7824SOL     OW35125   2.582   7.569   1.431
 7824SOL    HW135126   2.588   7.613   1.520
 7824SOL    HW235127   2.631   7.624   1.363
 7825SOL     OW35128   4.300   8.972   2.557
 7825SOL    HW135129   4.287   8.998   2.461
 7825SOL    HW235130   4.256   9.039   2.616
 7826SOL     OW35131   0.210   1.562   4.051
 7826SOL    HW135132   0.193   1.588   3.956
 7826SOL    HW235133   0.275   1.487   4.054
 7827SOL     OW35134   3.747   2.393   4.219
 7827SOL    HW135135   3.727   2.298   4.194
 7827SOL    HW235136   3.838   2.418   4.187
 7828SOL     OW35137   0.046   1.027   6.315
 7828SOL    HW135138   0.011   1.010   6.223
 7828SOL    HW235139   0.133   1.075   6.310
 7829SOL     OW35140   5.929   9.680   7.704
 7829SOL    HW135141   5.969   9.758   7.656
 7829SOL    HW235142   5.989   9.601   7.694
 7830SOL     OW35143   0.388   8.800   2.221
 7830SOL    HW135144   0.304   8.772   2.174
 7830SOL    HW235145   0.384   8.899   2.238
 7831SOL     OW35146   5.828   2.010   4.419
 7831SOL    HW135147   5.855   2.106   4.412
 7831SOL    HW235148   5.846   1.978   4.512
 7832SOL     OW35149   1.236   7.629   3.350
 7832SOL    HW135150   1.300   7.706   3.349
 7832SOL    HW235151   1.165   7.643   3.281
 7833SOL     OW35152   8.231   5.657   3.346
 7833SOL    HW135153   8.275   5.684   3.431
 7833SOL    HW235154   8.241   5.558   3.333
 7834SOL     OW35155   4.114   5.912   3.077
 7834SOL    HW135156   4.080   5.921   3.171
 7834SOL    HW235157   4.069   5.980   3.019
 7835SOL     OW35158   5.086   7.559   4.279
 7835SOL    HW135159   5.059   7.565   4.376
 7835SOL    HW235160   5.007   7.581   4.222
 7836SOL     OW35161   0.351   3.157   5.721
 7836SOL    HW135162   0.266   3.175   5.671
 7836SOL    HW235163   0.347   3.200   5.811
 7837SOL     OW35164   1.615   6.157   5.832
 7837SOL    HW135165   1.694   6.122   5.883
 7837SOL    HW235166   1.639   6.164   5.735
 7838SOL     OW35167   8.754   8.982   2.905
 7838SOL    HW135168   8.770   8.889   2.872
 7838SOL    HW235169   8.840   9.034   2.903
 7839SOL     OW35170   4.614   0.753   1.482
 7839SOL    HW135171   4.676   0.731   1.406
 7839SOL    HW235172   4.582   0.847   1.472
 7840SOL     OW35173   6.786   9.618   6.703
 7840SOL    HW135174   6.879   9.581   6.694
 7840SOL    HW235175   6.785   9.713   6.671
 7841SOL     OW35176   3.938   8.140   0.326
 7841SOL    HW135177   4.015   8.150   0.389
 7841SOL    HW235178   3.928   8.224   0.272
 7842SOL     OW35179   3.077   7.832   3.206
 7842SOL    HW135180   3.120   7.892   3.139
 7842SOL    HW235181   3.120   7.741   3.202
 7843SOL     OW35182   2.529   9.651   0.392
 7843SOL    HW135183   2.581   9.694   0.466
 7843SOL    HW235184   2.441   9.697   0.382
 7844SOL     OW35185   4.043   8.311   1.513
 7844SOL    HW135186   4.049   8.222   1.468
 7844SOL    HW235187   4.055   8.299   1.612
 7845SOL     OW35188   4.203   2.710   7.269
 7845SOL    HW135189   4.123   2.755   7.308
 7845SOL    HW235190   4.247   2.771   7.203
 7846SOL     OW35191   6.073   0.568   4.935
 7846SOL    HW135192   6.026   0.649   4.970
 7846SOL    HW235193   6.132   0.594   4.858
 7847SOL     OW35194   0.548   8.027   6.007
 7847SOL    HW135195   0.547   8.127   6.005
 7847SOL    HW235196   0.636   7.996   6.043
 7848SOL     OW35197   9.985   7.943   1.328
 7848SOL    HW135198   0.007   7.853   1.366
 7848SOL    HW235199   9.900   7.976   1.369
 7849SOL     OW35200   8.776   0.387   1.638
 7849SOL    HW135201   8.856   0.331   1.614
 7849SOL    HW235202   8.703   0.370   1.572
 7850SOL     OW35203   0.350   7.328   7.233
 7850SOL    HW135204   0.379   7.422   7.249
 7850SOL    HW235205   0.353   7.307   7.135
 7851SOL     OW35206   0.462   1.761   0.072
 7851SOL    HW135207   0.386   1.763   0.006
 7851SOL    HW235208   0.510   1.673   0.065
 7852SOL     OW35209   5.288   0.809   2.299
 7852SOL    HW135210   5.254   0.746   2.370
 7852SOL    HW235211   5.385   0.827   2.314
 7853SOL     OW35212   8.690   7.991   7.138
 7853SOL    HW135213   8.667   7.918   7.073
 7853SOL    HW235214   8.686   8.080   7.092
 7854SOL     OW35215   4.684   3.552   2.082
 7854SOL    HW135216   4.606   3.570   2.022
 7854SOL    HW235217   4.718   3.460   2.065
 7855SOL     OW35218   7.913   9.963   1.882
 7855SOL    HW135219   7.907   9.936   1.786
 7855SOL    HW235220   7.976   0.040   1.892
 7856SOL     OW35221   8.919   4.844   0.600
 7856SOL    HW135222   8.832   4.886   0.576
 7856SOL    HW235223   8.972   4.909   0.655
 7857SOL     OW35224   0.287   9.400   5.233
 7857SOL    HW135225   0.318   9.315   5.190
 7857SOL    HW235226   0.360   9.469   5.227
 7858SOL     OW35227   5.155   3.111   1.426
 7858SOL    HW135228   5.090   3.147   1.493
 7858SOL    HW235229   5.105   3.058   1.357
 7859SOL     OW35230   2.959   9.591   4.905
 7859SOL    HW135231   2.930   9.625   4.815
 7859SOL    HW235232   3.037   9.644   4.937
 7860SOL     OW35233   0.202   8.748   2.624
 7860SOL    HW135234   0.130   8.789   2.569
 7860SOL    HW235235   0.291   8.767   2.583
 7861SOL     OW35236   4.483   0.928   7.627
 7861SOL    HW135237   4.450   0.836   7.648
 7861SOL    HW235238   4.546   0.958   7.699
 7862SOL     OW35239   1.125   9.748   5.882
 7862SOL    HW135240   1.187   9.753   5.804
 7862SOL    HW235241   1.177   9.756   5.967
 7863SOL     OW35242   9.475   2.350   7.064
 7863SOL    HW135243   9.479   2.355   6.964
 7863SOL    HW235244   9.429   2.431   7.099
 7864SOL     OW35245   5.018   8.410   3.397
 7864SOL    HW135246   5.055   8.441   3.310
 7864SOL    HW235247   4.919   8.418   3.396
 7865SOL     OW35248   9.559   7.355   5.728
 7865SOL    HW135249   9.529   7.297   5.803
 7865SOL    HW235250   9.625   7.422   5.761
 7866SOL     OW35251   4.630   4.676   2.123
 7866SOL    HW135252   4.719   4.694   2.165
 7866SOL    HW235253   4.564   4.651   2.194
 7867SOL     OW35254   3.095   7.618   0.990
 7867SOL    HW135255   3.021   7.681   1.013
 7867SOL    HW235256   3.098   7.606   0.891
 7868SOL     OW35257   8.299   2.314   1.253
 7868SOL    HW135258   8.347   2.227   1.265
 7868SOL    HW235259   8.242   2.332   1.333
 7869SOL     OW35260   6.792   8.385   5.020
 7869SOL    HW135261   6.733   8.343   4.951
 7869SOL    HW235262   6.736   8.436   5.086
 7870SOL     OW35263   0.195   0.510   7.924
 7870SOL    HW135264   0.192   0.418   7.883
 7870SOL    HW235265   0.156   0.576   7.861
 7871SOL     OW35266   9.542   4.143   4.006
 7871SOL    HW135267   9.623   4.159   4.063
 7871SOL    HW235268   9.526   4.044   3.999
 7872SOL     OW35269   5.764   8.669   3.941
 7872SOL    HW135270   5.729   8.752   3.985
 7872SOL    HW235271   5.752   8.676   3.842
 7873SOL     OW35272   0.930   7.558   5.847
 7873SOL    HW135273   0.952   7.519   5.758
 7873SOL    HW235274   0.835   7.589   5.847
 7874SOL     OW35275   2.915   9.448   6.469
 7874SOL    HW135276   2.833   9.423   6.418
 7874SOL    HW235277   2.963   9.522   6.422
 7875SOL     OW35278   0.066   4.353   1.083
 7875SOL    HW135279   0.162   4.329   1.073
 7875SOL    HW235280   0.018   4.339   0.996
 7876SOL     OW35281   4.201   1.942   4.703
 7876SOL    HW135282   4.104   1.961   4.714
 7876SOL    HW235283   4.215   1.843   4.694
 7877SOL     OW35284   4.127   7.845   5.316
 7877SOL    HW135285   4.149   7.747   5.312
 7877SOL    HW235286   4.029   7.857   5.303
 7878SOL     OW35287   0.603   9.714   5.440
 7878SOL    HW135288   0.684   9.677   5.484
 7878SOL    HW235289   0.622   9.808   5.409
 7879SOL     OW35290   9.462   6.372   5.842
 7879SOL    HW135291   9.508   6.455   5.811
 7879SOL    HW235292   9.369   6.370   5.806
 7880SOL     OW35293   7.759   8.966   5.205
 7880SOL    HW135294   7.782   9.063   5.208
 7880SOL    HW235295   7.676   8.949   5.258
 7881SOL     OW35296   0.529   8.573   5.577
 7881SOL    HW135297   0.515   8.659   5.627
 7881SOL    HW235298   0.446   8.552   5.525
 7882SOL     OW35299   0.528   2.606   0.403
 7882SOL    HW135300   0.453   2.669   0.423
 7882SOL    HW235301   0.546   2.607   0.304
 7883SOL     OW35302   7.005   4.195   0.766
 7883SOL    HW135303   7.035   4.128   0.698
 7883SOL    HW235304   6.992   4.284   0.722
 7884SOL     OW35305   2.257   8.321   0.481
 7884SOL    HW135306   2.341   8.269   0.467
 7884SOL    HW235307   2.243   8.383   0.403
 7885SOL     OW35308   3.683   9.690   1.350
 7885SOL    HW135309   3.712   9.597   1.328
 7885SOL    HW235310   3.588   9.704   1.324
 7886SOL     OW35311   6.687   4.437   1.514
 7886SOL    HW135312   6.627   4.504   1.471
 7886SOL    HW235313   6.711   4.366   1.448
 7887SOL     OW35314   2.344   9.689   1.978
 7887SOL    HW135315   2.310   9.780   2.004
 7887SOL    HW235316   2.442   9.694   1.963
 7888SOL     OW35317   8.511   1.631   2.824
 7888SOL    HW135318   8.498   1.549   2.879
 7888SOL    HW235319   8.458   1.622   2.739
 7889SOL     OW35320   2.166   3.790   6.245
 7889SOL    HW135321   2.171   3.748   6.155
 7889SOL    HW235322   2.112   3.874   6.240
 7890SOL     OW35323   8.932   9.807   7.719
 7890SOL    HW135324   9.007   9.870   7.697
 7890SOL    HW235325   8.865   9.854   7.776
 7891SOL     OW35326   3.313   3.758   5.714
 7891SOL    HW135327   3.215   3.738   5.709
 7891SOL    HW235328   3.364   3.672   5.716
 7892SOL     OW35329   1.906   0.789   4.795
 7892SOL    HW135330   1.911   0.888   4.803
 7892SOL    HW235331   1.953   0.759   4.711
 7893SOL     OW35332   2.436   1.408   5.348
 7893SOL    HW135333   2.412   1.418   5.252
 7893SOL    HW235334   2.503   1.478   5.374
 7894SOL     OW35335   3.625   7.967   6.676
 7894SOL    HW135336   3.563   8.014   6.739
 7894SOL    HW235337   3.577   7.891   6.633
 7895SOL     OW35338   7.235   0.783   6.151
 7895SOL    HW135339   7.263   0.859   6.209
 7895SOL    HW235340   7.316   0.739   6.113
 7896SOL     OW35341   2.226   7.276   0.181
 7896SOL    HW135342   2.315   7.322   0.183
 7896SOL    HW235343   2.207   7.235   0.270
 7897SOL     OW35344   0.695   9.165   4.290
 7897SOL    HW135345   0.780   9.113   4.292
 7897SOL    HW235346   0.660   9.175   4.383
 7898SOL     OW35347   9.627   6.042   3.049
 7898SOL    HW135348   9.567   5.974   3.092
 7898SOL    HW235349   9.571   6.103   2.992
 7899SOL     OW35350   1.245   4.154   3.539
 7899SOL    HW135351   1.161   4.101   3.525
 7899SOL    HW235352   1.265   4.160   3.637
 7900SOL     OW35353   2.674   9.737   6.635
 7900SOL    HW135354   2.588   9.702   6.671
 7900SOL    HW235355   2.718   9.794   6.704
 7901SOL     OW35356   1.657   2.538   2.621
 7901SOL    HW135357   1.629   2.470   2.552
 7901SOL    HW235358   1.639   2.502   2.712
 7902SOL     OW35359   7.883   1.415   0.975
 7902SOL    HW135360   7.879   1.512   0.952
 7902SOL    HW235361   7.849   1.361   0.897
 7903SOL     OW35362   2.651   8.982   5.162
 7903SOL    HW135363   2.556   8.974   5.133
 7903SOL    HW235364   2.691   9.065   5.123
 7904SOL     OW35365   0.187   9.221   1.991
 7904SOL    HW135366   0.284   9.218   2.014
 7904SOL    HW235367   0.152   9.127   1.985
 7905SOL     OW35368   1.726   5.951   1.632
 7905SOL    HW135369   1.778   5.865   1.633
 7905SOL    HW235370   1.767   6.016   1.696
 7906SOL     OW35371   6.137   9.227   5.908
 7906SOL    HW135372   6.056   9.217   5.849
 7906SOL    HW235373   6.111   9.208   6.003
 7907SOL     OW35374   9.598   8.637   0.211
 7907SOL    HW135375   9.533   8.577   0.257
 7907SOL    HW235376   9.606   8.723   0.262
 7908SOL     OW35377   2.677   0.423   1.007
 7908SOL    HW135378   2.698   0.516   0.976
 7908SOL    HW235379   2.689   0.418   1.106
 7909SOL     OW35380   9.953   7.875   0.982
 7909SOL    HW135381   9.955   7.818   1.064
 7909SOL    HW235382   9.926   7.968   1.007
 7910SOL     OW35383   8.257   7.252   4.799
 7910SOL    HW135384   8.268   7.223   4.704
 7910SOL    HW235385   8.181   7.316   4.806
 7911SOL     OW35386   8.246   6.695   3.329
 7911SOL    HW135387   8.296   6.708   3.243
 7911SOL    HW235388   8.178   6.623   3.318
 7912SOL     OW35389   3.757   5.689   3.980
 7912SOL    HW135390   3.735   5.619   3.911
 7912SOL    HW235391   3.684   5.692   4.048
 7913SOL     OW35392   2.908   6.847   4.141
 7913SOL    HW135393   2.813   6.867   4.119
 7913SOL    HW235394   2.939   6.910   4.213
 7914SOL     OW35395   4.041   4.171   4.360
 7914SOL    HW135396   4.009   4.190   4.268
 7914SOL    HW235397   4.005   4.240   4.423
 7915SOL     OW35398   2.310   4.997   2.979
 7915SOL    HW135399   2.284   4.901   2.989
 7915SOL    HW235400   2.234   5.048   2.939
 7916SOL     OW35401   6.065   8.887   3.284
 7916SOL    HW135402   6.152   8.860   3.324
 7916SOL    HW235403   6.047   8.832   3.201
 7917SOL     OW35404   0.938   0.440   6.345
 7917SOL    HW135405   0.969   0.528   6.379
 7917SOL    HW235406   0.902   0.450   6.252
 7918SOL     OW35407   0.853   8.566   4.923
 7918SOL    HW135408   0.847   8.495   4.992
 7918SOL    HW235409   0.943   8.608   4.925
 7919SOL     OW35410   4.100   7.042   6.574
 7919SOL    HW135411   4.199   7.048   6.586
 7919SOL    HW235412   4.068   6.952   6.606
 7920SOL     OW35413   4.111   8.196   6.159
 7920SOL    HW135414   4.014   8.200   6.183
 7920SOL    HW235415   4.131   8.106   6.120
 7921SOL     OW35416   4.610   8.728   5.835
 7921SOL    HW135417   4.608   8.644   5.888
 7921SOL    HW235418   4.564   8.712   5.747
 7922SOL     OW35419   2.504   1.960   1.731
 7922SOL    HW135420   2.439   1.954   1.806
 7922SOL    HW235421   2.470   1.909   1.652
 7923SOL     OW35422   9.226   1.321   0.779
 7923SOL    HW135423   9.174   1.332   0.694
 7923SOL    HW235424   9.220   1.405   0.833
 7924SOL     OW35425   9.410   9.394   6.106
 7924SOL    HW135426   9.450   9.477   6.067
 7924SOL    HW235427   9.311   9.404   6.111
 7925SOL     OW35428   4.608   2.884   4.607
 7925SOL    HW135429   4.663   2.968   4.614
 7925SOL    HW235430   4.571   2.876   4.515
 7926SOL     OW35431   3.358   7.607   1.089
 7926SOL    HW135432   3.265   7.614   1.053
 7926SOL    HW235433   3.424   7.615   1.014
 7927SOL     OW35434   3.702   7.492   4.732
 7927SOL    HW135435   3.800   7.508   4.720
 7927SOL    HW235436   3.671   7.422   4.668
 7928SOL     OW35437   7.638   5.980   4.091
 7928SOL    HW135438   7.698   5.925   4.150
 7928SOL    HW235439   7.617   6.067   4.136
 7929SOL     OW35440   9.768   7.147   7.126
 7929SOL    HW135441   9.846   7.098   7.088
 7929SOL    HW235442   9.711   7.083   7.178
 7930SOL     OW35443   2.871   6.572   0.178
 7930SOL    HW135444   2.893   6.635   0.104
 7930SOL    HW235445   2.921   6.486   0.166
 7931SOL     OW35446   4.491   3.438   7.287
 7931SOL    HW135447   4.407   3.387   7.268
 7931SOL    HW235448   4.526   3.413   7.378
 7932SOL     OW35449   3.188   3.018   4.902
 7932SOL    HW135450   3.185   3.006   4.803
 7932SOL    HW235451   3.177   2.930   4.948
 7933SOL     OW35452   8.718   4.610   2.722
 7933SOL    HW135453   8.777   4.615   2.803
 7933SOL    HW235454   8.696   4.515   2.703
 7934SOL     OW35455   9.041   3.733   7.834
 7934SOL    HW135456   9.034   3.787   7.919
 7934SOL    HW235457   9.116   3.668   7.842
 7935SOL     OW35458   4.648   5.892   3.629
 7935SOL    HW135459   4.688   5.847   3.709
 7935SOL    HW235460   4.579   5.832   3.588
 7936SOL     OW35461   5.686   4.598   2.169
 7936SOL    HW135462   5.786   4.600   2.176
 7936SOL    HW235463   5.659   4.540   2.092
 7937SOL     OW35464   7.301   8.136   5.340
 7937SOL    HW135465   7.312   8.067   5.269
 7937SOL    HW235466   7.331   8.098   5.428
 7938SOL     OW35467   4.223   1.548   6.525
 7938SOL    HW135468   4.176   1.634   6.545
 7938SOL    HW235469   4.318   1.555   6.555
 7939SOL     OW35470   6.661   1.340   3.107
 7939SOL    HW135471   6.743   1.374   3.061
 7939SOL    HW235472   6.684   1.257   3.160
 7940SOL     OW35473   9.310   8.064   2.135
 7940SOL    HW135474   9.280   8.144   2.187
 7940SOL    HW235475   9.391   8.024   2.179
 7941SOL     OW35476   7.602   6.164   1.687
 7941SOL    HW135477   7.653   6.174   1.601
 7941SOL    HW235478   7.505   6.154   1.667
 7942SOL     OW35479   0.675   5.294   0.568
 7942SOL    HW135480   0.688   5.203   0.608
 7942SOL    HW235481   0.587   5.331   0.597
 7943SOL     OW35482   7.713   2.952   5.478
 7943SOL    HW135483   7.769   3.024   5.520
 7943SOL    HW235484   7.742   2.863   5.514
 7944SOL     OW35485   4.486   5.287   3.925
 7944SOL    HW135486   4.543   5.347   3.868
 7944SOL    HW235487   4.406   5.337   3.956
 7945SOL     OW35488   9.860   9.413   4.028
 7945SOL    HW135489   9.895   9.485   4.088
 7945SOL    HW235490   9.760   9.420   4.023
 7946SOL     OW35491   6.998   9.573   2.503
 7946SOL    HW135492   7.035   9.662   2.478
 7946SOL    HW235493   6.904   9.584   2.538
 7947SOL     OW35494   3.710   6.128   4.103
 7947SOL    HW135495   3.624   6.088   4.072
 7947SOL    HW235496   3.733   6.206   4.045
 7948SOL     OW35497   0.636   8.846   5.099
 7948SOL    HW135498   0.575   8.794   5.159
 7948SOL    HW235499   0.729   8.809   5.105
 7949SOL     OW35500   4.473   6.061   3.847
 7949SOL    HW135501   4.556   6.115   3.837
 7949SOL    HW235502   4.431   6.048   3.757
 7950SOL     OW35503   3.691   1.619   3.447
 7950SOL    HW135504   3.772   1.662   3.487
 7950SOL    HW235505   3.701   1.520   3.452
 7951SOL     OW35506   1.154   5.682   3.707
 7951SOL    HW135507   1.210   5.763   3.724
 7951SOL    HW235508   1.184   5.608   3.768
 7952SOL     OW35509   4.585   5.348   0.077
 7952SOL    HW135510   4.683   5.329   0.079
 7952SOL    HW235511   4.563   5.421   0.142
 7953SOL     OW35512   4.070   2.979   3.421
 7953SOL    HW135513   4.097   2.929   3.338
 7953SOL    HW235514   4.031   2.915   3.487
 7954SOL     OW35515   8.579   3.899   3.556
 7954SOL    HW135516   8.530   3.970   3.506
 7954SOL    HW235517   8.587   3.817   3.499
 7955SOL     OW35518   2.438   5.345   0.837
 7955SOL    HW135519   2.394   5.274   0.892
 7955SOL    HW235520   2.371   5.386   0.775
 7956SOL     OW35521   9.963   7.209   7.460
 7956SOL    HW135522   9.905   7.268   7.403
 7956SOL    HW235523   9.929   7.210   7.554
 7957SOL     OW35524   8.810   2.587   5.317
 7957SOL    HW135525   8.883   2.652   5.340
 7957SOL    HW235526   8.835   2.540   5.232
 7958SOL     OW35527   4.213   1.922   0.648
 7958SOL    HW135528   4.177   1.847   0.592
 7958SOL    HW235529   4.313   1.913   0.655
 7959SOL     OW35530   8.141   5.508   5.029
 7959SOL    HW135531   8.182   5.581   5.084
 7959SOL    HW235532   8.042   5.511   5.039
 7960SOL     OW35533   5.760   2.804   2.408
 7960SOL    HW135534   5.732   2.900   2.415
 7960SOL    HW235535   5.681   2.745   2.426
 7961SOL     OW35536   5.233   4.436   1.724
 7961SOL    HW135537   5.143   4.437   1.680
 7961SOL    HW235538   5.285   4.516   1.696
 7962SOL     OW35539   0.899   1.648   6.356
 7962SOL    HW135540   0.914   1.647   6.455
 7962SOL    HW235541   0.802   1.664   6.338
 7963SOL     OW35542   3.492   7.673   7.583
 7963SOL    HW135543   3.544   7.601   7.537
 7963SOL    HW235544   3.400   7.677   7.545
 7964SOL     OW35545   3.555   0.113   1.358
 7964SOL    HW135546   3.499   0.049   1.411
 7964SOL    HW235547   3.561   0.200   1.407
 7965SOL     OW35548   5.417   8.576   3.840
 7965SOL    HW135549   5.445   8.672   3.830
 7965SOL    HW235550   5.469   8.519   3.776
 7966SOL     OW35551   8.200   6.049   2.748
 7966SOL    HW135552   8.199   6.144   2.715
 7966SOL    HW235553   8.285   6.032   2.797
 7967SOL     OW35554   0.361   8.525   0.134
 7967SOL    HW135555   0.306   8.607   0.146
 7967SOL    HW235556   0.307   8.455   0.088
 7968SOL     OW35557   1.632   4.543   0.579
 7968SOL    HW135558   1.566   4.467   0.577
 7968SOL    HW235559   1.629   4.591   0.492
 7969SOL     OW35560   3.992   4.578   4.780
 7969SOL    HW135561   3.998   4.488   4.824
 7969SOL    HW235562   4.047   4.577   4.696
 7970SOL     OW35563   4.804   8.617   6.633
 7970SOL    HW135564   4.711   8.626   6.598
 7970SOL    HW235565   4.869   8.621   6.558
 7971SOL     OW35566   3.097   5.352   2.215
 7971SOL    HW135567   3.112   5.387   2.123
 7971SOL    HW235568   3.179   5.306   2.247
 7972SOL     OW35569   0.418   6.513   5.951
 7972SOL    HW135570   0.402   6.604   5.988
 7972SOL    HW235571   0.458   6.521   5.860
 7973SOL     OW35572   3.696   7.500   5.009
 7973SOL    HW135573   3.680   7.497   4.910
 7973SOL    HW235574   3.759   7.427   5.034
 7974SOL     OW35575   4.406   8.679   3.732
 7974SOL    HW135576   4.348   8.610   3.776
 7974SOL    HW235577   4.478   8.707   3.795
 7975SOL     OW35578   0.517   3.010   2.828
 7975SOL    HW135579   0.522   3.017   2.728
 7975SOL    HW235580   0.594   3.060   2.868
 7976SOL     OW35581   0.542   8.375   0.272
 7976SOL    HW135582   0.538   8.411   0.365
 7976SOL    HW235583   0.484   8.432   0.212
 7977SOL     OW35584   7.732   6.131   0.209
 7977SOL    HW135585   7.674   6.200   0.165
 7977SOL    HW235586   7.728   6.142   0.308
 7978SOL     OW35587   6.394   7.925   3.038
 7978SOL    HW135588   6.382   8.002   3.101
 7978SOL    HW235589   6.400   7.959   2.944
 7979SOL     OW35590   3.470   3.519   5.717
 7979SOL    HW135591   3.556   3.534   5.766
 7979SOL    HW235592   3.487   3.463   5.636
 7980SOL     OW35593   6.851   2.555   3.368
 7980SOL    HW135594   6.907   2.521   3.293
 7980SOL    HW235595   6.840   2.654   3.360
 7981SOL     OW35596   6.002   7.457   5.085
 7981SOL    HW135597   5.977   7.537   5.030
 7981SOL    HW235598   5.942   7.381   5.062
 7982SOL     OW35599   7.093   6.088   3.425
 7982SOL    HW135600   7.163   6.090   3.353
 7982SOL    HW235601   7.064   6.181   3.445
 7983SOL     OW35602   2.792   4.768   6.810
 7983SOL    HW135603   2.794   4.745   6.907
 7983SOL    HW235604   2.700   4.799   6.786
 7984SOL     OW35605   3.912   2.558   4.807
 7984SOL    HW135606   3.893   2.460   4.808
 7984SOL    HW235607   3.980   2.578   4.736
 7985SOL     OW35608   3.239   2.773   3.742
 7985SOL    HW135609   3.219   2.793   3.646
 7985SOL    HW235610   3.164   2.805   3.799
 7986SOL     OW35611   0.721   0.694   6.783
 7986SOL    HW135612   0.789   0.750   6.736
 7986SOL    HW235613   0.710   0.726   6.877
 7987SOL     OW35614   9.865   0.013   3.490
 7987SOL    HW135615   9.781   0.064   3.507
 7987SOL    HW235616   9.900   0.035   3.399
 7988SOL     OW35617   1.052   8.698   7.745
 7988SOL    HW135618   1.046   8.796   7.767
 7988SOL    HW235619   1.147   8.668   7.754
 7989SOL     OW35620   2.455   2.555   1.256
 7989SOL    HW135621   2.358   2.578   1.268
 7989SOL    HW235622   2.481   2.572   1.161
 7990SOL     OW35623   3.995   2.040   2.466
 7990SOL    HW135624   4.025   2.076   2.377
 7990SOL    HW235625   3.908   1.991   2.454
 7991SOL     OW35626   6.010   7.843   5.821
 7991SOL    HW135627   5.993   7.825   5.918
 7991SOL    HW235628   6.032   7.757   5.775
 7992SOL     OW35629   9.000   4.930   6.429
 7992SOL    HW135630   8.903   4.954   6.429
 7992SOL    HW235631   9.031   4.912   6.522
 7993SOL     OW35632   9.466   2.498   4.994
 7993SOL    HW135633   9.473   2.482   5.092
 7993SOL    HW235634   9.530   2.439   4.945
 7994SOL     OW35635   2.772   0.211   7.321
 7994SOL    HW135636   2.674   0.210   7.302
 7994SOL    HW235637   2.819   0.150   7.257
 7995SOL     OW35638   3.245   2.531   7.795
 7995SOL    HW135639   3.153   2.514   7.830
 7995SOL    HW235640   3.296   2.446   7.792
 7996SOL     OW35641   9.918   1.435   7.264
 7996SOL    HW135642   9.902   1.507   7.197
 7996SOL    HW235643   0.017   1.428   7.282
 7997SOL     OW35644   2.076   3.367   4.265
 7997SOL    HW135645   2.039   3.276   4.287
 7997SOL    HW235646   2.137   3.360   4.187
 7998SOL     OW35647   3.450   2.349   6.127
 7998SOL    HW135648   3.428   2.391   6.215
 7998SOL    HW235649   3.549   2.334   6.121
 7999SOL     OW35650   0.741   7.482   7.022
 7999SOL    HW135651   0.655   7.530   7.006
 7999SOL    HW235652   0.722   7.392   7.059
 8000SOL     OW35653   8.905   3.751   4.733
 8000SOL    HW135654   8.912   3.760   4.634
 8000SOL    HW235655   8.934   3.837   4.776
 8001SOL     OW35656   3.486   3.943   5.617
 8001SOL    HW135657   3.578   3.931   5.653
 8001SOL    HW235658   3.425   3.875   5.659
 8002SOL     OW35659   1.504   1.455   0.276
 8002SOL    HW135660   1.427   1.400   0.308
 8002SOL    HW235661   1.560   1.402   0.213
 8003SOL     OW35662   8.638   6.504   5.296
 8003SOL    HW135663   8.538   6.515   5.291
 8003SOL    HW235664   8.671   6.535   5.385
 8004SOL     OW35665   8.761   5.754   1.100
 8004SOL    HW135666   8.840   5.801   1.140
 8004SOL    HW235667   8.746   5.668   1.149
 8005SOL     OW35668   4.076   5.455   3.226
 8005SOL    HW135669   4.170   5.441   3.260
 8005SOL    HW235670   4.024   5.370   3.237
 8006SOL     OW35671   6.356   5.785   2.133
 8006SOL    HW135672   6.265   5.808   2.170
 8006SOL    HW235673   6.351   5.697   2.086
 8007SOL     OW35674   4.334   2.658   6.132
 8007SOL    HW135675   4.286   2.744   6.118
 8007SOL    HW235676   4.408   2.650   6.065
 8008SOL     OW35677   1.623   4.438   1.537
 8008SOL    HW135678   1.660   4.478   1.453
 8008SOL    HW235679   1.633   4.503   1.612
 8009SOL     OW35680   7.272   4.860   2.443
 8009SOL    HW135681   7.347   4.924   2.426
 8009SOL    HW235682   7.266   4.795   2.368
 8010SOL     OW35683   3.231   6.198   7.511
 8010SOL    HW135684   3.248   6.296   7.509
 8010SOL    HW235685   3.167   6.174   7.438
 8011SOL     OW35686   4.461   6.001   1.515
 8011SOL    HW135687   4.362   6.000   1.524
 8011SOL    HW235688   4.499   5.913   1.543
 8012SOL     OW35689   1.833   1.597   4.564
 8012SOL    HW135690   1.923   1.555   4.551
 8012SOL    HW235691   1.776   1.538   4.620
 8013SOL     OW35692   0.075   8.183   2.488
 8013SOL    HW135693   0.039   8.101   2.443
 8013SOL    HW235694   0.001   8.248   2.503
 8014SOL     OW35695   9.435   4.567   1.945
 8014SOL    HW135696   9.514   4.586   1.888
 8014SOL    HW235697   9.380   4.494   1.904
 8015SOL     OW35698   2.546   5.639   2.450
 8015SOL    HW135699   2.485   5.643   2.371
 8015SOL    HW235700   2.607   5.561   2.441
 8016SOL     OW35701   6.236   1.401   1.222
 8016SOL    HW135702   6.271   1.308   1.221
 8016SOL    HW235703   6.246   1.441   1.313
 8017SOL     OW35704   0.262   1.979   4.520
 8017SOL    HW135705   0.226   1.998   4.611
 8017SOL    HW235706   0.348   1.929   4.527
 8018SOL     OW35707   7.144   2.248   3.987
 8018SOL    HW135708   7.059   2.245   4.038
 8018SOL    HW235709   7.136   2.192   3.905
 8019SOL     OW35710   3.016   3.549   6.475
 8019SOL    HW135711   3.034   3.458   6.436
 8019SOL    HW235712   2.987   3.611   6.403
 8020SOL     OW35713   7.627   0.285   6.515
 8020SOL    HW135714   7.553   0.241   6.466
 8020SOL    HW235715   7.589   0.338   6.591
 8021SOL     OW35716   3.717   6.020   0.907
 8021SOL    HW135717   3.712   5.994   0.811
 8021SOL    HW235718   3.800   6.074   0.923
 8022SOL     OW35719   0.128   6.492   5.026
 8022SOL    HW135720   0.074   6.425   4.975
 8022SOL    HW235721   0.199   6.530   4.967
 8023SOL     OW35722   3.674   5.786   1.052
 8023SOL    HW135723   3.712   5.798   1.144
 8023SOL    HW235724   3.696   5.866   0.996
 8024SOL     OW35725   9.846   9.528   4.722
 8024SOL    HW135726   9.932   9.531   4.773
 8024SOL    HW235727   9.783   9.466   4.768
 8025SOL     OW35728   7.804   9.391   7.918
 8025SOL    HW135729   7.803   9.430   8.010
 8025SOL    HW235730   7.891   9.343   7.903
 8026SOL     OW35731   6.637   8.895   2.635
 8026SOL    HW135732   6.602   8.950   2.711
 8026SOL    HW235733   6.662   8.804   2.668
 8027SOL     OW35734   1.271   8.330   7.205
 8027SOL    HW135735   1.236   8.237   7.216
 8027SOL    HW235736   1.274   8.376   7.294
 8028SOL     OW35737   6.219   1.706   1.631
 8028SOL    HW135738   6.198   1.779   1.565
 8028SOL    HW235739   6.224   1.745   1.723
 8029SOL     OW35740   0.854   1.552   5.908
 8029SOL    HW135741   0.852   1.631   5.970
 8029SOL    HW235742   0.910   1.575   5.828
 8030SOL     OW35743   0.076   1.875   6.307
 8030SOL    HW135744   0.010   1.875   6.382
 8030SOL    HW235745   0.062   1.794   6.250
 8031SOL     OW35746   6.224   3.292   2.431
 8031SOL    HW135747   6.262   3.346   2.506
 8031SOL    HW235748   6.214   3.197   2.460
 8032SOL     OW35749   3.527   1.931   3.178
 8032SOL    HW135750   3.564   1.981   3.256
 8032SOL    HW235751   3.579   1.847   3.164
 8033SOL     OW35752   1.285   6.379   2.515
 8033SOL    HW135753   1.192   6.363   2.548
 8033SOL    HW235754   1.314   6.472   2.540
 8034SOL     OW35755   8.744   2.774   7.856
 8034SOL    HW135756   8.656   2.819   7.839
 8034SOL    HW235757   8.818   2.827   7.813
 8035SOL     OW35758   2.480   9.493   7.942
 8035SOL    HW135759   2.472   9.463   7.847
 8035SOL    HW235760   2.416   9.442   7.999
 8036SOL     OW35761   9.721   1.493   6.491
 8036SOL    HW135762   9.712   1.401   6.453
 8036SOL    HW235763   9.655   1.505   6.565
 8037SOL     OW35764   0.068   7.210   0.523
 8037SOL    HW135765   0.043   7.224   0.619
 8037SOL    HW235766   0.150   7.263   0.502
 8038SOL     OW35767   8.758   4.010   1.651
 8038SOL    HW135768   8.784   3.929   1.704
 8038SOL    HW235769   8.813   4.013   1.567
 8039SOL     OW35770   5.277   3.446   0.108
 8039SOL    HW135771   5.300   3.355   0.074
 8039SOL    HW235772   5.195   3.440   0.165
 8040SOL     OW35773   3.920   2.493   1.109
 8040SOL    HW135774   3.997   2.514   1.050
 8040SOL    HW235775   3.884   2.577   1.149
 8041SOL     OW35776   6.765   9.845   4.244
 8041SOL    HW135777   6.819   9.859   4.161
 8041SOL    HW235778   6.694   9.915   4.251
 8042SOL     OW35779   8.573   2.666   6.166
 8042SOL    HW135780   8.538   2.633   6.079
 8042SOL    HW235781   8.551   2.599   6.238
 8043SOL     OW35782   7.805   1.950   1.855
 8043SOL    HW135783   7.798   2.022   1.786
 8043SOL    HW235784   7.864   1.877   1.821
 8044SOL     OW35785   4.579   2.275   5.916
 8044SOL    HW135786   4.671   2.304   5.941
 8044SOL    HW235787   4.549   2.203   5.978
 8045SOL     OW35788   1.127   0.888   2.575
 8045SOL    HW135789   1.138   0.818   2.504
 8045SOL    HW235790   1.179   0.862   2.656
 8046SOL     OW35791   4.740   6.252   3.056
 8046SOL    HW135792   4.702   6.257   3.149
 8046SOL    HW235793   4.801   6.329   3.041
 8047SOL     OW35794   4.405   8.499   6.168
 8047SOL    HW135795   4.381   8.564   6.240
 8047SOL    HW235796   4.435   8.413   6.209
 8048SOL     OW35797   3.331   7.185   0.338
 8048SOL    HW135798   3.387   7.123   0.283
 8048SOL    HW235799   3.245   7.139   0.362
 8049SOL     OW35800   0.742   1.859   1.589
 8049SOL    HW135801   0.677   1.895   1.523
 8049SOL    HW235802   0.693   1.817   1.665
 8050SOL     OW35803   1.480   6.628   0.865
 8050SOL    HW135804   1.450   6.586   0.779
 8050SOL    HW235805   1.418   6.703   0.888
 8051SOL     OW35806   8.478   6.783   3.801
 8051SOL    HW135807   8.443   6.785   3.708
 8051SOL    HW235808   8.460   6.693   3.842
 8052SOL     OW35809   1.484   0.221   1.717
 8052SOL    HW135810   1.537   0.292   1.764
 8052SOL    HW235811   1.402   0.200   1.770
 8053SOL     OW35812   7.940   2.918   5.036
 8053SOL    HW135813   7.893   2.844   4.987
 8053SOL    HW235814   7.876   2.962   5.099
 8054SOL     OW35815   0.497   4.155   0.684
 8054SOL    HW135816   0.580   4.100   0.689
 8054SOL    HW235817   0.507   4.223   0.612
 8055SOL     OW35818   8.149   5.660   1.961
 8055SOL    HW135819   8.225   5.721   1.939
 8055SOL    HW235820   8.171   5.567   1.932
 8056SOL     OW35821   8.701   4.685   0.343
 8056SOL    HW135822   8.684   4.610   0.406
 8056SOL    HW235823   8.739   4.650   0.258
 8057SOL     OW35824   5.694   1.427   7.636
 8057SOL    HW135825   5.691   1.526   7.646
 8057SOL    HW235826   5.715   1.404   7.541
 8058SOL     OW35827   6.745   2.681   4.301
 8058SOL    HW135828   6.833   2.663   4.258
 8058SOL    HW235829   6.683   2.723   4.234
 8059SOL     OW35830   7.679   6.307   3.822
 8059SOL    HW135831   7.718   6.216   3.810
 8059SOL    HW235832   7.674   6.329   3.920
 8060SOL     OW35833   8.671   8.589   4.466
 8060SOL    HW135834   8.685   8.491   4.477
 8060SOL    HW235835   8.574   8.610   4.476
 8061SOL     OW35836   2.451   7.102   0.835
 8061SOL    HW135837   2.517   7.042   0.880
 8061SOL    HW235838   2.458   7.194   0.873
 8062SOL     OW35839   3.003   4.930   7.033
 8062SOL    HW135840   2.939   4.861   7.067
 8062SOL    HW235841   3.039   4.901   6.944
 8063SOL     OW35842   4.765   1.982   5.331
 8063SOL    HW135843   4.842   2.032   5.292
 8063SOL    HW235844   4.756   2.006   5.428
 8064SOL     OW35845   3.145   4.902   7.385
 8064SOL    HW135846   3.237   4.935   7.407
 8064SOL    HW235847   3.149   4.847   7.301
 8065SOL     OW35848   8.234   4.312   0.633
 8065SOL    HW135849   8.211   4.262   0.550
 8065SOL    HW235850   8.259   4.247   0.705
 8066SOL     OW35851   9.076   1.075   5.244
 8066SOL    HW135852   9.037   1.070   5.152
 8066SOL    HW235853   9.164   1.028   5.245
 8067SOL     OW35854   3.834   0.458   0.431
 8067SOL    HW135855   3.752   0.483   0.379
 8067SOL    HW235856   3.915   0.498   0.387
 8068SOL     OW35857   5.443   8.315   4.517
 8068SOL    HW135858   5.538   8.344   4.530
 8068SOL    HW235859   5.439   8.216   4.507
 8069SOL     OW35860   3.333   8.851   0.873
 8069SOL    HW135861   3.307   8.756   0.892
 8069SOL    HW235862   3.322   8.906   0.956
 8070SOL     OW35863   9.468   3.983   6.648
 8070SOL    HW135864   9.520   4.008   6.567
 8070SOL    HW235865   9.518   4.010   6.730
 8071SOL     OW35866   2.971   7.383   4.183
 8071SOL    HW135867   3.011   7.409   4.271
 8071SOL    HW235868   2.942   7.465   4.134
 8072SOL     OW35869   3.954   8.243   2.016
 8072SOL    HW135870   3.877   8.193   2.055
 8072SOL    HW235871   3.930   8.339   2.006
 8073SOL     OW35872   3.153   5.288   3.472
 8073SOL    HW135873   3.222   5.291   3.400
 8073SOL    HW235874   3.082   5.221   3.449
 8074SOL     OW35875   8.727   6.058   6.558
 8074SOL    HW135876   8.766   6.035   6.647
 8074SOL    HW235877   8.661   5.988   6.532
 8075SOL     OW35878   1.440   5.518   1.421
 8075SOL    HW135879   1.360   5.571   1.449
 8075SOL    HW235880   1.484   5.479   1.501
 8076SOL     OW35881   4.875   5.259   2.275
 8076SOL    HW135882   4.902   5.227   2.366
 8076SOL    HW235883   4.822   5.188   2.229
 8077SOL     OW35884   7.247   1.209   1.105
 8077SOL    HW135885   7.237   1.278   1.033
 8077SOL    HW235886   7.165   1.152   1.107
 8078SOL     OW35887   2.811   8.151   0.953
 8078SOL    HW135888   2.810   8.102   1.040
 8078SOL    HW235889   2.818   8.249   0.971
 8079SOL     OW35890   1.444   0.949   3.501
 8079SOL    HW135891   1.349   0.960   3.472
 8079SOL    HW235892   1.447   0.896   3.586
 8080SOL     OW35893   2.570   5.718   3.596
 8080SOL    HW135894   2.600   5.624   3.580
 8080SOL    HW235895   2.470   5.719   3.601
 8081SOL     OW35896   7.139   8.412   2.479
 8081SOL    HW135897   7.085   8.444   2.401
 8081SOL    HW235898   7.232   8.449   2.473
 8082SOL     OW35899   1.552   9.892   4.011
 8082SOL    HW135900   1.612   9.812   4.018
 8082SOL    HW235901   1.522   9.903   3.916
 8083SOL     OW35902   8.938   9.564   5.864
 8083SOL    HW135903   9.023   9.512   5.854
 8083SOL    HW235904   8.870   9.528   5.801
 8084SOL     OW35905   1.480   8.668   0.452
 8084SOL    HW135906   1.572   8.688   0.417
 8084SOL    HW235907   1.472   8.570   0.470
 8085SOL     OW35908   2.818   8.780   2.299
 8085SOL    HW135909   2.842   8.877   2.306
 8085SOL    HW235910   2.799   8.743   2.390
 8086SOL     OW35911   4.057   6.555   7.572
 8086SOL    HW135912   4.088   6.552   7.477
 8086SOL    HW235913   4.080   6.470   7.618
 8087SOL     OW35914   6.267   0.203   3.690
 8087SOL    HW135915   6.197   0.140   3.656
 8087SOL    HW235916   6.246   0.296   3.658
 8088SOL     OW35917   6.892   8.336   3.053
 8088SOL    HW135918   6.917   8.248   3.092
 8088SOL    HW235919   6.807   8.328   3.003
 8089SOL     OW35920   9.328   3.288   1.949
 8089SOL    HW135921   9.280   3.210   1.989
 8089SOL    HW235922   9.346   3.356   2.021
 8090SOL     OW35923   5.302   5.640   1.885
 8090SOL    HW135924   5.243   5.721   1.879
 8090SOL    HW235925   5.248   5.558   1.869
 8091SOL     OW35926   9.877   7.076   3.817
 8091SOL    HW135927   9.935   7.116   3.746
 8091SOL    HW235928   9.895   6.977   3.823
 8092SOL     OW35929   5.692   0.464   5.343
 8092SOL    HW135930   5.718   0.455   5.247
 8092SOL    HW235931   5.602   0.509   5.349
 8093SOL     OW35932   9.208   2.495   5.744
 8093SOL    HW135933   9.280   2.562   5.762
 8093SOL    HW235934   9.123   2.542   5.722
 8094SOL     OW35935   6.110   1.230   0.134
 8094SOL    HW135936   6.067   1.150   0.176
 8094SOL    HW235937   6.048   1.309   0.141
 8095SOL     OW35938   4.917   1.649   4.517
 8095SOL    HW135939   4.832   1.701   4.522
 8095SOL    HW235940   4.896   1.552   4.509
 8096SOL     OW35941   9.591   5.248   7.095
 8096SOL    HW135942   9.583   5.151   7.118
 8096SOL    HW235943   9.635   5.297   7.170
 8097SOL     OW35944   2.002   1.654   1.639
 8097SOL    HW135945   2.059   1.574   1.625
 8097SOL    HW235946   1.970   1.689   1.551
 8098SOL     OW35947   1.345   2.622   1.290
 8098SOL    HW135948   1.256   2.664   1.307
 8098SOL    HW235949   1.332   2.527   1.262
 8099SOL     OW35950   3.894   0.709   2.448
 8099SOL    HW135951   3.842   0.700   2.363
 8099SOL    HW235952   3.969   0.774   2.435
 8100SOL     OW35953   4.522   0.417   7.002
 8100SOL    HW135954   4.614   0.430   7.041
 8100SOL    HW235955   4.469   0.357   7.062
 8101SOL     OW35956   8.836   9.566   3.857
 8101SOL    HW135957   8.861   9.640   3.918
 8101SOL    HW235958   8.783   9.498   3.907
 8102SOL     OW35959   8.846   3.290   0.412
 8102SOL    HW135960   8.851   3.291   0.312
 8102SOL    HW235961   8.915   3.354   0.449
 8103SOL     OW35962   4.385   8.919   7.553
 8103SOL    HW135963   4.423   8.959   7.636
 8103SOL    HW235964   4.307   8.974   7.523
 8104SOL     OW35965   3.293   8.866   6.550
 8104SOL    HW135966   3.283   8.773   6.585
 8104SOL    HW235967   3.218   8.923   6.583
 8105SOL     OW35968   0.458   5.303   3.275
 8105SOL    HW135969   0.493   5.210   3.290
 8105SOL    HW235970   0.456   5.352   3.362
 8106SOL     OW35971   6.104   0.652   6.976
 8106SOL    HW135972   6.067   0.571   7.022
 8106SOL    HW235973   6.145   0.625   6.889
 8107SOL     OW35974   9.581   5.540   4.953
 8107SOL    HW135975   9.483   5.550   4.934
 8107SOL    HW235976   9.594   5.465   5.018
 8108SOL     OW35977   2.369   0.131   3.426
 8108SOL    HW135978   2.411   0.147   3.516
 8108SOL    HW235979   2.407   0.195   3.360
 8109SOL     OW35980   2.737   7.061   2.969
 8109SOL    HW135981   2.745   6.970   2.927
 8109SOL    HW235982   2.778   7.059   3.060
 8110SOL     OW35983   7.105   5.823   2.878
 8110SOL    HW135984   7.088   5.748   2.814
 8110SOL    HW235985   7.114   5.786   2.970
 8111SOL     OW35986   3.527   7.291   3.314
 8111SOL    HW135987   3.553   7.212   3.258
 8111SOL    HW235988   3.593   7.301   3.389
 8112SOL     OW35989   0.867   8.109   7.696
 8112SOL    HW135990   0.889   8.055   7.614
 8112SOL    HW235991   0.795   8.175   7.674
 8113SOL     OW35992   0.307   2.302   6.052
 8113SOL    HW135993   0.265   2.314   6.142
 8113SOL    HW235994   0.377   2.231   6.058
 8114SOL     OW35995   2.470   8.316   6.444
 8114SOL    HW135996   2.499   8.329   6.349
 8114SOL    HW235997   2.423   8.228   6.452
 8115SOL     OW35998   8.105   4.874   6.190
 8115SOL    HW135999   8.038   4.819   6.239
 8115SOL    HW236000   8.143   4.944   6.251
 8116SOL     OW36001   0.473   8.328   5.279
 8116SOL    HW136002   0.565   8.320   5.316
 8116SOL    HW236003   0.408   8.341   5.353
 8117SOL     OW36004   2.051   8.341   3.471
 8117SOL    HW136005   2.049   8.384   3.561
 8117SOL    HW236006   1.974   8.373   3.416
 8118SOL     OW36007   1.266   4.005   4.287
 8118SOL    HW136008   1.212   3.998   4.371
 8118SOL    HW236009   1.268   4.100   4.256
 8119SOL     OW36010   8.218   5.984   1.764
 8119SOL    HW136011   8.140   5.925   1.744
 8119SOL    HW236012   8.290   5.931   1.808
 8120SOL     OW36013   9.554   4.979   0.621
 8120SOL    HW136014   9.545   5.015   0.528
 8120SOL    HW236015   9.554   4.879   0.619
 8121SOL     OW36016   2.717   9.640   5.062
 8121SOL    HW136017   2.784   9.620   4.991
 8121SOL    HW236018   2.705   9.559   5.119
 8122SOL     OW36019   5.051   1.639   6.793
 8122SOL    HW136020   5.151   1.638   6.793
 8122SOL    HW236021   5.019   1.704   6.863
 8123SOL     OW36022   4.107   0.446   2.027
 8123SOL    HW136023   4.017   0.402   2.021
 8123SOL    HW236024   4.100   0.529   2.082
 8124SOL     OW36025   4.351   2.177   5.098
 8124SOL    HW136026   4.427   2.157   5.159
 8124SOL    HW236027   4.265   2.173   5.149
 8125SOL     OW36028   3.824   4.415   6.284
 8125SOL    HW136029   3.767   4.471   6.224
 8125SOL    HW236030   3.776   4.331   6.307
 8126SOL     OW36031   8.643   3.973   0.726
 8126SOL    HW136032   8.670   3.904   0.792
 8126SOL    HW236033   8.641   4.063   0.770
 8127SOL     OW36034   2.032   1.199   6.291
 8127SOL    HW136035   1.940   1.234   6.275
 8127SOL    HW236036   2.069   1.161   6.207
 8128SOL     OW36037   9.895   3.390   0.820
 8128SOL    HW136038   9.808   3.435   0.839
 8128SOL    HW236039   9.878   3.294   0.798
 8129SOL     OW36040   3.660   4.384   2.854
 8129SOL    HW136041   3.673   4.397   2.756
 8129SOL    HW236042   3.715   4.451   2.904
 8130SOL     OW36043   2.678   7.183   5.782
 8130SOL    HW136044   2.612   7.203   5.854
 8130SOL    HW236045   2.698   7.085   5.781
 8131SOL     OW36046   2.571   9.940   0.960
 8131SOL    HW136047   2.546   0.030   0.995
 8131SOL    HW236048   2.491   9.898   0.917
 8132SOL     OW36049   7.933   4.885   2.407
 8132SOL    HW136050   8.008   4.839   2.359
 8132SOL    HW236051   7.963   4.911   2.499
 8133SOL     OW36052   2.257   2.860   3.750
 8133SOL    HW136053   2.259   2.917   3.668
 8133SOL    HW236054   2.240   2.765   3.724
 8134SOL     OW36055   2.041   5.820   3.764
 8134SOL    HW136056   2.067   5.905   3.718
 8134SOL    HW236057   2.016   5.840   3.858
 8135SOL     OW36058   0.504   2.726   6.215
 8135SOL    HW136059   0.536   2.673   6.294
 8135SOL    HW236060   0.537   2.685   6.131
 8136SOL     OW36061   9.653   6.270   4.783
 8136SOL    HW136062   9.602   6.343   4.737
 8136SOL    HW236063   9.622   6.263   4.878
 8137SOL     OW36064   9.738   7.011   0.258
 8137SOL    HW136065   9.795   6.934   0.287
 8137SOL    HW236066   9.764   7.093   0.310
 8138SOL     OW36067   5.127   0.120   7.210
 8138SOL    HW136068   5.059   0.047   7.199
 8138SOL    HW236069   5.170   0.139   7.122
 8139SOL     OW36070   9.400   8.078   4.547
 8139SOL    HW136071   9.481   8.111   4.499
 8139SOL    HW236072   9.426   8.053   4.641
 8140SOL     OW36073   4.754   1.895   7.823
 8140SOL    HW136074   4.778   1.805   7.859
 8140SOL    HW236075   4.670   1.890   7.771
 8141SOL     OW36076   3.514   3.364   5.486
 8141SOL    HW136077   3.469   3.278   5.466
 8141SOL    HW236078   3.478   3.436   5.426
 8142SOL     OW36079   5.710   1.043   0.571
 8142SOL    HW136080   5.695   1.114   0.639
 8142SOL    HW236081   5.778   0.978   0.604
 8143SOL     OW36082   6.785   3.988   7.839
 8143SOL    HW136083   6.796   3.967   7.936
 8143SOL    HW236084   6.860   4.047   7.809
 8144SOL     OW36085   9.959   2.802   1.742
 8144SOL    HW136086   9.894   2.730   1.715
 8144SOL    HW236087   0.040   2.797   1.684
 8145SOL     OW36088   0.251   3.144   0.050
 8145SOL    HW136089   0.255   3.184  10.040
 8145SOL    HW236090   0.187   3.195   0.107
 8146SOL     OW36091   3.037   4.076   6.166
 8146SOL    HW136092   3.006   4.076   6.071
 8146SOL    HW236093   3.098   3.998   6.181
 8147SOL     OW36094   1.285   2.850   6.072
 8147SOL    HW136095   1.367   2.857   6.129
 8147SOL    HW236096   1.310   2.865   5.976
 8148SOL     OW36097   1.685   0.249   0.722
 8148SOL    HW136098   1.690   0.152   0.747
 8148SOL    HW236099   1.745   0.302   0.781
 8149SOL     OW36100   0.366   2.863   1.896
 8149SOL    HW136101   0.341   2.948   1.849
 8149SOL    HW236102   0.438   2.882   1.963
 8150SOL     OW36103   0.783   5.886   7.511
 8150SOL    HW136104   0.712   5.946   7.547
 8150SOL    HW236105   0.832   5.933   7.438
 8151SOL     OW36106   2.714   6.100   6.620
 8151SOL    HW136107   2.652   6.032   6.581
 8151SOL    HW236108   2.663   6.161   6.681
 8152SOL     OW36109   8.267   3.779   6.281
 8152SOL    HW136110   8.314   3.747   6.363
 8152SOL    HW236111   8.257   3.879   6.286
 8153SOL     OW36112   1.097   7.742   1.456
 8153SOL    HW136113   1.014   7.707   1.498
 8153SOL    HW236114   1.128   7.678   1.385
 8154SOL     OW36115   6.485   2.656   1.967
 8154SOL    HW136116   6.487   2.627   1.871
 8154SOL    HW236117   6.494   2.576   2.026
 8155SOL     OW36118   3.855   2.446   3.745
 8155SOL    HW136119   3.759   2.450   3.716
 8155SOL    HW236120   3.878   2.352   3.772
 8156SOL     OW36121   4.150   0.687   7.564
 8156SOL    HW136122   4.089   0.613   7.538
 8156SOL    HW236123   4.120   0.772   7.522
 8157SOL     OW36124   8.529   5.257   3.120
 8157SOL    HW136125   8.443   5.205   3.129
 8157SOL    HW236126   8.511   5.342   3.071
 8158SOL     OW36127   8.246   2.717   4.530
 8158SOL    HW136128   8.194   2.801   4.539
 8158SOL    HW236129   8.217   2.651   4.600
 8159SOL     OW36130   0.692   8.325   7.654
 8159SOL    HW136131   0.604   8.334   7.700
 8159SOL    HW236132   0.752   8.400   7.680
 8160SOL     OW36133   1.355   3.899   7.072
 8160SOL    HW136134   1.361   3.896   6.972
 8160SOL    HW236135   1.436   3.944   7.109
 8161SOL     OW36136   1.859   9.619   3.460
 8161SOL    HW136137   1.909   9.670   3.391
 8161SOL    HW236138   1.914   9.613   3.544
 8162SOL     OW36139   1.928   7.113   7.115
 8162SOL    HW136140   1.921   7.153   7.023
 8162SOL    HW236141   1.886   7.175   7.181
 8163SOL     OW36142   1.889   4.622   1.544
 8163SOL    HW136143   1.908   4.601   1.640
 8163SOL    HW236144   1.823   4.697   1.540
 8164SOL     OW36145   3.220   6.566   0.106
 8164SOL    HW136146   3.179   6.657   0.099
 8164SOL    HW236147   3.315   6.575   0.136
 8165SOL     OW36148   2.390   6.254   7.563
 8165SOL    HW136149   2.330   6.273   7.486
 8165SOL    HW236150   2.470   6.315   7.560
 8166SOL     OW36151   1.975   2.090   1.758
 8166SOL    HW136152   1.963   2.047   1.847
 8166SOL    HW236153   2.063   2.062   1.719
 8167SOL     OW36154   5.184   8.979   1.040
 8167SOL    HW136155   5.110   8.965   1.105
 8167SOL    HW236156   5.255   8.910   1.053
 8168SOL     OW36157   1.772   8.217   6.671
 8168SOL    HW136158   1.823   8.131   6.663
 8168SOL    HW236159   1.818   8.277   6.736
 8169SOL     OW36160   4.702   0.436   1.247
 8169SOL    HW136161   4.626   0.457   1.308
 8169SOL    HW236162   4.752   0.357   1.281
 8170SOL     OW36163   1.117   4.916   1.781
 8170SOL    HW136164   1.186   4.988   1.792
 8170SOL    HW236165   1.066   4.932   1.696
 8171SOL     OW36166   9.721   4.448   7.015
 8171SOL    HW136167   9.726   4.530   7.071
 8171SOL    HW236168   9.796   4.386   7.040
 8172SOL     OW36169   0.075   5.861   0.430
 8172SOL    HW136170   0.131   5.793   0.478
 8172SOL    HW236171   0.079   5.948   0.478
 8173SOL     OW36172   3.120   3.584   0.789
 8173SOL    HW136173   3.060   3.527   0.732
 8173SOL    HW236174   3.066   3.625   0.863
 8174SOL     OW36175   3.061   6.438   1.947
 8174SOL    HW136176   2.965   6.454   1.923
 8174SOL    HW236177   3.074   6.342   1.973
 8175SOL     OW36178   6.408   1.149   6.167
 8175SOL    HW136179   6.319   1.117   6.201
 8175SOL    HW236180   6.394   1.205   6.085
 8176SOL     OW36181   0.970   1.368   2.911
 8176SOL    HW136182   0.951   1.302   2.984
 8176SOL    HW236183   0.981   1.459   2.951
 8177SOL     OW36184   4.715   0.744   3.731
 8177SOL    HW136185   4.734   0.657   3.775
 8177SOL    HW236186   4.792   0.806   3.746
 8178SOL     OW36187   2.253   5.929   6.503
 8178SOL    HW136188   2.197   5.868   6.558
 8178SOL    HW236189   2.285   5.882   6.421
 8179SOL     OW36190   2.540   4.886   6.807
 8179SOL    HW136191   2.561   4.961   6.745
 8179SOL    HW236192   2.549   4.917   6.901
 8180SOL     OW36193   6.025   8.651   2.729
 8180SOL    HW136194   6.115   8.627   2.692
 8180SOL    HW236195   6.027   8.745   2.764
 8181SOL     OW36196   4.038   1.001   0.361
 8181SOL    HW136197   4.074   1.063   0.431
 8181SOL    HW236198   4.000   1.054   0.285
 8182SOL     OW36199   3.494   0.124   6.195
 8182SOL    HW136200   3.428   0.160   6.128
 8182SOL    HW236201   3.582   0.108   6.150
 8183SOL     OW36202   2.456   9.185   7.142
 8183SOL    HW136203   2.503   9.100   7.121
 8183SOL    HW236204   2.396   9.210   7.066
 8184SOL     OW36205   0.819   5.970   0.432
 8184SOL    HW136206   0.864   6.039   0.375
 8184SOL    HW236207   0.788   6.011   0.517
 8185SOL     OW36208   3.726   7.540   1.711
 8185SOL    HW136209   3.674   7.593   1.645
 8185SOL    HW236210   3.709   7.577   1.803
 8186SOL     OW36211   8.144   0.029   4.867
 8186SOL    HW136212   8.174   9.952   4.811
 8186SOL    HW236213   8.049   0.052   4.845
 8187SOL     OW36214   7.246   2.163   5.033
 8187SOL    HW136215   7.230   2.250   4.985
 8187SOL    HW236216   7.163   2.136   5.082
 8188SOL     OW36217   9.600   1.987   2.695
 8188SOL    HW136218   9.662   2.065   2.685
 8188SOL    HW236219   9.617   1.943   2.783
 8189SOL     OW36220   0.887   0.285   3.856
 8189SOL    HW136221   0.977   0.257   3.824
 8189SOL    HW236222   0.822   0.283   3.780
 8190SOL     OW36223   4.515   4.580   7.854
 8190SOL    HW136224   4.497   4.665   7.805
 8190SOL    HW236225   4.614   4.565   7.859
 8191SOL     OW36226   9.238   3.302   6.798
 8191SOL    HW136227   9.197   3.231   6.741
 8191SOL    HW236228   9.238   3.273   6.893
 8192SOL     OW36229   4.559   4.877   5.246
 8192SOL    HW136230   4.514   4.815   5.182
 8192SOL    HW236231   4.608   4.823   5.314
 8193SOL     OW36232   2.383   2.086   4.025
 8193SOL    HW136233   2.458   2.056   3.966
 8193SOL    HW236234   2.312   2.130   3.970
 8194SOL     OW36235   1.355   7.385   3.411
 8194SOL    HW136236   1.439   7.378   3.357
 8194SOL    HW236237   1.312   7.474   3.396
 8195SOL     OW36238   4.516   0.642   4.250
 8195SOL    HW136239   4.541   0.572   4.316
 8195SOL    HW236240   4.486   0.599   4.164
 8196SOL     OW36241   0.483   5.073   7.826
 8196SOL    HW136242   0.553   5.135   7.862
 8196SOL    HW236243   0.399   5.123   7.807
 8197SOL     OW36244   9.104   2.968   7.529
 8197SOL    HW136245   9.181   2.904   7.536
 8197SOL    HW236246   9.134   3.053   7.487
 8198SOL     OW36247   0.066   2.267   5.152
 8198SOL    HW136248   0.095   2.357   5.183
 8198SOL    HW236249   9.969   2.270   5.127
 8199SOL     OW36250   3.715   5.470   7.661
 8199SOL    HW136251   3.635   5.484   7.602
 8199SOL    HW236252   3.797   5.467   7.604
 8200SOL     OW36253   1.102   8.602   5.648
 8200SOL    HW136254   1.196   8.630   5.668
 8200SOL    HW236255   1.103   8.524   5.585
 8201SOL     OW36256   2.094   5.516   2.526
 8201SOL    HW136257   2.018   5.558   2.574
 8201SOL    HW236258   2.142   5.454   2.588
 8202SOL     OW36259   1.681   1.214   2.798
 8202SOL    HW136260   1.659   1.296   2.745
 8202SOL    HW236261   1.596   1.167   2.823
 8203SOL     OW36262   1.564   4.986   7.350
 8203SOL    HW136263   1.572   4.971   7.449
 8203SOL    HW236264   1.651   5.021   7.314
 8204SOL     OW36265   0.862   3.484   3.107
 8204SOL    HW136266   0.789   3.441   3.161
 8204SOL    HW236267   0.863   3.582   3.125
 8205SOL     OW36268   1.235   8.478   2.414
 8205SOL    HW136269   1.203   8.441   2.327
 8205SOL    HW236270   1.156   8.511   2.466
 8206SOL     OW36271   0.100   1.496   3.363
 8206SOL    HW136272   0.199   1.482   3.354
 8206SOL    HW236273   0.079   1.523   3.457
 8207SOL     OW36274   2.297   6.666   1.276
 8207SOL    HW136275   2.264   6.760   1.280
 8207SOL    HW236276   2.237   6.612   1.217
 8208SOL     OW36277   4.234   2.259   6.761
 8208SOL    HW136278   4.191   2.220   6.680
 8208SOL    HW236279   4.236   2.359   6.754
 8209SOL     OW36280   9.623   9.922   0.400
 8209SOL    HW136281   9.665   0.011   0.382
 8209SOL    HW236282   9.691   9.860   0.438
 8210SOL     OW36283   2.556   1.185   0.609
 8210SOL    HW136284   2.463   1.217   0.593
 8210SOL    HW236285   2.621   1.246   0.562
 8211SOL     OW36286   0.847   3.206   7.209
 8211SOL    HW136287   0.888   3.297   7.207
 8211SOL    HW236288   0.865   3.159   7.123
 8212SOL     OW36289   3.401   2.825   2.474
 8212SOL    HW136290   3.350   2.879   2.541
 8212SOL    HW236291   3.368   2.847   2.382
 8213SOL     OW36292   0.992   8.854   5.594
 8213SOL    HW136293   1.028   8.763   5.615
 8213SOL    HW236294   0.923   8.846   5.522
 8214SOL     OW36295   4.856   9.472   6.122
 8214SOL    HW136296   4.942   9.522   6.117
 8214SOL    HW236297   4.818   9.461   6.030
 8215SOL     OW36298   3.612   4.779   5.010
 8215SOL    HW136299   3.669   4.762   4.930
 8215SOL    HW236300   3.556   4.699   5.030
 8216SOL     OW36301   0.986   6.654   6.487
 8216SOL    HW136302   0.898   6.609   6.503
 8216SOL    HW236303   1.005   6.656   6.389
 8217SOL     OW36304   0.894   1.654   3.943
 8217SOL    HW136305   0.971   1.716   3.931
 8217SOL    HW236306   0.811   1.697   3.907
 8218SOL     OW36307   9.231   7.066   4.348
 8218SOL    HW136308   9.218   7.145   4.409
 8218SOL    HW236309   9.171   7.076   4.269
 8219SOL     OW36310   0.193   3.624   2.198
 8219SOL    HW136311   0.121   3.678   2.154
 8219SOL    HW236312   0.278   3.678   2.200
 8220SOL     OW36313   8.179   0.413   0.374
 8220SOL    HW136314   8.104   0.455   0.324
 8220SOL    HW236315   8.247   0.378   0.310
 8221SOL     OW36316   2.232   9.823   2.504
 8221SOL    HW136317   2.283   9.739   2.522
 8221SOL    HW236318   2.148   9.800   2.454
 8222SOL     OW36319   9.755   5.375   3.731
 8222SOL    HW136320   9.835   5.427   3.759
 8222SOL    HW236321   9.743   5.297   3.793
 8223SOL     OW36322   8.580   9.415   3.687
 8223SOL    HW136323   8.610   9.390   3.779
 8223SOL    HW236324   8.587   9.514   3.675
 8224SOL     OW36325   9.202   3.900   4.574
 8224SOL    HW136326   9.138   3.971   4.546
 8224SOL    HW236327   9.245   3.924   4.661
 8225SOL     OW36328   2.692   2.207   5.615
 8225SOL    HW136329   2.613   2.256   5.575
 8225SOL    HW236330   2.663   2.116   5.644
 8226SOL     OW36331   1.429   7.614   5.458
 8226SOL    HW136332   1.423   7.670   5.375
 8226SOL    HW236333   1.492   7.658   5.522
 8227SOL     OW36334   8.747   3.751   1.816
 8227SOL    HW136335   8.774   3.667   1.769
 8227SOL    HW236336   8.748   3.735   1.915
 8228SOL     OW36337   4.508   8.938   4.194
 8228SOL    HW136338   4.544   8.844   4.190
 8228SOL    HW236339   4.440   8.950   4.122
 8229SOL     OW36340   9.113   1.441   3.597
 8229SOL    HW136341   9.169   1.382   3.656
 8229SOL    HW236342   9.086   1.390   3.515
 8230SOL     OW36343   1.894   1.551   7.627
 8230SOL    HW136344   1.909   1.457   7.596
 8230SOL    HW236345   1.847   1.551   7.715
 8231SOL     OW36346   4.725   1.730   0.795
 8231SOL    HW136347   4.667   1.735   0.877
 8231SOL    HW236348   4.684   1.667   0.729
 8232SOL     OW36349   1.229   9.930   0.931
 8232SOL    HW136350   1.250   9.936   1.028
 8232SOL    HW236351   1.227   0.022   0.891
 8233SOL     OW36352   1.463   1.752   2.271
 8233SOL    HW136353   1.408   1.835   2.272
 8233SOL    HW236354   1.485   1.727   2.176
 8234SOL     OW36355   0.128   8.382   3.831
 8234SOL    HW136356   0.076   8.411   3.912
 8234SOL    HW236357   0.114   8.448   3.757
 8235SOL     OW36358   3.197   5.854   4.382
 8235SOL    HW136359   3.271   5.879   4.444
 8235SOL    HW236360   3.230   5.859   4.287
 8236SOL     OW36361   4.403   0.847   0.607
 8236SOL    HW136362   4.404   0.939   0.647
 8236SOL    HW236363   4.377   0.781   0.677
 8237SOL     OW36364   7.379   1.352   2.141
 8237SOL    HW136365   7.452   1.419   2.133
 8237SOL    HW236366   7.417   1.260   2.129
 8238SOL     OW36367   6.546   0.789   6.521
 8238SOL    HW136368   6.515   0.773   6.427
 8238SOL    HW236369   6.487   0.859   6.563
 8239SOL     OW36370   6.965   2.269   1.298
 8239SOL    HW136371   6.985   2.187   1.351
 8239SOL    HW236372   6.884   2.254   1.241
 8240SOL     OW36373   9.052   7.493   6.675
 8240SOL    HW136374   9.128   7.440   6.713
 8240SOL    HW236375   9.049   7.583   6.718
 8241SOL     OW36376   9.216   9.781   0.486
 8241SOL    HW136377   9.263   9.708   0.535
 8241SOL    HW236378   9.226   9.867   0.537
 8242SOL     OW36379   6.230   1.971   5.172
 8242SOL    HW136380   6.217   1.903   5.100
 8242SOL    HW236381   6.143   1.984   5.221
 8243SOL     OW36382   2.637   0.552   0.266
 8243SOL    HW136383   2.703   0.517   0.199
 8243SOL    HW236384   2.657   0.514   0.356
 8244SOL     OW36385   8.372   8.938   1.782
 8244SOL    HW136386   8.287   8.989   1.768
 8244SOL    HW236387   8.448   8.991   1.742
 8245SOL     OW36388   0.202   7.927   0.595
 8245SOL    HW136389   0.142   7.954   0.520
 8245SOL    HW236390   0.289   7.976   0.587
 8246SOL     OW36391   1.974   5.425   1.265
 8246SOL    HW136392   2.064   5.418   1.308
 8246SOL    HW236393   1.929   5.509   1.295
 8247SOL     OW36394   8.117   2.844   4.812
 8247SOL    HW136395   8.116   2.749   4.783
 8247SOL    HW236396   8.043   2.859   4.878
 8248SOL     OW36397   1.756   2.391   3.100
 8248SOL    HW136398   1.845   2.354   3.077
 8248SOL    HW236399   1.767   2.468   3.164
 8249SOL     OW36400   8.149   6.760   5.691
 8249SOL    HW136401   8.168   6.815   5.772
 8249SOL    HW236402   8.122   6.668   5.720
 8250SOL     OW36403   4.898   5.303   1.497
 8250SOL    HW136404   4.835   5.262   1.563
 8250SOL    HW236405   4.945   5.381   1.539
 8251SOL     OW36406   3.935   8.956   4.158
 8251SOL    HW136407   3.917   8.890   4.086
 8251SOL    HW236408   3.998   9.026   4.124
 8252SOL     OW36409   6.110   1.419   4.462
 8252SOL    HW136410   6.143   1.358   4.390
 8252SOL    HW236411   6.107   1.513   4.428
 8253SOL     OW36412   0.779   9.767   3.998
 8253SOL    HW136413   0.768   9.765   4.098
 8253SOL    HW236414   0.811   9.857   3.970
 8254SOL     OW36415   2.132   9.935   2.740
 8254SOL    HW136416   2.033   9.934   2.724
 8254SOL    HW236417   2.179   9.900   2.659
 8255SOL     OW36418   2.585   6.432   4.123
 8255SOL    HW136419   2.661   6.481   4.081
 8255SOL    HW236420   2.614   6.341   4.150
 8256SOL     OW36421   6.479   0.141   1.637
 8256SOL    HW136422   6.437   0.214   1.583
 8256SOL    HW236423   6.544   0.091   1.580
 8257SOL     OW36424   3.001   9.683   2.384
 8257SOL    HW136425   2.915   9.715   2.425
 8257SOL    HW236426   2.993   9.686   2.285
 8258SOL     OW36427   8.499   8.351   4.827
 8258SOL    HW136428   8.592   8.339   4.792
 8258SOL    HW236429   8.444   8.399   4.758
 8259SOL     OW36430   2.712   1.863   6.697
 8259SOL    HW136431   2.807   1.866   6.667
 8259SOL    HW236432   2.670   1.953   6.684
 8260SOL     OW36433   7.993   3.224   3.225
 8260SOL    HW136434   7.953   3.265   3.143
 8260SOL    HW236435   8.043   3.142   3.199
 8261SOL     OW36436   9.676   3.743   3.371
 8261SOL    HW136437   9.579   3.740   3.394
 8261SOL    HW236438   9.692   3.697   3.284
 8262SOL     OW36439   8.601   8.830   1.175
 8262SOL    HW136440   8.579   8.800   1.268
 8262SOL    HW236441   8.560   8.767   1.109
 8263SOL     OW36442   9.702   3.354   2.399
 8263SOL    HW136443   9.697   3.302   2.485
 8263SOL    HW236444   9.637   3.316   2.334
 8264SOL     OW36445   9.939   1.471   4.545
 8264SOL    HW136446   9.857   1.421   4.574
 8264SOL    HW236447   9.911   1.551   4.491
 8265SOL     OW36448   0.107   9.154   3.496
 8265SOL    HW136449   0.167   9.234   3.505
 8265SOL    HW236450   0.144   9.079   3.550
 8266SOL     OW36451   0.541   5.849   3.448
 8266SOL    HW136452   0.598   5.821   3.371
 8266SOL    HW236453   0.453   5.802   3.444
 8267SOL     OW36454   2.534   6.781   7.788
 8267SOL    HW136455   2.500   6.872   7.813
 8267SOL    HW236456   2.634   6.780   7.798
 8268SOL     OW36457   4.511   1.375   7.030
 8268SOL    HW136458   4.465   1.374   6.942
 8268SOL    HW236459   4.537   1.469   7.053
 8269SOL     OW36460   0.956   4.290   2.591
 8269SOL    HW136461   0.965   4.390   2.593
 8269SOL    HW236462   0.955   4.258   2.497
 8270SOL     OW36463   5.974   0.065   7.742
 8270SOL    HW136464   5.885   0.103   7.717
 8270SOL    HW236465   5.998   9.992   7.677
 8271SOL     OW36466   0.115   3.224   5.593
 8271SOL    HW136467   0.051   3.277   5.649
 8271SOL    HW236468   0.110   3.254   5.498
 8272SOL     OW36469   7.445   0.772   3.811
 8272SOL    HW136470   7.482   0.794   3.901
 8272SOL    HW236471   7.474   0.679   3.786
 8273SOL     OW36472   8.613   4.450   3.384
 8273SOL    HW136473   8.616   4.547   3.362
 8273SOL    HW236474   8.650   4.435   3.476
 8274SOL     OW36475   8.187   6.077   1.237
 8274SOL    HW136476   8.225   6.169   1.233
 8274SOL    HW236477   8.157   6.049   1.146
 8275SOL     OW36478   0.512   1.173   5.104
 8275SOL    HW136479   0.588   1.203   5.161
 8275SOL    HW236480   0.426   1.203   5.145
 8276SOL     OW36481   2.425   0.779   0.629
 8276SOL    HW136482   2.507   0.834   0.609
 8276SOL    HW236483   2.434   0.740   0.721
 8277SOL     OW36484   4.488   0.931   5.708
 8277SOL    HW136485   4.472   0.855   5.645
 8277SOL    HW236486   4.414   0.935   5.775
 8278SOL     OW36487   8.844   2.472   6.422
 8278SOL    HW136488   8.927   2.443   6.470
 8278SOL    HW236489   8.869   2.534   6.348
 8279SOL     OW36490   0.792   9.133   3.039
 8279SOL    HW136491   0.775   9.037   3.017
 8279SOL    HW236492   0.857   9.140   3.114
 8280SOL     OW36493   1.364   3.747   2.608
 8280SOL    HW136494   1.346   3.658   2.565
 8280SOL    HW236495   1.405   3.732   2.699
 8281SOL     OW36496   4.120   2.785   0.431
 8281SOL    HW136497   4.215   2.800   0.403
 8281SOL    HW236498   4.061   2.792   0.351
 8282SOL     OW36499   1.577   1.299   5.734
 8282SOL    HW136500   1.519   1.343   5.666
 8282SOL    HW236501   1.605   1.366   5.803
 8283SOL     OW36502   1.613   7.771   5.611
 8283SOL    HW136503   1.700   7.766   5.660
 8283SOL    HW236504   1.629   7.810   5.520
 8284SOL     OW36505   1.837   1.077   0.275
 8284SOL    HW136506   1.886   1.103   0.358
 8284SOL    HW236507   1.871   1.132   0.198
 8285SOL     OW36508   0.950   9.462   1.418
 8285SOL    HW136509   0.883   9.398   1.380
 8285SOL    HW236510   0.909   9.509   1.497
 8286SOL     OW36511   5.608   2.323   4.758
 8286SOL    HW136512   5.555   2.264   4.697
 8286SOL    HW236513   5.702   2.330   4.725
 8287SOL     OW36514   4.676   1.792   4.531
 8287SOL    HW136515   4.617   1.779   4.610
 8287SOL    HW236516   4.626   1.767   4.448
 8288SOL     OW36517   1.380   0.826   3.742
 8288SOL    HW136518   1.408   0.733   3.764
 8288SOL    HW236519   1.364   0.877   3.826
 8289SOL     OW36520   6.007   1.368   3.972
 8289SOL    HW136521   5.973   1.353   4.064
 8289SOL    HW236522   5.953   1.439   3.927
 8290SOL     OW36523   7.652   6.218   3.296
 8290SOL    HW136524   7.747   6.197   3.320
 8290SOL    HW236525   7.593   6.143   3.326
 8291SOL     OW36526   9.069   0.182   0.735
 8291SOL    HW136527   9.053   0.262   0.678
 8291SOL    HW236528   9.096   0.212   0.827
 8292SOL     OW36529   7.644   9.762   2.054
 8292SOL    HW136530   7.709   9.726   2.121
 8292SOL    HW236531   7.627   9.692   1.984
 8293SOL     OW36532   2.450   0.863   6.972
 8293SOL    HW136533   2.434   0.835   7.067
 8293SOL    HW236534   2.495   0.952   6.971
 8294SOL     OW36535   0.948   0.322   5.296
 8294SOL    HW136536   0.902   0.304   5.209
 8294SOL    HW236537   0.976   0.418   5.299
 8295SOL     OW36538   2.589   0.674   5.658
 8295SOL    HW136539   2.495   0.643   5.642
 8295SOL    HW236540   2.653   0.609   5.617
 8296SOL     OW36541   9.747   0.730   7.932
 8296SOL    HW136542   9.700   0.816   7.911
 8296SOL    HW236543   9.732   0.665   7.857
 8297SOL     OW36544   1.636   6.559   1.290
 8297SOL    HW136545   1.563   6.490   1.286
 8297SOL    HW236546   1.597   6.650   1.273
 8298SOL     OW36547   9.855   4.795   4.812
 8298SOL    HW136548   9.919   4.762   4.881
 8298SOL    HW236549   9.823   4.886   4.838
 8299SOL     OW36550   6.736   7.553   6.608
 8299SOL    HW136551   6.651   7.538   6.659
 8299SOL    HW236552   6.813   7.513   6.658
 8300SOL     OW36553   4.698   3.788   1.343
 8300SOL    HW136554   4.771   3.797   1.276
 8300SOL    HW236555   4.671   3.692   1.351
 8301SOL     OW36556   2.532   0.142   6.979
 8301SOL    HW136557   2.552   0.125   6.883
 8301SOL    HW236558   2.589   0.083   7.036
 8302SOL     OW36559   3.459   2.579   5.957
 8302SOL    HW136560   3.441   2.498   6.012
 8302SOL    HW236561   3.462   2.553   5.860
 8303SOL     OW36562   8.111   3.071   2.391
 8303SOL    HW136563   8.018   3.045   2.364
 8303SOL    HW236564   8.169   3.078   2.309
 8304SOL     OW36565   1.864   6.056   2.900
 8304SOL    HW136566   1.881   6.073   2.997
 8304SOL    HW236567   1.914   6.123   2.845
 8305SOL     OW36568   4.324   4.103   4.181
 8305SOL    HW136569   4.332   4.096   4.281
 8305SOL    HW236570   4.278   4.189   4.157
 8306SOL     OW36571   0.288   6.424   0.155
 8306SOL    HW136572   0.245   6.435   0.066
 8306SOL    HW236573   0.261   6.500   0.215
 8307SOL     OW36574   3.877   1.061   6.819
 8307SOL    HW136575   3.977   1.050   6.817
 8307SOL    HW236576   3.847   1.112   6.738
 8308SOL     OW36577   6.442   0.773   6.268
 8308SOL    HW136578   6.402   0.714   6.199
 8308SOL    HW236579   6.505   0.837   6.225
 8309SOL     OW36580   9.301   2.172   3.923
 8309SOL    HW136581   9.343   2.082   3.929
 8309SOL    HW236582   9.232   2.172   3.850
 8310SOL     OW36583   8.111   3.854   3.039
 8310SOL    HW136584   8.087   3.840   2.943
 8310SOL    HW236585   8.093   3.949   3.064
 8311SOL     OW36586   8.841   8.859   6.430
 8311SOL    HW136587   8.776   8.934   6.417
 8311SOL    HW236588   8.860   8.817   6.341
 8312SOL     OW36589   4.223   9.340   4.211
 8312SOL    HW136590   4.201   9.436   4.195
 8312SOL    HW236591   4.216   9.321   4.309
 8313SOL     OW36592   4.741   6.549   0.652
 8313SOL    HW136593   4.783   6.464   0.621
 8313SOL    HW236594   4.789   6.582   0.734
 8314SOL     OW36595   1.600   6.307   5.019
 8314SOL    HW136596   1.648   6.335   5.103
 8314SOL    HW236597   1.661   6.318   4.941
 8315SOL     OW36598   6.621   0.094   6.332
 8315SOL    HW136599   6.599   0.005   6.372
 8315SOL    HW236600   6.686   0.082   6.257
 8316SOL     OW36601   3.715   4.142   2.960
 8316SOL    HW136602   3.656   4.076   2.912
 8316SOL    HW236603   3.700   4.233   2.923
 8317SOL     OW36604   4.120   2.185   1.397
 8317SOL    HW136605   4.140   2.270   1.447
 8317SOL    HW236606   4.142   2.106   1.454
 8318SOL     OW36607   7.809   2.721   5.591
 8318SOL    HW136608   7.866   2.704   5.672
 8318SOL    HW236609   7.861   2.697   5.509
 8319SOL     OW36610   8.295   4.485   1.294
 8319SOL    HW136611   8.388   4.449   1.300
 8319SOL    HW236612   8.235   4.416   1.254
 8320SOL     OW36613   8.901   9.291   4.192
 8320SOL    HW136614   8.964   9.341   4.133
 8320SOL    HW236615   8.931   9.299   4.287
 8321SOL     OW36616   1.477   0.723   6.237
 8321SOL    HW136617   1.468   0.808   6.288
 8321SOL    HW236618   1.452   0.646   6.296
 8322SOL     OW36619   2.508   4.937   2.787
 8322SOL    HW136620   2.442   4.969   2.855
 8322SOL    HW236621   2.462   4.876   2.722
 8323SOL     OW36622   5.607   4.434   1.968
 8323SOL    HW136623   5.564   4.413   1.880
 8323SOL    HW236624   5.609   4.352   2.025
 8324SOL     OW36625   0.443   8.790   2.507
 8324SOL    HW136626   0.431   8.795   2.408
 8324SOL    HW236627   0.513   8.722   2.529
 8325SOL     OW36628   3.858   8.642   4.306
 8325SOL    HW136629   3.911   8.719   4.339
 8325SOL    HW236630   3.892   8.614   4.216
 8326SOL     OW36631   3.689   6.477   3.447
 8326SOL    HW136632   3.705   6.469   3.349
 8326SOL    HW236633   3.590   6.474   3.465
 8327SOL     OW36634   0.437   0.918   5.078
 8327SOL    HW136635   0.469   1.012   5.090
 8327SOL    HW236636   0.339   0.918   5.058
 8328SOL     OW36637   3.060   7.616   6.795
 8328SOL    HW136638   3.123   7.539   6.786
 8328SOL    HW236639   3.016   7.634   6.706
 8329SOL     OW36640   3.381   0.482   6.373
 8329SOL    HW136641   3.319   0.410   6.405
 8329SOL    HW236642   3.334   0.539   6.305
 8330SOL     OW36643   8.514   9.662   4.193
 8330SOL    HW136644   8.456   9.581   4.181
 8330SOL    HW236645   8.477   9.718   4.267
 8331SOL     OW36646   9.140   7.364   7.372
 8331SOL    HW136647   9.212   7.426   7.341
 8331SOL    HW236648   9.181   7.280   7.408
 8332SOL     OW36649   6.604   0.975   4.860
 8332SOL    HW136650   6.612   1.018   4.950
 8332SOL    HW236651   6.601   1.045   4.789
 8333SOL     OW36652   0.384   8.991   0.283
 8333SOL    HW136653   0.378   8.898   0.246
 8333SOL    HW236654   0.334   8.996   0.369
 8334SOL     OW36655   2.277   0.864   5.673
 8334SOL    HW136656   2.341   0.912   5.733
 8334SOL    HW236657   2.302   0.768   5.666
 8335SOL     OW36658   1.961   0.462   1.110
 8335SOL    HW136659   1.936   0.401   1.185
 8335SOL    HW236660   2.054   0.441   1.080
 8336SOL     OW36661   3.852   3.531   7.259
 8336SOL    HW136662   3.849   3.494   7.166
 8336SOL    HW236663   3.947   3.548   7.285
 8337SOL     OW36664   9.791   5.289   0.876
 8337SOL    HW136665   9.714   5.350   0.857
 8337SOL    HW236666   9.773   5.198   0.839
 8338SOL     OW36667   5.721   7.906   4.675
 8338SOL    HW136668   5.706   7.837   4.745
 8338SOL    HW236669   5.718   7.863   4.585
 8339SOL     OW36670   1.793   5.612   3.431
 8339SOL    HW136671   1.797   5.515   3.405
 8339SOL    HW236672   1.724   5.659   3.375
 8340SOL     OW36673   1.557   4.774   2.340
 8340SOL    HW136674   1.643   4.774   2.391
 8340SOL    HW236675   1.481   4.767   2.404
 8341SOL     OW36676   0.120   8.894   7.709
 8341SOL    HW136677   0.047   8.855   7.654
 8341SOL    HW236678   0.102   8.990   7.727
 8342SOL     OW36679   0.023   5.815   1.972
 8342SOL    HW136680   9.990   5.755   2.044
 8342SOL    HW236681   0.122   5.801   1.960
 8343SOL     OW36682   0.116   1.995   7.338
 8343SOL    HW136683   0.183   2.034   7.275
 8343SOL    HW236684   0.060   2.068   7.377
 8344SOL     OW36685   3.997   0.154   1.564
 8344SOL    HW136686   3.989   0.067   1.612
 8344SOL    HW236687   3.935   0.155   1.485
 8345SOL     OW36688   9.392   4.681   6.909
 8345SOL    HW136689   9.352   4.678   6.817
 8345SOL    HW236690   9.406   4.587   6.942
 8346SOL     OW36691   9.948   2.364   1.672
 8346SOL    HW136692   9.938   2.270   1.704
 8346SOL    HW236693   0.013   2.413   1.731
 8347SOL     OW36694   9.925   6.065   1.656
 8347SOL    HW136695   9.928   5.966   1.667
 8347SOL    HW236696   9.873   6.088   1.574
 8348SOL     OW36697   2.479   6.554   4.345
 8348SOL    HW136698   2.553   6.586   4.404
 8348SOL    HW236699   2.517   6.512   4.263
 8349SOL     OW36700   7.477   7.886   2.311
 8349SOL    HW136701   7.501   7.983   2.304
 8349SOL    HW236702   7.552   7.830   2.276
 8350SOL     OW36703   0.969   1.068   6.929
 8350SOL    HW136704   0.933   1.112   7.012
 8350SOL    HW236705   0.906   1.084   6.853
 8351SOL     OW36706   6.076   5.297   0.394
 8351SOL    HW136707   6.019   5.336   0.322
 8351SOL    HW236708   6.130   5.222   0.357
 8352SOL     OW36709   8.195   4.311   4.146
 8352SOL    HW136710   8.111   4.325   4.199
 8352SOL    HW236711   8.237   4.224   4.171
 8353SOL     OW36712   6.683   0.825   5.327
 8353SOL    HW136713   6.672   0.816   5.426
 8353SOL    HW236714   6.639   0.909   5.296
 8354SOL     OW36715   0.226   9.878   0.515
 8354SOL    HW136716   0.204   9.794   0.466
 8354SOL    HW236717   0.201   9.869   0.611
 8355SOL     OW36718   0.624   4.178   3.520
 8355SOL    HW136719   0.553   4.237   3.558
 8355SOL    HW236720   0.700   4.171   3.585
 8356SOL     OW36721   1.050   2.037   7.198
 8356SOL    HW136722   1.035   1.944   7.232
 8356SOL    HW236723   1.011   2.103   7.261
 8357SOL     OW36724   4.785   4.373   1.401
 8357SOL    HW136725   4.728   4.313   1.457
 8357SOL    HW236726   4.854   4.416   1.458
 8358SOL     OW36727   6.621   9.221   6.508
 8358SOL    HW136728   6.630   9.292   6.438
 8358SOL    HW236729   6.646   9.259   6.597
 8359SOL     OW36730   0.260   2.122   1.365
 8359SOL    HW136731   0.199   2.045   1.346
 8359SOL    HW236732   0.206   2.202   1.390
 8360SOL     OW36733   9.766   4.168   4.157
 8360SOL    HW136734   9.838   4.220   4.113
 8360SOL    HW236735   9.746   4.207   4.247
 8361SOL     OW36736   9.234   0.469   6.687
 8361SOL    HW136737   9.238   0.497   6.783
 8361SOL    HW236738   9.171   0.392   6.678
 8362SOL     OW36739   8.617   2.059   5.101
 8362SOL    HW136740   8.636   1.987   5.035
 8362SOL    HW236741   8.638   2.026   5.194
 8363SOL     OW36742   4.858   3.768   6.654
 8363SOL    HW136743   4.866   3.739   6.559
 8363SOL    HW236744   4.762   3.763   6.682
 8364SOL     OW36745   0.321   2.476   3.568
 8364SOL    HW136746   0.305   2.518   3.479
 8364SOL    HW236747   0.236   2.479   3.621
 8365SOL     OW36748   2.399   4.656   7.650
 8365SOL    HW136749   2.348   4.718   7.710
 8365SOL    HW236750   2.350   4.570   7.642
 8366SOL     OW36751   2.765   1.874   1.739
 8366SOL    HW136752   2.751   1.778   1.765
 8366SOL    HW236753   2.677   1.921   1.736
 8367SOL     OW36754   4.943   3.688   2.084
 8367SOL    HW136755   4.924   3.782   2.056
 8367SOL    HW236756   4.858   3.636   2.086
 8368SOL     OW36757   4.401   8.689   1.116
 8368SOL    HW136758   4.450   8.685   1.203
 8368SOL    HW236759   4.385   8.596   1.082
 8369SOL     OW36760   8.001   0.501   3.139
 8369SOL    HW136761   8.035   0.549   3.220
 8369SOL    HW236762   8.028   0.551   3.057
 8370SOL     OW36763   3.260   2.695   6.255
 8370SOL    HW136764   3.297   2.736   6.172
 8370SOL    HW236765   3.323   2.624   6.288
 8371SOL     OW36766   5.672   9.015   4.319
 8371SOL    HW136767   5.610   8.992   4.394
 8371SOL    HW236768   5.761   9.041   4.356
 8372SOL     OW36769   8.390   8.335   3.267
 8372SOL    HW136770   8.304   8.291   3.293
 8372SOL    HW236771   8.425   8.387   3.345
 8373SOL     OW36772   0.186   7.596   6.867
 8373SOL    HW136773   0.188   7.619   6.964
 8373SOL    HW236774   0.123   7.657   6.819
 8374SOL     OW36775   9.019   2.225   4.412
 8374SOL    HW136776   9.111   2.189   4.429
 8374SOL    HW236777   9.016   2.268   4.323
 8375SOL     OW36778   2.778   2.357   1.492
 8375SOL    HW136779   2.688   2.334   1.455
 8375SOL    HW236780   2.773   2.446   1.539
 8376SOL     OW36781   3.975   2.440   6.605
 8376SOL    HW136782   4.065   2.467   6.641
 8376SOL    HW236783   3.908   2.510   6.629
 8377SOL     OW36784   6.849   9.776   2.262
 8377SOL    HW136785   6.830   9.678   2.267
 8377SOL    HW236786   6.930   9.797   2.316
 8378SOL     OW36787   7.269   7.485   7.266
 8378SOL    HW136788   7.231   7.556   7.207
 8378SOL    HW236789   7.311   7.414   7.210
 8379SOL     OW36790   1.377   8.580   3.810
 8379SOL    HW136791   1.451   8.644   3.787
 8379SOL    HW236792   1.389   8.549   3.904
 8380SOL     OW36793   2.591   4.001   0.213
 8380SOL    HW136794   2.618   3.963   0.124
 8380SOL    HW236795   2.527   4.077   0.199
 8381SOL     OW36796   7.500   6.619   4.191
 8381SOL    HW136797   7.556   6.597   4.270
 8381SOL    HW236798   7.527   6.708   4.154
 8382SOL     OW36799   6.125   9.242   6.996
 8382SOL    HW136800   6.153   9.159   7.043
 8382SOL    HW236801   6.146   9.234   6.898
 8383SOL     OW36802   9.887   8.656   3.854
 8383SOL    HW136803   9.963   8.638   3.792
 8383SOL    HW236804   9.801   8.640   3.806
 8384SOL     OW36805   2.665   7.677   5.337
 8384SOL    HW136806   2.706   7.630   5.258
 8384SOL    HW236807   2.636   7.609   5.404
 8385SOL     OW36808   6.895   0.779   5.146
 8385SOL    HW136809   6.984   0.810   5.181
 8385SOL    HW236810   6.824   0.796   5.215
 8386SOL     OW36811   6.065   1.614   3.623
 8386SOL    HW136812   6.122   1.532   3.616
 8386SOL    HW236813   6.061   1.659   3.534
 8387SOL     OW36814   4.585   6.965   1.491
 8387SOL    HW136815   4.629   7.037   1.545
 8387SOL    HW236816   4.486   6.977   1.495
 8388SOL     OW36817   2.146   2.899   7.427
 8388SOL    HW136818   2.075   2.942   7.371
 8388SOL    HW236819   2.199   2.969   7.473
 8389SOL     OW36820   4.120   8.426   6.429
 8389SOL    HW136821   4.034   8.395   6.388
 8389SOL    HW236822   4.183   8.349   6.435
 8390SOL     OW36823   1.572   9.192   1.925
 8390SOL    HW136824   1.549   9.204   1.829
 8390SOL    HW236825   1.492   9.212   1.982
 8391SOL     OW36826   4.814   5.560   7.874
 8391SOL    HW136827   4.781   5.584   7.965
 8391SOL    HW236828   4.914   5.562   7.873
 8392SOL     OW36829   0.963   0.851   7.641
 8392SOL    HW136830   1.025   0.812   7.709
 8392SOL    HW236831   0.915   0.929   7.679
 8393SOL     OW36832   9.046   1.013   0.713
 8393SOL    HW136833   9.138   1.034   0.747
 8393SOL    HW236834   8.993   0.969   0.785
 8394SOL     OW36835   9.190   5.934   1.836
 8394SOL    HW136836   9.225   5.917   1.745
 8394SOL    HW236837   9.249   6.001   1.883
 8395SOL     OW36838   4.466   0.774   5.106
 8395SOL    HW136839   4.531   0.794   5.179
 8395SOL    HW236840   4.508   0.794   5.017
 8396SOL     OW36841   9.792   3.315   7.425
 8396SOL    HW136842   9.837   3.388   7.373
 8396SOL    HW236843   9.805   3.228   7.378
 8397SOL     OW36844   7.481   2.647   0.724
 8397SOL    HW136845   7.478   2.559   0.772
 8397SOL    HW236846   7.483   2.632   0.625
 8398SOL     OW36847   9.168   3.559   1.808
 8398SOL    HW136848   9.159   3.630   1.738
 8398SOL    HW236849   9.180   3.470   1.763
 8399SOL     OW36850   6.851   5.872   2.344
 8399SOL    HW136851   6.779   5.830   2.289
 8399SOL    HW236852   6.902   5.937   2.288
 8400SOL     OW36853   2.688   1.612   0.679
 8400SOL    HW136854   2.610   1.569   0.725
 8400SOL    HW236855   2.704   1.567   0.591
 8401SOL     OW36856   0.735   1.611   3.125
 8401SOL    HW136857   0.835   1.615   3.121
 8401SOL    HW236858   0.700   1.582   3.036
 8402SOL     OW36859   6.423   8.403   6.264
 8402SOL    HW136860   6.347   8.351   6.226
 8402SOL    HW236861   6.462   8.354   6.342
 8403SOL     OW36862   1.516   9.793   0.867
 8403SOL    HW136863   1.418   9.787   0.846
 8403SOL    HW236864   1.565   9.720   0.820
 8404SOL     OW36865   2.772   8.678   5.750
 8404SOL    HW136866   2.844   8.630   5.699
 8404SOL    HW236867   2.707   8.612   5.787
 8405SOL     OW36868   4.238   3.877   7.372
 8405SOL    HW136869   4.272   3.818   7.445
 8405SOL    HW236870   4.284   3.855   7.286
 8406SOL     OW36871   9.452   1.963   6.540
 8406SOL    HW136872   9.455   2.006   6.450
 8406SOL    HW236873   9.387   1.887   6.538
 8407SOL     OW36874   0.228   0.174   3.881
 8407SOL    HW136875   0.189   0.082   3.893
 8407SOL    HW236876   0.299   0.189   3.949
 8408SOL     OW36877   4.024   3.256   1.111
 8408SOL    HW136878   4.009   3.307   1.196
 8408SOL    HW236879   3.989   3.163   1.121
 8409SOL     OW36880   9.485   3.203   3.081
 8409SOL    HW136881   9.549   3.256   3.137
 8409SOL    HW236882   9.503   3.222   2.984
 8410SOL     OW36883   5.653   9.539   5.611
 8410SOL    HW136884   5.629   9.589   5.694
 8410SOL    HW236885   5.748   9.560   5.586
 8411SOL     OW36886   7.048   8.441   6.980
 8411SOL    HW136887   7.087   8.392   6.902
 8411SOL    HW236888   7.055   8.385   7.062
 8412SOL     OW36889   4.983   7.905   5.596
 8412SOL    HW136890   4.932   7.979   5.639
 8412SOL    HW236891   4.920   7.836   5.561
 8413SOL     OW36892   3.585   5.923   3.772
 8413SOL    HW136893   3.674   5.946   3.731
 8413SOL    HW236894   3.566   5.827   3.756
 8414SOL     OW36895   5.692   9.552   4.578
 8414SOL    HW136896   5.731   9.494   4.506
 8414SOL    HW236897   5.673   9.643   4.541
 8415SOL     OW36898   0.153   8.709   2.076
 8415SOL    HW136899   0.071   8.756   2.109
 8415SOL    HW236900   0.165   8.730   1.979
 8416SOL     OW36901   9.696   5.881   3.608
 8416SOL    HW136902   9.604   5.915   3.588
 8416SOL    HW236903   9.695   5.781   3.610
 8417SOL     OW36904   4.756   8.475   5.111
 8417SOL    HW136905   4.786   8.388   5.150
 8417SOL    HW236906   4.826   8.545   5.128
 8418SOL     OW36907   6.058   7.917   2.655
 8418SOL    HW136908   6.078   7.999   2.709
 8418SOL    HW236909   6.139   7.859   2.652
 8419SOL     OW36910   3.886   0.931   7.064
 8419SOL    HW136911   3.881   0.987   6.982
 8419SOL    HW236912   3.980   0.901   7.079
 8420SOL     OW36913   2.079   3.179   5.958
 8420SOL    HW136914   2.096   3.271   5.993
 8420SOL    HW236915   2.132   3.113   6.011
 8421SOL     OW36916   4.019   8.760   7.589
 8421SOL    HW136917   4.004   8.826   7.662
 8421SOL    HW236918   4.109   8.717   7.600
 8422SOL     OW36919   7.278   8.861   5.796
 8422SOL    HW136920   7.352   8.864   5.863
 8422SOL    HW236921   7.211   8.793   5.824
 8423SOL     OW36922   0.295   1.230   1.595
 8423SOL    HW136923   0.374   1.291   1.588
 8423SOL    HW236924   0.314   1.145   1.547
 8424SOL     OW36925   0.472   0.280   1.899
 8424SOL    HW136926   0.432   0.345   1.834
 8424SOL    HW236927   0.413   0.274   1.980
 8425SOL     OW36928   6.032   0.380   1.498
 8425SOL    HW136929   5.973   0.387   1.579
 8425SOL    HW236930   6.070   0.288   1.492
 8426SOL     OW36931   3.751   7.147   4.125
 8426SOL    HW136932   3.664   7.138   4.077
 8426SOL    HW236933   3.747   7.226   4.187
 8427SOL     OW36934   6.735   4.108   0.714
 8427SOL    HW136935   6.829   4.142   0.720
 8427SOL    HW236936   6.677   4.159   0.777
 8428SOL     OW36937   7.982   7.146   5.108
 8428SOL    HW136938   7.994   7.134   5.010
 8428SOL    HW236939   7.918   7.076   5.142
 8429SOL     OW36940   7.646   9.991   4.573
 8429SOL    HW136941   7.651   9.918   4.506
 8429SOL    HW236942   7.550   0.016   4.589
 8430SOL     OW36943   8.850   4.214   5.960
 8430SOL    HW136944   8.752   4.197   5.945
 8430SOL    HW236945   8.900   4.198   5.875
 8431SOL     OW36946   0.756   9.617   4.790
 8431SOL    HW136947   0.737   9.595   4.694
 8431SOL    HW236948   0.831   9.682   4.795
 8432SOL     OW36949   5.958   0.791   2.939
 8432SOL    HW136950   5.960   0.806   2.840
 8432SOL    HW236951   5.938   0.695   2.958
 8433SOL     OW36952   9.747   6.065   5.304
 8433SOL    HW136953   9.828   6.067   5.245
 8433SOL    HW236954   9.768   6.109   5.391
 8434SOL     OW36955   2.539   4.290   7.535
 8434SOL    HW136956   2.607   4.227   7.574
 8434SOL    HW236957   2.453   4.282   7.585
 8435SOL     OW36958   9.476   3.658   2.996
 8435SOL    HW136959   9.465   3.756   3.015
 8435SOL    HW236960   9.554   3.623   3.048
 8436SOL     OW36961   7.430   5.982   5.986
 8436SOL    HW136962   7.382   6.068   6.004
 8436SOL    HW236963   7.445   5.934   6.073
 8437SOL     OW36964   0.176   4.604   5.318
 8437SOL    HW136965   0.110   4.643   5.383
 8437SOL    HW236966   0.234   4.537   5.365
 8438SOL     OW36967   0.901   6.911   2.623
 8438SOL    HW136968   0.889   6.928   2.721
 8438SOL    HW236969   0.870   6.991   2.571
 8439SOL     OW36970   1.047   9.875   1.555
 8439SOL    HW136971   1.122   9.822   1.595
 8439SOL    HW236972   0.966   9.867   1.613
 8440SOL     OW36973   4.881   5.478   0.380
 8440SOL    HW136974   4.932   5.554   0.421
 8440SOL    HW236975   4.945   5.418   0.331
 8441SOL     OW36976   1.372   6.253   0.143
 8441SOL    HW136977   1.339   6.348   0.142
 8441SOL    HW236978   1.470   6.252   0.161
 8442SOL     OW36979   9.356   6.661   1.485
 8442SOL    HW136980   9.329   6.564   1.488
 8442SOL    HW236981   9.388   6.689   1.576
 8443SOL     OW36982   6.824   8.780   3.812
 8443SOL    HW136983   6.816   8.865   3.864
 8443SOL    HW236984   6.863   8.799   3.722
 8444SOL     OW36985   2.080   8.405   4.958
 8444SOL    HW136986   2.158   8.391   4.896
 8444SOL    HW236987   2.115   8.427   5.050
 8445SOL     OW36988   1.535   8.361   5.458
 8445SOL    HW136989   1.605   8.418   5.503
 8445SOL    HW236990   1.545   8.368   5.359
 8446SOL     OW36991   4.142   5.435   1.161
 8446SOL    HW136992   4.160   5.442   1.259
 8446SOL    HW236993   4.150   5.339   1.132
 8447SOL     OW36994   7.742   4.807   1.218
 8447SOL    HW136995   7.809   4.735   1.199
 8447SOL    HW236996   7.698   4.835   1.133
 8448SOL     OW36997   9.834   3.650   6.352
 8448SOL    HW136998   9.862   3.746   6.358
 8448SOL    HW236999   9.892   3.603   6.285
 8449SOL     OW37000   9.787   0.381   5.618
 8449SOL    HW137001   9.843   0.312   5.665
 8449SOL    HW237002   9.811   0.382   5.521
 8450SOL     OW37003   0.558   2.243   2.901
 8450SOL    HW137004   0.593   2.337   2.898
 8450SOL    HW237005   0.504   2.225   2.819
 8451SOL     OW37006   9.564   4.311   0.165
 8451SOL    HW137007   9.656   4.272   0.152
 8451SOL    HW237008   9.517   4.262   0.238
 8452SOL     OW37009   2.787   0.624   6.779
 8452SOL    HW137010   2.834   0.536   6.784
 8452SOL    HW237011   2.698   0.617   6.823
 8453SOL     OW37012   4.465   2.434   7.460
 8453SOL    HW137013   4.485   2.438   7.558
 8453SOL    HW237014   4.423   2.346   7.439
 8454SOL     OW37015   4.092   5.054   0.834
 8454SOL    HW137016   4.001   5.029   0.802
 8454SOL    HW237017   4.145   5.093   0.759
 8455SOL     OW37018   1.641   6.170   2.704
 8455SOL    HW137019   1.698   6.094   2.735
 8455SOL    HW237020   1.632   6.237   2.778
 8456SOL     OW37021   0.971   8.742   2.340
 8456SOL    HW137022   0.982   8.674   2.413
 8456SOL    HW237023   0.919   8.702   2.264
 8457SOL     OW37024   8.878   7.509   0.265
 8457SOL    HW137025   8.780   7.500   0.282
 8457SOL    HW237026   8.915   7.421   0.236
 8458SOL     OW37027   0.916   6.695   0.703
 8458SOL    HW137028   0.856   6.616   0.690
 8458SOL    HW237029   0.974   6.680   0.783
 8459SOL     OW37030   9.322   7.525   7.246
 8459SOL    HW137031   9.331   7.520   7.146
 8459SOL    HW237032   9.315   7.621   7.274
 8460SOL     OW37033   3.480   2.283   0.918
 8460SOL    HW137034   3.475   2.285   0.818
 8460SOL    HW237035   3.440   2.198   0.952
 8461SOL     OW37036   1.172   0.502   3.222
 8461SOL    HW137037   1.243   0.509   3.152
 8461SOL    HW237038   1.126   0.414   3.214
 8462SOL     OW37039   4.571   3.691   7.245
 8462SOL    HW137040   4.535   3.599   7.259
 8462SOL    HW237041   4.642   3.710   7.313
 8463SOL     OW37042   7.646   7.259   5.839
 8463SOL    HW137043   7.625   7.319   5.916
 8463SOL    HW237044   7.693   7.177   5.872
 8464SOL     OW37045   1.374   2.895   0.320
 8464SOL    HW137046   1.407   2.818   0.266
 8464SOL    HW237047   1.359   2.974   0.261
 8465SOL     OW37048   0.264   1.976   6.595
 8465SOL    HW137049   0.320   2.056   6.575
 8465SOL    HW237050   0.235   1.933   6.510
 8466SOL     OW37051   2.753   2.725   6.566
 8466SOL    HW137052   2.805   2.641   6.550
 8466SOL    HW237053   2.667   2.720   6.516
 8467SOL     OW37054   1.221   6.071   0.280
 8467SOL    HW137055   1.268   6.125   0.211
 8467SOL    HW237056   1.139   6.029   0.240
 8468SOL     OW37057   1.560   1.859   7.427
 8468SOL    HW137058   1.499   1.812   7.491
 8468SOL    HW237059   1.651   1.818   7.431
 8469SOL     OW37060   0.699   2.385   0.414
 8469SOL    HW137061   0.788   2.394   0.458
 8469SOL    HW237062   0.642   2.463   0.438
 8470SOL     OW37063   4.094   0.546   4.516
 8470SOL    HW137064   4.124   0.473   4.577
 8470SOL    HW237065   4.073   0.508   4.426
 8471SOL     OW37066   5.240   7.041   1.392
 8471SOL    HW137067   5.294   6.998   1.320
 8471SOL    HW237068   5.217   6.973   1.461
 8472SOL     OW37069   3.825   9.404   1.610
 8472SOL    HW137070   3.916   9.431   1.579
 8472SOL    HW237071   3.806   9.447   1.699
 8473SOL     OW37072   1.572   1.330   0.567
 8473SOL    HW137073   1.584   1.233   0.587
 8473SOL    HW237074   1.502   1.341   0.496
 8474SOL     OW37075   1.115   9.492   6.431
 8474SOL    HW137076   1.088   9.454   6.343
 8474SOL    HW237077   1.204   9.454   6.458
 8475SOL     OW37078   4.278   4.574   2.574
 8475SOL    HW137079   4.185   4.574   2.611
 8475SOL    HW237080   4.313   4.480   2.571
 8476SOL     OW37081   3.933   5.431   1.577
 8476SOL    HW137082   3.900   5.521   1.550
 8476SOL    HW237083   3.983   5.438   1.663
 8477SOL     OW37084   7.949   4.407   3.071
 8477SOL    HW137085   7.961   4.478   3.140
 8477SOL    HW237086   7.851   4.389   3.059
 8478SOL     OW37087   6.462   7.030   4.346
 8478SOL    HW137088   6.448   7.123   4.382
 8478SOL    HW237089   6.527   6.982   4.404
 8479SOL     OW37090   9.457   2.844   5.636
 8479SOL    HW137091   9.556   2.862   5.635
 8479SOL    HW237092   9.436   2.778   5.708
 8480SOL     OW37093   9.823   1.192   7.315
 8480SOL    HW137094   9.867   1.281   7.301
 8480SOL    HW237095   9.726   1.199   7.291
 8481SOL     OW37096   0.918   5.864   2.909
 8481SOL    HW137097   0.871   5.904   2.988
 8481SOL    HW237098   0.853   5.808   2.857
 8482SOL     OW37099   9.794   0.183   6.996
 8482SOL    HW137100   9.751   0.271   6.972
 8482SOL    HW237101   9.827   0.138   6.914
 8483SOL     OW37102   9.938   0.972   1.941
 8483SOL    HW137103   9.882   1.049   1.970
 8483SOL    HW237104   0.015   1.006   1.887
 8484SOL     OW37105   2.146   1.930   4.407
 8484SOL    HW137106   2.174   2.019   4.443
 8484SOL    HW237107   2.048   1.919   4.418
 8485SOL     OW37108   7.450   9.427   7.579
 8485SOL    HW137109   7.423   9.337   7.545
 8485SOL    HW237110   7.370   9.475   7.615
 8486SOL     OW37111   7.151   0.899   0.245
 8486SOL    HW137112   7.244   0.926   0.270
 8486SOL    HW237113   7.126   0.815   0.294
 8487SOL     OW37114   6.587   8.407   2.097
 8487SOL    HW137115   6.542   8.496   2.104
 8487SOL    HW237116   6.520   8.334   2.113
 8488SOL     OW37117   9.129   5.368   3.918
 8488SOL    HW137118   9.225   5.394   3.919
 8488SOL    HW237119   9.073   5.442   3.956
 8489SOL     OW37120   9.165   6.588   4.819
 8489SOL    HW137121   9.188   6.684   4.806
 8489SOL    HW237122   9.069   6.580   4.845
 8490SOL     OW37123   5.071   6.282   0.120
 8490SOL    HW137124   5.029   6.318   0.203
 8490SOL    HW237125   5.003   6.276   0.047
 8491SOL     OW37126   2.331   7.159   6.731
 8491SOL    HW137127   2.283   7.136   6.646
 8491SOL    HW237128   2.319   7.256   6.751
 8492SOL     OW37129   9.707   2.903   0.495
 8492SOL    HW137130   9.704   2.868   0.402
 8492SOL    HW237131   9.754   2.991   0.496
 8493SOL     OW37132   0.362   8.064   0.375
 8493SOL    HW137133   0.367   8.163   0.389
 8493SOL    HW237134   0.268   8.038   0.356
 8494SOL     OW37135   6.437   9.803   4.546
 8494SOL    HW137136   6.492   9.882   4.575
 8494SOL    HW237137   6.370   9.781   4.617
 8495SOL     OW37138   3.219   2.256   2.402
 8495SOL    HW137139   3.274   2.198   2.342
 8495SOL    HW237140   3.137   2.284   2.354
 8496SOL     OW37141   5.966   1.049   0.293
 8496SOL    HW137142   5.950   0.958   0.330
 8496SOL    HW237143   6.011   1.106   0.362
 8497SOL     OW37144   7.234   6.573   4.107
 8497SOL    HW137145   7.246   6.605   4.013
 8497SOL    HW237146   7.323   6.568   4.152
 8498SOL     OW37147   6.125   0.123   1.473
 8498SOL    HW137148   6.212   0.115   1.521
 8498SOL    HW237149   6.133   0.080   1.383
 8499SOL     OW37150   0.220   9.806   3.304
 8499SOL    HW137151   0.256   9.762   3.386
 8499SOL    HW237152   0.216   9.905   3.318
 8500SOL     OW37153   1.709   8.512   4.286
 8500SOL    HW137154   1.616   8.484   4.308
 8500SOL    HW237155   1.722   8.608   4.313
 8501SOL     OW37156   6.576   1.120   1.163
 8501SOL    HW137157   6.601   1.030   1.129
 8501SOL    HW237158   6.591   1.189   1.092
 8502SOL     OW37159   0.536   6.956   2.098
 8502SOL    HW137160   0.588   6.892   2.154
 8502SOL    HW237161   0.598   7.028   2.065
 8503SOL     OW37162   5.169   0.360   1.850
 8503SOL    HW137163   5.075   0.363   1.884
 8503SOL    HW237164   5.171   0.312   1.762
 8504SOL     OW37165   3.902   4.377   5.659
 8504SOL    HW137166   3.994   4.415   5.646
 8504SOL    HW237167   3.897   4.287   5.617
 8505SOL     OW37168   0.062   4.760   0.239
 8505SOL    HW137169   9.963   4.763   0.253
 8505SOL    HW237170   0.092   4.664   0.235
 8506SOL     OW37171   9.635   5.991   5.648
 8506SOL    HW137172   9.710   6.039   5.604
 8506SOL    HW237173   9.647   5.893   5.638
 8507SOL     OW37174   0.152   7.483   1.078
 8507SOL    HW137175   0.231   7.533   1.114
 8507SOL    HW237176   0.181   7.394   1.044
 8508SOL     OW37177   4.177   8.823   4.917
 8508SOL    HW137178   4.257   8.766   4.898
 8508SOL    HW237179   4.181   8.857   5.011
 8509SOL     OW37180   5.001   7.557   4.550
 8509SOL    HW137181   5.042   7.495   4.616
 8509SOL    HW237182   4.904   7.535   4.538
 8510SOL     OW37183   3.858   2.641   3.240
 8510SOL    HW137184   3.781   2.699   3.263
 8510SOL    HW237185   3.891   2.594   3.322
 8511SOL     OW37186   3.494   0.888   5.206
 8511SOL    HW137187   3.428   0.928   5.269
 8511SOL    HW237188   3.582   0.876   5.252
 8512SOL     OW37189   1.752   6.146   0.763
 8512SOL    HW137190   1.756   6.073   0.832
 8512SOL    HW237191   1.795   6.229   0.799
 8513SOL     OW37192   4.943   1.561   0.809
 8513SOL    HW137193   4.878   1.636   0.800
 8513SOL    HW237194   4.940   1.503   0.728
 8514SOL     OW37195   1.850   8.271   7.466
 8514SOL    HW137196   1.810   8.322   7.543
 8514SOL    HW237197   1.780   8.212   7.427
 8515SOL     OW37198   3.848   8.510   1.209
 8515SOL    HW137199   3.778   8.578   1.188
 8515SOL    HW237200   3.898   8.537   1.291
 8516SOL     OW37201   0.644   9.464   3.290
 8516SOL    HW137202   0.585   9.541   3.314
 8516SOL    HW237203   0.729   9.470   3.343
 8517SOL     OW37204   1.504   2.848   1.517
 8517SOL    HW137205   1.601   2.825   1.508
 8517SOL    HW237206   1.474   2.898   1.436
 8518SOL     OW37207   9.142   0.848   6.400
 8518SOL    HW137208   9.135   0.941   6.437
 8518SOL    HW237209   9.050   0.810   6.389
 8519SOL     OW37210   9.950   8.831   1.582
 8519SOL    HW137211   9.895   8.887   1.644
 8519SOL    HW237212   9.988   8.890   1.510
 8520SOL     OW37213   2.407   2.283   0.405
 8520SOL    HW137214   2.341   2.225   0.454
 8520SOL    HW237215   2.425   2.365   0.458
 8521SOL     OW37216   0.853   6.506   2.437
 8521SOL    HW137217   0.880   6.534   2.345
 8521SOL    HW237218   0.807   6.582   2.482
 8522SOL     OW37219   3.984   6.119   2.928
 8522SOL    HW137220   3.948   6.161   3.011
 8522SOL    HW237221   4.037   6.187   2.877
 8523SOL     OW37222   7.747   7.464   1.453
 8523SOL    HW137223   7.780   7.493   1.363
 8523SOL    HW237224   7.825   7.454   1.515
 8524SOL     OW37225   1.551   7.329   4.756
 8524SOL    HW137226   1.490   7.268   4.705
 8524SOL    HW237227   1.580   7.284   4.840
 8525SOL     OW37228   8.120   3.295   2.559
 8525SOL    HW137229   8.113   3.232   2.482
 8525SOL    HW237230   8.155   3.246   2.639
 8526SOL     OW37231   7.247   8.671   4.374
 8526SOL    HW137232   7.148   8.663   4.366
 8526SOL    HW237233   7.273   8.767   4.387
 8527SOL     OW37234   5.957   9.229   2.994
 8527SOL    HW137235   5.906   9.181   2.922
 8527SOL    HW237236   6.038   9.272   2.954
 8528SOL     OW37237   0.234   8.042   1.291
 8528SOL    HW137238   0.308   7.976   1.280
 8528SOL    HW237239   0.146   7.994   1.296
 8529SOL     OW37240   6.662   2.231   5.159
 8529SOL    HW137241   6.712   2.260   5.077
 8529SOL    HW237242   6.586   2.173   5.134
 8530SOL     OW37243   9.182   3.759   1.621
 8530SOL    HW137244   9.252   3.736   1.553
 8530SOL    HW237245   9.210   3.840   1.672
 8531SOL     OW37246   2.613   8.229   4.689
 8531SOL    HW137247   2.708   8.261   4.686
 8531SOL    HW237248   2.602   8.165   4.766
 8532SOL     OW37249   0.023   5.517   5.203
 8532SOL    HW137250   0.021   5.477   5.112
 8532SOL    HW237251   0.093   5.588   5.207
 8533SOL     OW37252   4.251   8.665   6.766
 8533SOL    HW137253   4.328   8.608   6.794
 8533SOL    HW237254   4.187   8.610   6.713
 8534SOL     OW37255   0.127   5.748   0.171
 8534SOL    HW137256   0.072   5.800   0.105
 8534SOL    HW237257   0.134   5.800   0.256
 8535SOL     OW37258   8.596   2.805   4.844
 8535SOL    HW137259   8.507   2.848   4.861
 8535SOL    HW237260   8.616   2.809   4.746
 8536SOL     OW37261   7.001   4.098   2.782
 8536SOL    HW137262   6.949   4.031   2.836
 8536SOL    HW237263   7.034   4.055   2.698
 8537SOL     OW37264   7.450   6.563   5.836
 8537SOL    HW137265   7.437   6.637   5.770
 8537SOL    HW237266   7.547   6.553   5.856
 8538SOL     OW37267   8.712   9.317   6.821
 8538SOL    HW137268   8.659   9.253   6.765
 8538SOL    HW237269   8.752   9.268   6.898
 8539SOL     OW37270   0.085   0.334   3.454
 8539SOL    HW137271   9.985   0.341   3.448
 8539SOL    HW237272   0.126   0.361   3.367
 8540SOL     OW37273   7.795   6.739   2.400
 8540SOL    HW137274   7.867   6.716   2.335
 8540SOL    HW237275   7.804   6.834   2.428
 8541SOL     OW37276   0.263   5.148   1.395
 8541SOL    HW137277   0.237   5.214   1.324
 8541SOL    HW237278   0.302   5.067   1.352
 8542SOL     OW37279   4.739   5.183   3.163
 8542SOL    HW137280   4.741   5.275   3.123
 8542SOL    HW237281   4.828   5.139   3.149
 8543SOL     OW37282   0.538   5.671   1.056
 8543SOL    HW137283   0.553   5.647   1.152
 8543SOL    HW237284   0.528   5.588   1.001
 8544SOL     OW37285   1.023   9.582   3.765
 8544SOL    HW137286   1.105   9.527   3.784
 8544SOL    HW237287   0.947   9.550   3.821
 8545SOL     OW37288   8.615   0.756   6.062
 8545SOL    HW137289   8.704   0.718   6.083
 8545SOL    HW237290   8.626   0.849   6.026
 8546SOL     OW37291   7.641   5.207   1.670
 8546SOL    HW137292   7.566   5.157   1.712
 8546SOL    HW237293   7.725   5.153   1.676
 8547SOL     OW37294   8.858   7.502   2.934
 8547SOL    HW137295   8.917   7.559   2.877
 8547SOL    HW237296   8.778   7.554   2.963
 8548SOL     OW37297   0.408   4.948   3.906
 8548SOL    HW137298   0.406   5.043   3.937
 8548SOL    HW237299   0.445   4.945   3.813
 8549SOL     OW37300   6.640   1.622   3.544
 8549SOL    HW137301   6.582   1.697   3.575
 8549SOL    HW237302   6.606   1.588   3.456
 8550SOL     OW37303   3.757   2.059   5.882
 8550SOL    HW137304   3.699   1.995   5.932
 8550SOL    HW237305   3.822   2.102   5.945
 8551SOL     OW37306   3.240   6.247   1.713
 8551SOL    HW137307   3.233   6.322   1.648
 8551SOL    HW237308   3.203   6.163   1.673
 8552SOL     OW37309   9.261   0.142   2.652
 8552SOL    HW137310   9.251   0.183   2.743
 8552SOL    HW237311   9.344   0.087   2.649
 8553SOL     OW37312   3.400   6.893   4.956
 8553SOL    HW137313   3.452   6.843   4.887
 8553SOL    HW237314   3.462   6.947   5.013
 8554SOL     OW37315   3.167   4.533   0.839
 8554SOL    HW137316   3.234   4.506   0.770
 8554SOL    HW237317   3.143   4.453   0.894
 8555SOL     OW37318   6.397   7.291   4.411
 8555SOL    HW137319   6.421   7.355   4.484
 8555SOL    HW237320   6.355   7.341   4.335
 8556SOL     OW37321   0.980   4.980   1.551
 8556SOL    HW137322   0.910   4.916   1.521
 8556SOL    HW237323   1.052   4.987   1.482
 8557SOL     OW37324   9.133   6.862   6.988
 8557SOL    HW137325   9.178   6.822   6.908
 8557SOL    HW237326   9.034   6.848   6.981
 8558SOL     OW37327   8.298   9.717   7.832
 8558SOL    HW137328   8.216   9.769   7.809
 8558SOL    HW237329   8.378   9.776   7.828
 8559SOL     OW37330   6.279   2.023   5.789
 8559SOL    HW137331   6.274   1.975   5.702
 8559SOL    HW237332   6.354   2.089   5.786
 8560SOL     OW37333   2.024   9.829   6.160
 8560SOL    HW137334   2.024   9.874   6.249
 8560SOL    HW237335   2.042   9.896   6.088
 8561SOL     OW37336   6.376   9.730   6.724
 8561SOL    HW137337   6.433   9.807   6.754
 8561SOL    HW237338   6.431   9.667   6.670
 8562SOL     OW37339   0.252   1.216   5.194
 8562SOL    HW137340   0.272   1.311   5.218
 8562SOL    HW237341   0.251   1.161   5.278
 8563SOL     OW37342   2.748   9.568   7.886
 8563SOL    HW137343   2.665   9.533   7.929
 8563SOL    HW237344   2.725   9.647   7.829
 8564SOL     OW37345   0.638   0.310   2.655
 8564SOL    HW137346   0.735   0.297   2.675
 8564SOL    HW237347   0.594   0.358   2.731
 8565SOL     OW37348   0.275   0.852   0.568
 8565SOL    HW137349   0.288   0.908   0.486
 8565SOL    HW237350   0.268   0.756   0.540
 8566SOL     OW37351   3.252   7.689   5.465
 8566SOL    HW137352   3.210   7.778   5.486
 8566SOL    HW237353   3.310   7.661   5.542
 8567SOL     OW37354   2.575   1.700   0.081
 8567SOL    HW137355   2.567   1.717  10.065
 8567SOL    HW237356   2.664   1.733   0.113
 8568SOL     OW37357   1.317   5.089   7.265
 8568SOL    HW137358   1.299   5.071   7.168
 8568SOL    HW237359   1.407   5.053   7.289
 8569SOL     OW37360   2.844   0.088   4.628
 8569SOL    HW137361   2.757   0.138   4.630
 8569SOL    HW237362   2.851   0.037   4.543
 8570SOL     OW37363   3.768   5.169   5.930
 8570SOL    HW137364   3.839   5.100   5.912
 8570SOL    HW237365   3.678   5.125   5.928
 8571SOL     OW37366   8.965   6.703   1.707
 8571SOL    HW137367   9.046   6.645   1.721
 8571SOL    HW237368   8.982   6.794   1.745
 8572SOL     OW37369   7.808   1.149   5.230
 8572SOL    HW137370   7.781   1.167   5.136
 8572SOL    HW237371   7.905   1.127   5.234
 8573SOL     OW37372   6.809   0.819   1.431
 8573SOL    HW137373   6.723   0.854   1.394
 8573SOL    HW237374   6.805   0.820   1.531
 8574SOL     OW37375   3.835   5.324   4.044
 8574SOL    HW137376   3.896   5.254   4.007
 8574SOL    HW237377   3.788   5.371   3.970
 8575SOL     OW37378   3.377   7.175   4.571
 8575SOL    HW137379   3.354   7.230   4.651
 8575SOL    HW237380   3.297   7.171   4.509
 8576SOL     OW37381   2.068   1.888   5.838
 8576SOL    HW137382   2.112   1.813   5.887
 8576SOL    HW237383   2.000   1.851   5.775
 8577SOL     OW37384   7.818   9.232   4.631
 8577SOL    HW137385   7.793   9.157   4.693
 8577SOL    HW237386   7.743   9.247   4.566
 8578SOL     OW37387   4.299   2.775   3.851
 8578SOL    HW137388   4.276   2.868   3.878
 8578SOL    HW237389   4.302   2.769   3.751
 8579SOL     OW37390   1.583   5.756   3.315
 8579SOL    HW137391   1.608   5.850   3.338
 8579SOL    HW237392   1.513   5.756   3.244
 8580SOL     OW37393   2.473   9.386   0.449
 8580SOL    HW137394   2.492   9.484   0.441
 8580SOL    HW237395   2.557   9.334   0.432
 8581SOL     OW37396   0.614   5.301   7.509
 8581SOL    HW137397   0.626   5.201   7.507
 8581SOL    HW237398   0.580   5.332   7.421
 8582SOL     OW37399   0.194   9.973   5.451
 8582SOL    HW137400   0.231   0.060   5.419
 8582SOL    HW237401   0.129   9.990   5.526
 8583SOL     OW37402   2.812   5.321   1.391
 8583SOL    HW137403   2.907   5.336   1.364
 8583SOL    HW237404   2.803   5.233   1.437
 8584SOL     OW37405   9.451   6.245   3.870
 8584SOL    HW137406   9.527   6.205   3.921
 8584SOL    HW237407   9.483   6.274   3.780
 8585SOL     OW37408   4.815   8.832   6.004
 8585SOL    HW137409   4.833   8.926   5.975
 8585SOL    HW237410   4.759   8.786   5.935
 8586SOL     OW37411   5.707   4.062   1.099
 8586SOL    HW137412   5.745   4.002   1.029
 8586SOL    HW237413   5.709   4.015   1.188
 8587SOL     OW37414   9.949   4.306   5.780
 8587SOL    HW137415   9.876   4.238   5.781
 8587SOL    HW237416   9.909   4.398   5.775
 8588SOL     OW37417   6.231   9.488   5.890
 8588SOL    HW137418   6.237   9.521   5.984
 8588SOL    HW237419   6.199   9.393   5.890
 8589SOL     OW37420   0.439   6.758   1.326
 8589SOL    HW137421   0.468   6.702   1.248
 8589SOL    HW237422   0.339   6.765   1.326
 8590SOL     OW37423   3.491   9.007   2.905
 8590SOL    HW137424   3.501   8.911   2.880
 8590SOL    HW237425   3.487   9.015   3.005
 8591SOL     OW37426   0.979   2.364   7.803
 8591SOL    HW137427   1.045   2.289   7.803
 8591SOL    HW237428   1.026   2.451   7.816
 8592SOL     OW37429   3.027   3.293   4.311
 8592SOL    HW137430   3.050   3.362   4.379
 8592SOL    HW237431   3.103   3.229   4.301
 8593SOL     OW37432   2.057   1.679   0.284
 8593SOL    HW137433   1.963   1.713   0.284
 8593SOL    HW237434   2.057   1.579   0.280
 8594SOL     OW37435   3.175   6.974   5.769
 8594SOL    HW137436   3.212   7.006   5.682
 8594SOL    HW237437   3.160   7.052   5.830
 8595SOL     OW37438   4.424   5.832   4.003
 8595SOL    HW137439   4.493   5.759   4.003
 8595SOL    HW237440   4.453   5.905   3.941
 8596SOL     OW37441   8.725   9.509   4.320
 8596SOL    HW137442   8.655   9.561   4.271
 8596SOL    HW237443   8.744   9.424   4.271
 8597SOL     OW37444   0.855   1.082   7.767
 8597SOL    HW137445   0.831   1.165   7.716
 8597SOL    HW237446   0.779   1.057   7.827
 8598SOL     OW37447   9.978   5.525   3.794
 8598SOL    HW137448   0.015   5.518   3.701
 8598SOL    HW237449   9.974   5.621   3.822
 8599SOL     OW37450   4.279   4.444   2.186
 8599SOL    HW137451   4.334   4.507   2.240
 8599SOL    HW237452   4.292   4.462   2.089
 8600SOL     OW37453   3.782   9.338   6.069
 8600SOL    HW137454   3.881   9.328   6.055
 8600SOL    HW237455   3.734   9.262   6.026
 8601SOL     OW37456   6.660   4.695  10.077
 8601SOL    HW137457   6.641   4.617   0.054
 8601SOL    HW237458   6.735   4.672  10.014
 8602SOL     OW37459   4.562   5.270   3.365
 8602SOL    HW137460   4.542   5.208   3.441
 8602SOL    HW237461   4.621   5.224   3.298
 8603SOL     OW37462   1.299   6.717   1.618
 8603SOL    HW137463   1.229   6.705   1.687
 8603SOL    HW237464   1.309   6.815   1.597
 8604SOL     OW37465   9.617   1.472   3.376
 8604SOL    HW137466   9.615   1.547   3.442
 8604SOL    HW237467   9.646   1.507   3.287
 8605SOL     OW37468   1.018   2.679   4.940
 8605SOL    HW137469   1.062   2.652   5.025
 8605SOL    HW237470   1.069   2.755   4.899
 8606SOL     OW37471   5.425   4.186   7.602
 8606SOL    HW137472   5.427   4.277   7.644
 8606SOL    HW237473   5.336   4.144   7.620
 8607SOL     OW37474   3.166   3.218   5.970
 8607SOL    HW137475   3.186   3.150   6.040
 8607SOL    HW237476   3.174   3.177   5.879
 8608SOL     OW37477   7.649   3.217   4.583
 8608SOL    HW137478   7.562   3.178   4.553
 8608SOL    HW237479   7.668   3.300   4.531
 8609SOL     OW37480   7.878   3.362   0.957
 8609SOL    HW137481   7.823   3.327   1.033
 8609SOL    HW237482   7.869   3.462   0.952
 8610SOL     OW37483   7.838   7.902   4.297
 8610SOL    HW137484   7.786   7.854   4.226
 8610SOL    HW237485   7.843   7.844   4.378
 8611SOL     OW37486   0.633   6.390   4.951
 8611SOL    HW137487   0.653   6.481   4.915
 8611SOL    HW237488   0.539   6.365   4.928
 8612SOL     OW37489   4.217   9.347   4.487
 8612SOL    HW137490   4.158   9.424   4.511
 8612SOL    HW237491   4.312   9.377   4.490
 8613SOL     OW37492   0.369   5.213   0.994
 8613SOL    HW137493   0.318   5.252   1.071
 8613SOL    HW237494   0.307   5.162   0.935
 8614SOL     OW37495   0.152   6.902   5.031
 8614SOL    HW137496   0.071   6.860   5.073
 8614SOL    HW237497   0.127   6.946   4.946
 8615SOL     OW37498   0.123   8.684   6.709
 8615SOL    HW137499   0.073   8.767   6.685
 8615SOL    HW237500   0.063   8.604   6.701
 8616SOL     OW37501   8.253   5.304   5.213
 8616SOL    HW137502   8.206   5.224   5.252
 8616SOL    HW237503   8.193   5.350   5.148
 8617SOL     OW37504   7.376   5.815   7.251
 8617SOL    HW137505   7.456   5.861   7.290
 8617SOL    HW237506   7.332   5.876   7.185
 8618SOL     OW37507   2.388   8.527   0.897
 8618SOL    HW137508   2.380   8.525   0.997
 8618SOL    HW237509   2.481   8.555   0.873
 8619SOL     OW37510   0.929   2.844   7.835
 8619SOL    HW137511   0.954   2.747   7.829
 8619SOL    HW237512   1.012   2.898   7.848
 8620SOL     OW37513   7.959   1.015   4.863
 8620SOL    HW137514   7.881   1.064   4.901
 8620SOL    HW237515   7.964   0.924   4.904
 8621SOL     OW37516   3.375   1.892   0.775
 8621SOL    HW137517   3.359   1.963   0.706
 8621SOL    HW237518   3.338   1.805   0.742
 8622SOL     OW37519   1.748   7.931   6.455
 8622SOL    HW137520   1.812   7.951   6.529
 8622SOL    HW237521   1.738   8.012   6.397
 8623SOL     OW37522   8.045   8.708   2.873
 8623SOL    HW137523   8.004   8.798   2.859
 8623SOL    HW237524   8.043   8.686   2.971
 8624SOL     OW37525   3.428   1.703   4.775
 8624SOL    HW137526   3.517   1.736   4.744
 8624SOL    HW237527   3.430   1.689   4.874
 8625SOL     OW37528   3.271   8.273   6.977
 8625SOL    HW137529   3.340   8.223   6.925
 8625SOL    HW237530   3.183   8.269   6.929
 8626SOL     OW37531   9.993   5.216   5.655
 8626SOL    HW137532   0.082   5.253   5.679
 8626SOL    HW237533   9.959   5.260   5.572
 8627SOL     OW37534   2.404   2.064   1.384
 8627SOL    HW137535   2.444   2.044   1.294
 8627SOL    HW237536   2.409   1.982   1.441
 8628SOL     OW37537   8.398   2.893   3.688
 8628SOL    HW137538   8.299   2.904   3.679
 8628SOL    HW237539   8.423   2.800   3.661
 8629SOL     OW37540   1.417   5.602   7.679
 8629SOL    HW137541   1.319   5.591   7.697
 8629SOL    HW237542   1.432   5.605   7.580
 8630SOL     OW37543   1.602   0.023   1.551
 8630SOL    HW137544   1.563   9.931   1.552
 8630SOL    HW237545   1.556   0.080   1.618
 8631SOL     OW37546   2.070   2.091   1.199
 8631SOL    HW137547   2.053   2.147   1.281
 8631SOL    HW237548   2.100   2.000   1.227
 8632SOL     OW37549   0.044   8.477   7.775
 8632SOL    HW137550   0.027   8.401   7.713
 8632SOL    HW237551   9.964   8.489   7.835
 8633SOL     OW37552   0.956   7.949   6.534
 8633SOL    HW137553   1.055   7.962   6.531
 8633SOL    HW237554   0.937   7.853   6.557
 8634SOL     OW37555   9.684   5.313   2.030
 8634SOL    HW137556   9.724   5.270   2.110
 8634SOL    HW237557   9.723   5.405   2.018
 8635SOL     OW37558   9.522   9.812   2.464
 8635SOL    HW137559   9.483   9.833   2.374
 8635SOL    HW237560   9.509   9.889   2.525
 8636SOL     OW37561   9.030   6.173   3.006
 8636SOL    HW137562   9.108   6.153   3.066
 8636SOL    HW237563   9.062   6.177   2.911
 8637SOL     OW37564   0.161   6.000   3.903
 8637SOL    HW137565   0.130   6.095   3.898
 8637SOL    HW237566   0.255   5.994   3.869
 8638SOL     OW37567   3.502   0.036   4.142
 8638SOL    HW137568   3.506   9.937   4.146
 8638SOL    HW237569   3.529   0.075   4.230
 8639SOL     OW37570   6.696   8.017   7.283
 8639SOL    HW137571   6.789   8.038   7.254
 8639SOL    HW237572   6.640   7.997   7.202
 8640SOL     OW37573   5.659   9.631   6.940
 8640SOL    HW137574   5.735   9.600   6.997
 8640SOL    HW237575   5.629   9.556   6.881
 8641SOL     OW37576   7.270   5.254   2.685
 8641SOL    HW137577   7.305   5.256   2.592
 8641SOL    HW237578   7.282   5.344   2.728
 8642SOL     OW37579   2.851   5.138   5.516
 8642SOL    HW137580   2.901   5.117   5.600
 8642SOL    HW237581   2.808   5.228   5.524
 8643SOL     OW37582   4.313   2.190   1.199
 8643SOL    HW137583   4.305   2.287   1.180
 8643SOL    HW237584   4.244   2.163   1.267
 8644SOL     OW37585   9.642   9.709   4.383
 8644SOL    HW137586   9.717   9.751   4.332
 8644SOL    HW237587   9.661   9.715   4.481
 8645SOL     OW37588   5.149   8.778   2.785
 8645SOL    HW137589   5.228   8.834   2.763
 8645SOL    HW237590   5.092   8.767   2.704
 8646SOL     OW37591   7.693   2.415   2.632
 8646SOL    HW137592   7.744   2.335   2.664
 8646SOL    HW237593   7.757   2.484   2.598
 8647SOL     OW37594   2.762   4.014   2.384
 8647SOL    HW137595   2.673   3.999   2.427
 8647SOL    HW237596   2.758   4.097   2.328
 8648SOL     OW37597   6.855   7.837   3.490
 8648SOL    HW137598   6.945   7.828   3.534
 8648SOL    HW237599   6.790   7.874   3.556
 8649SOL     OW37600   4.936   7.139   2.276
 8649SOL    HW137601   5.011   7.077   2.299
 8649SOL    HW237602   4.954   7.182   2.187
 8650SOL     OW37603   6.590   7.373   2.955
 8650SOL    HW137604   6.522   7.328   2.897
 8650SOL    HW237605   6.649   7.304   2.997
 8651SOL     OW37606   2.674   4.107   4.367
 8651SOL    HW137607   2.578   4.087   4.385
 8651SOL    HW237608   2.682   4.154   4.279
 8652SOL     OW37609   7.429   3.216   2.491
 8652SOL    HW137610   7.399   3.275   2.417
 8652SOL    HW237611   7.416   3.263   2.579
 8653SOL     OW37612   8.888   3.747   4.459
 8653SOL    HW137613   8.815   3.786   4.403
 8653SOL    HW237614   8.952   3.696   4.402
 8654SOL     OW37615   8.733   5.057   2.383
 8654SOL    HW137616   8.826   5.076   2.353
 8654SOL    HW237617   8.698   4.976   2.336
 8655SOL     OW37618   2.762   2.300   7.320
 8655SOL    HW137619   2.828   2.365   7.359
 8655SOL    HW237620   2.800   2.208   7.323
 8656SOL     OW37621   9.675   2.186   7.169
 8656SOL    HW137622   9.761   2.187   7.118
 8656SOL    HW237623   9.611   2.251   7.129
 8657SOL     OW37624   3.345   2.822   6.018
 8657SOL    HW137625   3.395   2.740   5.992
 8657SOL    HW237626   3.382   2.901   5.969
 8658SOL     OW37627   6.029   2.455   0.546
 8658SOL    HW137628   6.079   2.373   0.517
 8658SOL    HW237629   5.966   2.484   0.474
 8659SOL     OW37630   2.477   1.672   5.985
 8659SOL    HW137631   2.490   1.574   5.998
 8659SOL    HW237632   2.380   1.690   5.965
 8660SOL     OW37633   9.057   2.373   3.411
 8660SOL    HW137634   9.050   2.432   3.492
 8660SOL    HW237635   8.968   2.332   3.393
 8661SOL     OW37636   0.253   3.676   5.570
 8661SOL    HW137637   0.225   3.772   5.576
 8661SOL    HW237638   0.171   3.618   5.570
 8662SOL     OW37639   0.084   1.996   5.831
 8662SOL    HW137640   9.991   2.007   5.795
 8662SOL    HW237641   0.103   1.900   5.848
 8663SOL     OW37642   4.180   8.003   4.563
 8663SOL    HW137643   4.191   8.067   4.640
 8663SOL    HW237644   4.108   8.037   4.502
 8664SOL     OW37645   3.629   2.817   2.624
 8664SOL    HW137646   3.547   2.806   2.568
 8664SOL    HW237647   3.668   2.908   2.608
 8665SOL     OW37648   9.136   7.890   2.893
 8665SOL    HW137649   9.208   7.958   2.903
 8665SOL    HW237650   9.106   7.860   2.984
 8666SOL     OW37651   2.142   8.281   2.715
 8666SOL    HW137652   2.049   8.309   2.742
 8666SOL    HW237653   2.157   8.186   2.742
 8667SOL     OW37654   6.109   0.397   1.987
 8667SOL    HW137655   6.150   0.445   1.910
 8667SOL    HW237656   6.138   0.439   2.073
 8668SOL     OW37657   2.346   2.356   7.597
 8668SOL    HW137658   2.394   2.371   7.511
 8668SOL    HW237659   2.280   2.430   7.612
 8669SOL     OW37660   7.183   9.973   2.827
 8669SOL    HW137661   7.253   9.923   2.880
 8669SOL    HW237662   7.135   0.036   2.888
 8670SOL     OW37663   1.294   8.349   3.683
 8670SOL    HW137664   1.329   8.353   3.589
 8670SOL    HW237665   1.320   8.432   3.732
 8671SOL     OW37666   8.268   7.108   2.294
 8671SOL    HW137667   8.284   7.157   2.209
 8671SOL    HW237668   8.353   7.064   2.324
 8672SOL     OW37669   4.535   4.746   0.467
 8672SOL    HW137670   4.536   4.676   0.395
 8672SOL    HW237671   4.501   4.706   0.552
 8673SOL     OW37672   0.625   9.332   6.657
 8673SOL    HW137673   0.651   9.376   6.571
 8673SOL    HW237674   0.695   9.348   6.726
 8674SOL     OW37675   5.808   7.817   2.719
 8674SOL    HW137676   5.892   7.852   2.677
 8674SOL    HW237677   5.822   7.808   2.818
 8675SOL     OW37678   2.525   1.456   4.765
 8675SOL    HW137679   2.558   1.549   4.778
 8675SOL    HW237680   2.599   1.392   4.784
 8676SOL     OW37681   7.248   5.377   1.398
 8676SOL    HW137682   7.317   5.427   1.450
 8676SOL    HW237683   7.218   5.297   1.450
 8677SOL     OW37684   3.052   3.880   2.128
 8677SOL    HW137685   3.108   3.856   2.207
 8677SOL    HW237686   3.019   3.797   2.083
 8678SOL     OW37687   9.434   3.826   2.530
 8678SOL    HW137688   9.533   3.839   2.516
 8678SOL    HW237689   9.412   3.840   2.626
 8679SOL     OW37690   0.340   5.289   0.668
 8679SOL    HW137691   0.305   5.312   0.577
 8679SOL    HW237692   0.354   5.191   0.675
 8680SOL     OW37693   3.265   3.311   6.690
 8680SOL    HW137694   3.172   3.342   6.709
 8680SOL    HW237695   3.308   3.372   6.623
 8681SOL     OW37696   3.719   3.009   4.069
 8681SOL    HW137697   3.680   3.057   4.148
 8681SOL    HW237698   3.683   2.916   4.066
 8682SOL     OW37699   4.104   1.782   6.596
 8682SOL    HW137700   4.024   1.803   6.652
 8682SOL    HW237701   4.184   1.826   6.636
 8683SOL     OW37702   8.461   7.661   5.686
 8683SOL    HW137703   8.490   7.611   5.605
 8683SOL    HW237704   8.420   7.748   5.659
 8684SOL     OW37705   1.516   3.168   4.659
 8684SOL    HW137706   1.527   3.112   4.576
 8684SOL    HW237707   1.606   3.189   4.697
 8685SOL     OW37708   8.475   1.132   0.314
 8685SOL    HW137709   8.445   1.068   0.243
 8685SOL    HW237710   8.493   1.081   0.398
 8686SOL     OW37711   4.853   1.919   4.716
 8686SOL    HW137712   4.805   1.876   4.640
 8686SOL    HW237713   4.787   1.964   4.776
 8687SOL     OW37714   6.038   5.813   0.113
 8687SOL    HW137715   5.944   5.846   0.104
 8687SOL    HW237716   6.057   5.748   0.040
 8688SOL     OW37717   4.858   9.744   1.734
 8688SOL    HW137718   4.945   9.781   1.766
 8688SOL    HW237719   4.811   9.812   1.677
 8689SOL     OW37720   9.848   3.061   4.221
 8689SOL    HW137721   9.852   3.083   4.319
 8689SOL    HW237722   9.780   2.990   4.205
 8690SOL     OW37723   2.621   0.613   3.354
 8690SOL    HW137724   2.606   0.591   3.258
 8690SOL    HW237725   2.539   0.658   3.391
 8691SOL     OW37726   0.233   2.741   4.239
 8691SOL    HW137727   0.140   2.715   4.217
 8691SOL    HW237728   0.262   2.816   4.180
 8692SOL     OW37729   8.392   9.655   4.870
 8692SOL    HW137730   8.336   9.626   4.948
 8692SOL    HW237731   8.430   9.574   4.824
 8693SOL     OW37732   4.475   1.448   4.387
 8693SOL    HW137733   4.389   1.436   4.437
 8693SOL    HW237734   4.494   1.545   4.375
 8694SOL     OW37735   8.831   1.370   1.634
 8694SOL    HW137736   8.787   1.456   1.659
 8694SOL    HW237737   8.914   1.389   1.581
 8695SOL     OW37738   1.545   8.485   7.428
 8695SOL    HW137739   1.574   8.419   7.359
 8695SOL    HW237740   1.445   8.484   7.436
 8696SOL     OW37741   1.367   5.509   7.008
 8696SOL    HW137742   1.308   5.529   7.086
 8696SOL    HW237743   1.331   5.555   6.927
 8697SOL     OW37744   1.892   7.119   3.550
 8697SOL    HW137745   1.873   7.027   3.582
 8697SOL    HW237746   1.921   7.116   3.454
 8698SOL     OW37747   7.584   1.073   5.814
 8698SOL    HW137748   7.657   1.043   5.875
 8698SOL    HW237749   7.568   1.003   5.744
 8699SOL     OW37750   3.618   6.260   5.447
 8699SOL    HW137751   3.629   6.244   5.349
 8699SOL    HW237752   3.646   6.353   5.469
 8700SOL     OW37753   5.558   2.642   5.123
 8700SOL    HW137754   5.523   2.731   5.154
 8700SOL    HW237755   5.642   2.620   5.173
 8701SOL     OW37756   0.776   5.679   4.844
 8701SOL    HW137757   0.749   5.682   4.940
 8701SOL    HW237758   0.866   5.637   4.836
 8702SOL     OW37759   8.472   1.120   5.771
 8702SOL    HW137760   8.497   1.091   5.679
 8702SOL    HW237761   8.373   1.109   5.784
 8703SOL     OW37762   8.925   0.822   2.767
 8703SOL    HW137763   9.003   0.810   2.829
 8703SOL    HW237764   8.841   0.795   2.815
 8704SOL     OW37765   0.749   7.880   1.694
 8704SOL    HW137766   0.778   7.802   1.640
 8704SOL    HW237767   0.732   7.851   1.788
 8705SOL     OW37768   5.159   9.655   4.784
 8705SOL    HW137769   5.136   9.559   4.768
 8705SOL    HW237770   5.254   9.662   4.814
 8706SOL     OW37771   3.737   0.203   7.135
 8706SOL    HW137772   3.686   0.125   7.171
 8706SOL    HW237773   3.834   0.179   7.129
 8707SOL     OW37774   7.648   0.376   0.987
 8707SOL    HW137775   7.649   0.427   1.073
 8707SOL    HW237776   7.728   0.317   0.981
 8708SOL     OW37777   7.010   1.936   5.464
 8708SOL    HW137778   6.988   2.033   5.477
 8708SOL    HW237779   6.930   1.880   5.487
 8709SOL     OW37780   4.295   8.218   3.748
 8709SOL    HW137781   4.370   8.160   3.779
 8709SOL    HW237782   4.243   8.171   3.677
 8710SOL     OW37783   3.396   8.082   1.577
 8710SOL    HW137784   3.307   8.071   1.621
 8710SOL    HW237785   3.384   8.126   1.488
 8711SOL     OW37786   7.989   7.119   6.499
 8711SOL    HW137787   8.079   7.125   6.456
 8711SOL    HW237788   7.972   7.202   6.553
 8712SOL     OW37789   3.785   1.510   0.304
 8712SOL    HW137790   3.692   1.523   0.269
 8712SOL    HW237791   3.780   1.464   0.393
 8713SOL     OW37792   0.394   0.725   1.747
 8713SOL    HW137793   0.304   0.763   1.725
 8713SOL    HW237794   0.465   0.780   1.704
 8714SOL     OW37795   6.368   7.320   2.554
 8714SOL    HW137796   6.382   7.300   2.650
 8714SOL    HW237797   6.305   7.397   2.545
 8715SOL     OW37798   2.972   6.438   4.731
 8715SOL    HW137799   2.915   6.415   4.651
 8715SOL    HW237800   3.043   6.368   4.741
 8716SOL     OW37801   3.387   4.249   7.665
 8716SOL    HW137802   3.428   4.163   7.635
 8716SOL    HW237803   3.306   4.230   7.721
 8717SOL     OW37804   3.550   0.651   4.015
 8717SOL    HW137805   3.514   0.651   3.922
 8717SOL    HW237806   3.528   0.563   4.059
 8718SOL     OW37807   3.464   9.961   6.716
 8718SOL    HW137808   3.490   9.942   6.811
 8718SOL    HW237809   3.484   9.881   6.659
 8719SOL     OW37810   8.725   4.032   6.489
 8719SOL    HW137811   8.790   4.102   6.461
 8719SOL    HW237812   8.643   4.075   6.526
 8720SOL     OW37813   5.840   1.575   0.778
 8720SOL    HW137814   5.778   1.550   0.853
 8720SOL    HW237815   5.904   1.644   0.809
 8721SOL     OW37816   8.509   4.854   1.466
 8721SOL    HW137817   8.597   4.832   1.509
 8721SOL    HW237818   8.478   4.945   1.497
 8722SOL     OW37819   1.974   6.614   6.222
 8722SOL    HW137820   2.069   6.591   6.244
 8722SOL    HW237821   1.948   6.697   6.272
 8723SOL     OW37822   8.617   1.972   3.762
 8723SOL    HW137823   8.539   1.933   3.809
 8723SOL    HW237824   8.616   1.943   3.666
 8724SOL     OW37825   5.894   9.993   2.521
 8724SOL    HW137826   5.952   9.921   2.483
 8724SOL    HW237827   5.951   0.064   2.562
 8725SOL     OW37828   9.812   9.511   7.546
 8725SOL    HW137829   9.907   9.540   7.551
 8725SOL    HW237830   9.805   9.428   7.491
 8726SOL     OW37831   3.336   0.729   5.048
 8726SOL    HW137832   3.296   0.651   5.096
 8726SOL    HW237833   3.398   0.778   5.110
 8727SOL     OW37834   0.802   1.279   4.942
 8727SOL    HW137835   0.815   1.193   4.893
 8727SOL    HW237836   0.715   1.320   4.916
 8728SOL     OW37837   0.556   5.764   1.907
 8728SOL    HW137838   0.553   5.863   1.921
 8728SOL    HW237839   0.526   5.742   1.815
 8729SOL     OW37840   0.381   4.649   0.840
 8729SOL    HW137841   0.431   4.682   0.760
 8729SOL    HW237842   0.374   4.549   0.835
 8730SOL     OW37843   4.751   7.021   2.685
 8730SOL    HW137844   4.811   7.097   2.664
 8730SOL    HW237845   4.805   6.943   2.717
 8731SOL     OW37846   2.245   5.087   0.615
 8731SOL    HW137847   2.214   5.162   0.557
 8731SOL    HW237848   2.168   5.053   0.670
 8732SOL     OW37849   1.298   9.881   4.136
 8732SOL    HW137850   1.386   9.888   4.090
 8732SOL    HW237851   1.297   9.798   4.192
 8733SOL     OW37852   8.356   3.872   2.380
 8733SOL    HW137853   8.382   3.797   2.320
 8733SOL    HW237854   8.415   3.951   2.363
 8734SOL     OW37855   9.990   0.813   0.048
 8734SOL    HW137856   0.039   0.772  10.052
 8734SOL    HW237857   9.990   0.913   0.038
 8735SOL     OW37858   3.252   1.300   3.380
 8735SOL    HW137859   3.179   1.232   3.390
 8735SOL    HW237860   3.222   1.388   3.415
 8736SOL     OW37861   7.766   3.884   0.412
 8736SOL    HW137862   7.836   3.824   0.449
 8736SOL    HW237863   7.749   3.860   0.316
 8737SOL     OW37864   4.375   0.775   3.582
 8737SOL    HW137865   4.361   0.850   3.518
 8737SOL    HW237866   4.422   0.810   3.663
 8738SOL     OW37867   9.790   2.600   1.644
 8738SOL    HW137868   9.838   2.513   1.651
 8738SOL    HW237869   9.694   2.588   1.668
 8739SOL     OW37870   5.685   1.466   0.980
 8739SOL    HW137871   5.720   1.521   1.056
 8739SOL    HW237872   5.586   1.473   0.976
 8740SOL     OW37873   3.705   4.377   2.575
 8740SOL    HW137874   3.740   4.462   2.535
 8740SOL    HW237875   3.779   4.310   2.581
 8741SOL     OW37876   5.244   1.828   7.841
 8741SOL    HW137877   5.208   1.920   7.822
 8741SOL    HW237878   5.197   1.789   7.920
 8742SOL     OW37879   0.225   5.503   2.504
 8742SOL    HW137880   0.236   5.405   2.484
 8742SOL    HW237881   0.215   5.553   2.418
 8743SOL     OW37882   9.761   7.579   3.531
 8743SOL    HW137883   9.795   7.637   3.606
 8743SOL    HW237884   9.819   7.591   3.451
 8744SOL     OW37885   2.659   7.583   0.697
 8744SOL    HW137886   2.719   7.662   0.680
 8744SOL    HW237887   2.705   7.520   0.759
 8745SOL     OW37888   2.413   8.318   5.286
 8745SOL    HW137889   2.426   8.308   5.385
 8745SOL    HW237890   2.318   8.343   5.267
 8746SOL     OW37891   3.172   2.399   6.080
 8746SOL    HW137892   3.131   2.440   6.161
 8746SOL    HW237893   3.263   2.365   6.102
 8747SOL     OW37894   5.712   9.707   4.814
 8747SOL    HW137895   5.715   9.636   4.744
 8747SOL    HW237896   5.787   9.694   4.879
 8748SOL     OW37897   8.392   7.627   1.352
 8748SOL    HW137898   8.391   7.618   1.252
 8748SOL    HW237899   8.317   7.688   1.380
 8749SOL     OW37900   1.552   5.188   1.408
 8749SOL    HW137901   1.495   5.234   1.339
 8749SOL    HW237902   1.647   5.189   1.378
 8750SOL     OW37903   4.019   2.744   6.207
 8750SOL    HW137904   4.037   2.675   6.137
 8750SOL    HW237905   3.924   2.735   6.239
 8751SOL     OW37906   9.823   1.879   7.798
 8751SOL    HW137907   9.859   1.793   7.835
 8751SOL    HW237908   9.762   1.859   7.721
 8752SOL     OW37909   8.334   9.117   3.404
 8752SOL    HW137910   8.401   9.190   3.410
 8752SOL    HW237911   8.375   9.031   3.433
 8753SOL     OW37912   9.145   7.884   0.513
 8753SOL    HW137913   9.194   7.875   0.600
 8753SOL    HW237914   9.095   7.800   0.495
 8754SOL     OW37915   2.349   6.576   7.799
 8754SOL    HW137916   2.418   6.648   7.803
 8754SOL    HW237917   2.269   6.610   7.750
 8755SOL     OW37918   1.572   2.667   7.321
 8755SOL    HW137919   1.506   2.714   7.379
 8755SOL    HW237920   1.567   2.569   7.336
 8756SOL     OW37921   7.934   1.033   5.707
 8756SOL    HW137922   7.876   1.028   5.789
 8756SOL    HW237923   7.893   1.096   5.641
 8757SOL     OW37924   7.758   2.398   0.225
 8757SOL    HW137925   7.856   2.395   0.203
 8757SOL    HW237926   7.713   2.316   0.190
 8758SOL     OW37927   3.809   6.211   7.223
 8758SOL    HW137928   3.728   6.153   7.239
 8758SOL    HW237929   3.782   6.291   7.170
 8759SOL     OW37930   2.153   3.394   0.110
 8759SOL    HW137931   2.088   3.394   0.186
 8759SOL    HW237932   2.146   3.481   0.061
 8760SOL     OW37933   7.184   8.115   2.834
 8760SOL    HW137934   7.193   8.118   2.735
 8760SOL    HW237935   7.223   8.198   2.873
 8761SOL     OW37936   7.622   2.155   0.172
 8761SOL    HW137937   7.654   2.122   0.260
 8761SOL    HW237938   7.612   2.078   0.109
 8762SOL     OW37939   8.781   6.083   3.057
 8762SOL    HW137940   8.867   6.132   3.046
 8762SOL    HW237941   8.799   5.989   3.085
 8763SOL     OW37942   1.951   7.250   1.457
 8763SOL    HW137943   2.049   7.267   1.443
 8763SOL    HW237944   1.901   7.275   1.375
 8764SOL     OW37945   0.383   1.007   1.462
 8764SOL    HW137946   0.291   0.978   1.435
 8764SOL    HW237947   0.444   1.005   1.382
 8765SOL     OW37948   2.668   1.661   7.863
 8765SOL    HW137949   2.587   1.713   7.890
 8765SOL    HW237950   2.689   1.678   7.767
 8766SOL     OW37951   1.425   0.331   1.466
 8766SOL    HW137952   1.435   0.271   1.545
 8766SOL    HW237953   1.474   0.417   1.483
 8767SOL     OW37954   5.422   1.226   6.854
 8767SOL    HW137955   5.520   1.245   6.844
 8767SOL    HW237956   5.371   1.274   6.782
 8768SOL     OW37957   3.912   3.096   6.411
 8768SOL    HW137958   3.929   3.194   6.402
 8768SOL    HW237959   3.858   3.064   6.333
 8769SOL     OW37960   9.453   5.001   2.125
 8769SOL    HW137961   9.440   4.991   2.223
 8769SOL    HW237962   9.436   5.096   2.098
 8770SOL     OW37963   8.399   9.489   2.003
 8770SOL    HW137964   8.331   9.535   2.059
 8770SOL    HW237965   8.450   9.556   1.950
 8771SOL     OW37966   2.258   5.344   2.698
 8771SOL    HW137967   2.207   5.271   2.743
 8771SOL    HW237968   2.290   5.312   2.608
 8772SOL     OW37969   7.571   7.445   4.812
 8772SOL    HW137970   7.608   7.451   4.905
 8772SOL    HW237971   7.481   7.487   4.809
 8773SOL     OW37972   4.211   6.614   2.133
 8773SOL    HW137973   4.258   6.701   2.117
 8773SOL    HW237974   4.262   6.540   2.089
 8774SOL     OW37975   7.913   4.409   7.085
 8774SOL    HW137976   7.941   4.501   7.058
 8774SOL    HW237977   7.939   4.344   7.014
 8775SOL     OW37978   2.122   6.434   3.026
 8775SOL    HW137979   2.212   6.448   2.985
 8775SOL    HW237980   2.109   6.499   3.102
 8776SOL     OW37981   5.248   9.611   7.493
 8776SOL    HW137982   5.213   9.540   7.433
 8776SOL    HW237983   5.230   9.701   7.453
 8777SOL     OW37984   4.876   4.654   0.547
 8777SOL    HW137985   4.855   4.716   0.471
 8777SOL    HW237986   4.860   4.700   0.634
 8778SOL     OW37987   2.607   9.561   0.142
 8778SOL    HW137988   2.521   9.556   0.091
 8778SOL    HW237989   2.588   9.594   0.234
 8779SOL     OW37990   6.302   9.941   5.366
 8779SOL    HW137991   6.215   9.990   5.358
 8779SOL    HW237992   6.368   9.997   5.416
 8780SOL     OW37993   6.570   3.714   0.780
 8780SOL    HW137994   6.477   3.750   0.783
 8780SOL    HW237995   6.571   3.631   0.725
 8781SOL     OW37996   7.027   7.305   5.586
 8781SOL    HW137997   6.953   7.360   5.547
 8781SOL    HW237998   7.077   7.259   5.512
 8782SOL     OW37999   5.372   0.784   4.192
 8782SOL    HW138000   5.377   0.729   4.109
 8782SOL    HW238001   5.369   0.724   4.272
 8783SOL     OW38002   9.231   2.792   0.539
 8783SOL    HW138003   9.316   2.835   0.570
 8783SOL    HW238004   9.251   2.735   0.459
 8784SOL     OW38005   0.410   4.196   2.202
 8784SOL    HW138006   0.504   4.197   2.234
 8784SOL    HW238007   0.392   4.111   2.152
 8785SOL     OW38008   1.548   7.467   6.930
 8785SOL    HW138009   1.575   7.377   6.898
 8785SOL    HW238010   1.448   7.474   6.930
 8786SOL     OW38011   7.682   6.922   6.131
 8786SOL    HW138012   7.713   6.974   6.211
 8786SOL    HW238013   7.719   6.964   6.048
 8787SOL     OW38014   6.022   0.653   7.360
 8787SOL    HW138015   5.975   0.571   7.394
 8787SOL    HW238016   6.116   0.629   7.334
 8788SOL     OW38017   5.741   9.278   5.920
 8788SOL    HW138018   5.752   9.228   6.006
 8788SOL    HW238019   5.803   9.241   5.851
 8789SOL     OW38020   7.923   8.542   5.510
 8789SOL    HW138021   7.980   8.467   5.477
 8789SOL    HW238022   7.860   8.570   5.438
 8790SOL     OW38023   4.386   8.436   0.934
 8790SOL    HW138024   4.379   8.348   0.888
 8790SOL    HW238025   4.374   8.510   0.868
 8791SOL     OW38026   7.933   3.931   0.734
 8791SOL    HW138027   7.990   3.894   0.661
 8791SOL    HW238028   7.981   3.923   0.822
 8792SOL     OW38029   0.776   5.026   7.279
 8792SOL    HW138030   0.849   5.003   7.344
 8792SOL    HW238031   0.699   4.962   7.292
 8793SOL     OW38032   2.804   4.301   6.060
 8793SOL    HW138033   2.734   4.368   6.084
 8793SOL    HW238034   2.888   4.320   6.111
 8794SOL     OW38035   1.378   1.359   5.075
 8794SOL    HW138036   1.321   1.348   4.994
 8794SOL    HW238037   1.430   1.444   5.067
 8795SOL     OW38038   7.846   5.374   2.131
 8795SOL    HW138039   7.870   5.462   2.090
 8795SOL    HW238040   7.889   5.300   2.080
 8796SOL     OW38041   3.167   8.616   0.510
 8796SOL    HW138042   3.153   8.711   0.481
 8796SOL    HW238043   3.264   8.602   0.530
 8797SOL     OW38044   8.880   2.420   7.152
 8797SOL    HW138045   8.961   2.361   7.159
 8797SOL    HW238046   8.802   2.374   7.193
 8798SOL     OW38047   9.256   4.936   3.830
 8798SOL    HW138048   9.185   4.917   3.898
 8798SOL    HW238049   9.293   5.028   3.845
 8799SOL     OW38050   5.227   9.773   7.132
 8799SOL    HW138051   5.195   9.771   7.038
 8799SOL    HW238052   5.324   9.750   7.136
 8800SOL     OW38053   5.364   1.976   7.484
 8800SOL    HW138054   5.387   2.009   7.575
 8800SOL    HW238055   5.393   1.881   7.474
 8801SOL     OW38056   8.585   8.639   7.229
 8801SOL    HW138057   8.571   8.704   7.304
 8801SOL    HW238058   8.636   8.560   7.262
 8802SOL     OW38059   0.781   1.031   1.500
 8802SOL    HW138060   0.877   1.044   1.525
 8802SOL    HW238061   0.774   1.013   1.402
 8803SOL     OW38062   1.386   2.983   7.324
 8803SOL    HW138063   1.294   3.007   7.294
 8803SOL    HW238064   1.381   2.915   7.397
 8804SOL     OW38065   0.627   3.794   2.986
 8804SOL    HW138066   0.699   3.782   3.054
 8804SOL    HW238067   0.594   3.704   2.957
 8805SOL     OW38068   4.329   4.132   1.486
 8805SOL    HW138069   4.233   4.115   1.465
 8805SOL    HW238070   4.386   4.061   1.445
 8806SOL     OW38071   9.475   0.589   7.049
 8806SOL    HW138072   9.384   0.574   7.012
 8806SOL    HW238073   9.473   0.577   7.148
 8807SOL     OW38074   1.524   2.147   4.472
 8807SOL    HW138075   1.501   2.198   4.555
 8807SOL    HW238076   1.487   2.054   4.480
 8808SOL     OW38077   0.011   7.615   4.194
 8808SOL    HW138078   0.012   7.598   4.095
 8808SOL    HW238079   0.009   7.528   4.243
 8809SOL     OW38080   0.053   9.242   1.489
 8809SOL    HW138081   0.043   9.247   1.588
 8809SOL    HW238082   0.046   9.146   1.459
 8810SOL     OW38083   0.306   5.950   2.552
 8810SOL    HW138084   0.263   5.916   2.468
 8810SOL    HW238085   0.404   5.959   2.538
 8811SOL     OW38086   0.659   6.181   5.365
 8811SOL    HW138087   0.573   6.232   5.361
 8811SOL    HW238088   0.707   6.190   5.278
 8812SOL     OW38089   3.945   2.197   3.824
 8812SOL    HW138090   3.969   2.134   3.750
 8812SOL    HW238091   3.930   2.147   3.909
 8813SOL     OW38092   2.390   4.531   4.590
 8813SOL    HW138093   2.406   4.619   4.546
 8813SOL    HW238094   2.357   4.546   4.683
 8814SOL     OW38095   3.075   0.762   0.868
 8814SOL    HW138096   2.988   0.781   0.823
 8814SOL    HW238097   3.139   0.721   0.802
 8815SOL     OW38098   6.232   1.780   4.975
 8815SOL    HW138099   6.311   1.719   4.969
 8815SOL    HW238100   6.148   1.726   4.971
 8816SOL     OW38101   2.978   2.265   1.325
 8816SOL    HW138102   3.013   2.185   1.375
 8816SOL    HW238103   2.900   2.304   1.374
 8817SOL     OW38104   7.642   7.986   5.932
 8817SOL    HW138105   7.741   7.979   5.933
 8817SOL    HW238106   7.608   7.989   6.026
 8818SOL     OW38107   4.597   4.993   4.221
 8818SOL    HW138108   4.542   4.983   4.139
 8818SOL    HW238109   4.626   4.902   4.253
 8819SOL     OW38110   8.119   2.255   5.480
 8819SOL    HW138111   8.187   2.206   5.535
 8819SOL    HW238112   8.128   2.228   5.384
 8820SOL     OW38113   1.712   3.415   1.175
 8820SOL    HW138114   1.748   3.398   1.267
 8820SOL    HW238115   1.621   3.458   1.182
 8821SOL     OW38116   0.458   5.828   4.592
 8821SOL    HW138117   0.378   5.795   4.542
 8821SOL    HW238118   0.460   5.786   4.683
 8822SOL     OW38119   0.912   7.677   7.663
 8822SOL    HW138120   0.821   7.644   7.686
 8822SOL    HW238121   0.942   7.743   7.732
 8823SOL     OW38122   8.238   9.406   5.652
 8823SOL    HW138123   8.245   9.319   5.604
 8823SOL    HW238124   8.283   9.478   5.598
 8824SOL     OW38125   1.283   6.239   4.737
 8824SOL    HW138126   1.211   6.308   4.748
 8824SOL    HW238127   1.246   6.161   4.686
 8825SOL     OW38128   8.273   7.901   0.381
 8825SOL    HW138129   8.215   7.848   0.443
 8825SOL    HW238130   8.262   7.868   0.287
 8826SOL     OW38131   7.680   3.992   7.188
 8826SOL    HW138132   7.674   4.014   7.091
 8826SOL    HW238133   7.768   3.950   7.207
 8827SOL     OW38134   9.005   2.142   5.030
 8827SOL    HW138135   8.932   2.187   5.081
 8827SOL    HW238136   9.031   2.198   4.952
 8828SOL     OW38137   0.117   3.184   1.995
 8828SOL    HW138138   0.022   3.207   1.972
 8828SOL    HW238139   0.167   3.268   2.014
 8829SOL     OW38140   9.164   9.117   0.156
 8829SOL    HW138141   9.193   9.026   0.125
 8829SOL    HW238142   9.075   9.140   0.116
 8830SOL     OW38143   2.888   2.612   1.211
 8830SOL    HW138144   2.810   2.636   1.268
 8830SOL    HW238145   2.970   2.607   1.268
 8831SOL     OW38146   8.358   6.002   0.912
 8831SOL    HW138147   8.265   5.980   0.942
 8831SOL    HW238148   8.397   5.923   0.864
 8832SOL     OW38149   9.656   4.245   6.040
 8832SOL    HW138150   9.740   4.278   6.082
 8832SOL    HW238151   9.591   4.220   6.112
 8833SOL     OW38152   6.357   2.310   3.519
 8833SOL    HW138153   6.446   2.353   3.504
 8833SOL    HW238154   6.301   2.321   3.437
 8834SOL     OW38155   3.530   3.758   6.875
 8834SOL    HW138156   3.577   3.699   6.810
 8834SOL    HW238157   3.542   3.854   6.848
 8835SOL     OW38158   1.458   6.162   2.503
 8835SOL    HW138159   1.517   6.164   2.583
 8835SOL    HW238160   1.392   6.238   2.507
 8836SOL     OW38161   0.690   8.937   3.885
 8836SOL    HW138162   0.685   8.839   3.905
 8836SOL    HW238163   0.786   8.965   3.882
 8837SOL     OW38164   6.410   9.358   6.815
 8837SOL    HW138165   6.502   9.358   6.775
 8837SOL    HW238166   6.346   9.399   6.750
 8838SOL     OW38167   8.148   4.742   3.998
 8838SOL    HW138168   8.131   4.682   4.076
 8838SOL    HW238169   8.132   4.691   3.913
 8839SOL     OW38170   8.243   9.541   1.227
 8839SOL    HW138171   8.237   9.456   1.173
 8839SOL    HW238172   8.155   9.588   1.224
 8840SOL     OW38173   2.898   0.993   2.291
 8840SOL    HW138174   2.850   0.992   2.203
 8840SOL    HW238175   2.983   1.045   2.282
 8841SOL     OW38176   1.037   7.795   0.934
 8841SOL    HW138177   1.120   7.773   0.883
 8841SOL    HW238178   0.962   7.810   0.869
 8842SOL     OW38179   8.259   9.458   5.927
 8842SOL    HW138180   8.251   9.435   5.830
 8842SOL    HW238181   8.324   9.533   5.938
 8843SOL     OW38182   0.683   3.755   5.511
 8843SOL    HW138183   0.766   3.698   5.513
 8843SOL    HW238184   0.615   3.716   5.572
 8844SOL     OW38185   3.435   2.553   0.263
 8844SOL    HW138186   3.448   2.509   0.174
 8844SOL    HW238187   3.472   2.494   0.335
 8845SOL     OW38188   1.739   7.968   2.533
 8845SOL    HW138189   1.678   7.931   2.604
 8845SOL    HW238190   1.697   8.049   2.493
 8846SOL     OW38191   9.060   7.325   7.114
 8846SOL    HW138192   9.088   7.339   7.209
 8846SOL    HW238193   9.043   7.413   7.071
 8847SOL     OW38194   1.387   0.715   1.603
 8847SOL    HW138195   1.394   0.811   1.633
 8847SOL    HW238196   1.308   0.673   1.646
 8848SOL     OW38197   2.932   0.463   2.820
 8848SOL    HW138198   2.934   0.492   2.916
 8848SOL    HW238199   3.019   0.486   2.776
 8849SOL     OW38200   6.058   0.204   4.126
 8849SOL    HW138201   5.992   0.279   4.128
 8849SOL    HW238202   6.133   0.224   4.190
 8850SOL     OW38203   3.443   9.357   6.017
 8850SOL    HW138204   3.515   9.289   6.006
 8850SOL    HW238205   3.442   9.417   5.937
 8851SOL     OW38206   1.839   2.791   5.186
 8851SOL    HW138207   1.864   2.741   5.269
 8851SOL    HW238208   1.922   2.828   5.144
 8852SOL     OW38209   1.323   8.385   2.989
 8852SOL    HW138210   1.400   8.402   3.050
 8852SOL    HW238211   1.268   8.468   2.981
 8853SOL     OW38212   6.784   5.333   6.664
 8853SOL    HW138213   6.859   5.294   6.611
 8853SOL    HW238214   6.818   5.411   6.717
 8854SOL     OW38215   8.712   5.459   6.381
 8854SOL    HW138216   8.778   5.493   6.314
 8854SOL    HW238217   8.751   5.382   6.431
 8855SOL     OW38218   7.331   4.958   3.650
 8855SOL    HW138219   7.349   5.050   3.614
 8855SOL    HW238220   7.398   4.937   3.722
 8856SOL     OW38221   3.483   7.748   3.537
 8856SOL    HW138222   3.508   7.795   3.453
 8856SOL    HW238223   3.539   7.666   3.548
 8857SOL     OW38224   1.153   7.788   2.040
 8857SOL    HW138225   1.089   7.859   2.011
 8857SOL    HW238226   1.229   7.831   2.091
 8858SOL     OW38227   7.228   7.334   3.877
 8858SOL    HW138228   7.199   7.429   3.885
 8858SOL    HW238229   7.148   7.274   3.886
 8859SOL     OW38230   7.630   1.141   7.558
 8859SOL    HW138231   7.560   1.072   7.580
 8859SOL    HW238232   7.719   1.109   7.591
 8860SOL     OW38233   9.302   7.734   2.345
 8860SOL    HW138234   9.241   7.703   2.273
 8860SOL    HW238235   9.250   7.786   2.412
 8861SOL     OW38236   1.920   6.007   5.008
 8861SOL    HW138237   1.979   5.930   5.031
 8861SOL    HW238238   1.975   6.083   4.975
 8862SOL     OW38239   9.773   2.349   4.436
 8862SOL    HW138240   9.748   2.262   4.394
 8862SOL    HW238241   9.872   2.364   4.427
 8863SOL     OW38242   2.360   3.718   1.266
 8863SOL    HW138243   2.273   3.669   1.266
 8863SOL    HW238244   2.360   3.785   1.340
 8864SOL     OW38245   4.503   6.109   0.747
 8864SOL    HW138246   4.430   6.145   0.806
 8864SOL    HW238247   4.533   6.180   0.683
 8865SOL     OW38248   2.858   5.511   4.170
 8865SOL    HW138249   2.948   5.474   4.193
 8865SOL    HW238250   2.867   5.575   4.094
 8866SOL     OW38251   4.213   1.523   3.467
 8866SOL    HW138252   4.312   1.534   3.472
 8866SOL    HW238253   4.176   1.581   3.395
 8867SOL     OW38254   4.866   1.501   5.162
 8867SOL    HW138255   4.827   1.593   5.165
 8867SOL    HW238256   4.946   1.497   5.222
 8868SOL     OW38257   4.209   0.203   0.466
 8868SOL    HW138258   4.233   0.127   0.527
 8868SOL    HW238259   4.260   0.193   0.381
 8869SOL     OW38260   8.325   9.224   6.065
 8869SOL    HW138261   8.300   9.310   6.021
 8869SOL    HW238262   8.259   9.203   6.137
 8870SOL     OW38263   4.457   3.620   6.482
 8870SOL    HW138264   4.503   3.537   6.514
 8870SOL    HW238265   4.359   3.603   6.476
 8871SOL     OW38266   8.081   9.561   1.898
 8871SOL    HW138267   8.007   9.496   1.912
 8871SOL    HW238268   8.127   9.579   1.985
 8872SOL     OW38269   6.453   9.525   4.520
 8872SOL    HW138270   6.527   9.504   4.457
 8872SOL    HW238271   6.454   9.623   4.542
 8873SOL     OW38272   9.028   1.087   1.200
 8873SOL    HW138273   8.989   1.158   1.142
 8873SOL    HW238274   9.099   1.037   1.150
 8874SOL     OW38275   8.039   2.932   5.716
 8874SOL    HW138276   8.082   2.994   5.782
 8874SOL    HW238277   7.964   2.979   5.670
 8875SOL     OW38278   8.987   2.195   6.230
 8875SOL    HW138279   8.913   2.234   6.176
 8875SOL    HW238280   8.956   2.179   6.323
 8876SOL     OW38281   2.689   4.557   0.596
 8876SOL    HW138282   2.656   4.638   0.547
 8876SOL    HW238283   2.779   4.576   0.635
 8877SOL     OW38284   8.743   8.544   4.888
 8877SOL    HW138285   8.751   8.468   4.823
 8877SOL    HW238286   8.674   8.608   4.855
 8878SOL     OW38287   8.650   0.758   5.558
 8878SOL    HW138288   8.607   0.677   5.599
 8878SOL    HW238289   8.644   0.752   5.458
 8879SOL     OW38290   0.117   8.034   0.034
 8879SOL    HW138291   0.069   7.955   0.073
 8879SOL    HW238292   0.214   8.013   0.025
 8880SOL     OW38293   8.624   5.798   3.233
 8880SOL    HW138294   8.711   5.801   3.183
 8880SOL    HW238295   8.552   5.839   3.177
 8881SOL     OW38296   0.197   3.542   6.004
 8881SOL    HW138297   0.146   3.595   5.935
 8881SOL    HW238298   0.275   3.595   6.036
 8882SOL     OW38299   2.069   6.775   3.795
 8882SOL    HW138300   2.110   6.685   3.786
 8882SOL    HW238301   2.035   6.787   3.888
 8883SOL     OW38302   8.021   1.652   3.145
 8883SOL    HW138303   8.037   1.730   3.206
 8883SOL    HW238304   8.089   1.654   3.071
 8884SOL     OW38305   1.136   5.299   7.312
 8884SOL    HW138306   1.054   5.278   7.258
 8884SOL    HW238307   1.205   5.228   7.297
 8885SOL     OW38308   2.285   1.418   5.577
 8885SOL    HW138309   2.332   1.405   5.490
 8885SOL    HW238310   2.228   1.500   5.573
 8886SOL     OW38311   9.399   8.061   3.741
 8886SOL    HW138312   9.308   8.075   3.780
 8886SOL    HW238313   9.465   8.119   3.788
 8887SOL     OW38314   5.581   7.645   2.745
 8887SOL    HW138315   5.671   7.686   2.731
 8887SOL    HW238316   5.524   7.661   2.665
 8888SOL     OW38317   9.033   1.130   4.086
 8888SOL    HW138318   8.948   1.108   4.133
 8888SOL    HW238319   9.016   1.134   3.987
 8889SOL     OW38320   2.244   2.825   3.375
 8889SOL    HW138321   2.271   2.910   3.421
 8889SOL    HW238322   2.156   2.794   3.412
 8890SOL     OW38323   1.072   9.741   0.804
 8890SOL    HW138324   1.140   9.679   0.764
 8890SOL    HW238325   1.120   9.817   0.849
 8891SOL     OW38326   0.272   5.081   1.805
 8891SOL    HW138327   0.294   5.005   1.866
 8891SOL    HW238328   0.228   5.046   1.723
 8892SOL     OW38329   0.099   8.792   3.313
 8892SOL    HW138330   0.027   8.773   3.380
 8892SOL    HW238331   0.085   8.737   3.231
 8893SOL     OW38332   8.639   2.507   2.575
 8893SOL    HW138333   8.661   2.411   2.596
 8893SOL    HW238334   8.712   2.546   2.520
 8894SOL     OW38335   6.665   0.420   6.200
 8894SOL    HW138336   6.727   0.490   6.236
 8894SOL    HW238337   6.708   0.330   6.210
 8895SOL     OW38338   5.228   7.970   5.481
 8895SOL    HW138339   5.136   7.945   5.510
 8895SOL    HW238340   5.231   7.977   5.381
 8896SOL     OW38341   3.254   6.636   7.718
 8896SOL    HW138342   3.310   6.578   7.778
 8896SOL    HW238343   3.288   6.730   7.721
 8897SOL     OW38344   2.429   3.088   0.021
 8897SOL    HW138345   2.467   3.088   0.113
 8897SOL    HW238346   2.499   3.060  10.037
 8898SOL     OW38347   5.031   4.659   7.281
 8898SOL    HW138348   5.125   4.684   7.255
 8898SOL    HW238349   5.001   4.582   7.225
 8899SOL     OW38350   6.849   8.856   5.723
 8899SOL    HW138351   6.858   8.892   5.816
 8899SOL    HW238352   6.932   8.879   5.671
 8900SOL     OW38353   2.590   4.318   0.503
 8900SOL    HW138354   2.618   4.409   0.535
 8900SOL    HW238355   2.594   4.254   0.580
 8901SOL     OW38356   3.658   6.911   3.420
 8901SOL    HW138357   3.585   6.843   3.412
 8901SOL    HW238358   3.642   6.967   3.501
 8902SOL     OW38359   3.548   8.171   3.348
 8902SOL    HW138360   3.467   8.191   3.404
 8902SOL    HW238361   3.557   8.240   3.277
 8903SOL     OW38362   3.837   1.150   5.028
 8903SOL    HW138363   3.799   1.149   4.936
 8903SOL    HW238364   3.781   1.208   5.087
 8904SOL     OW38365   4.067   1.765   7.070
 8904SOL    HW138366   4.109   1.689   7.020
 8904SOL    HW238367   4.115   1.850   7.050
 8905SOL     OW38368   3.159   7.208   4.042
 8905SOL    HW138369   3.080   7.253   4.084
 8905SOL    HW238370   3.226   7.277   4.016
 8906SOL     OW38371   8.918   0.867   3.275
 8906SOL    HW138372   8.836   0.859   3.218
 8906SOL    HW238373   8.999   0.870   3.217
 8907SOL     OW38374   0.084   2.613   1.391
 8907SOL    HW138375   9.990   2.644   1.376
 8907SOL    HW238376   0.123   2.662   1.469
 8908SOL     OW38377   9.837   4.045   5.017
 8908SOL    HW138378   9.882   4.011   4.934
 8908SOL    HW238379   9.833   3.972   5.085
 8909SOL     OW38380   9.598   8.745   7.383
 8909SOL    HW138381   9.629   8.836   7.410
 8909SOL    HW238382   9.532   8.754   7.308
 8910SOL     OW38383   3.826   6.823   5.222
 8910SOL    HW138384   3.786   6.744   5.175
 8910SOL    HW238385   3.834   6.899   5.159
 8911SOL     OW38386   2.777   2.045   0.817
 8911SOL    HW138387   2.865   2.002   0.837
 8911SOL    HW238388   2.772   2.135   0.861
 8912SOL     OW38389   8.694   4.443   4.519
 8912SOL    HW138390   8.789   4.475   4.510
 8912SOL    HW238391   8.634   4.500   4.463
 8913SOL     OW38392   0.751   5.390   1.175
 8913SOL    HW138393   0.746   5.383   1.076
 8913SOL    HW238394   0.846   5.375   1.205
 8914SOL     OW38395   0.283   6.979   2.966
 8914SOL    HW138396   0.191   6.992   3.004
 8914SOL    HW238397   0.308   7.060   2.913
 8915SOL     OW38398   0.602   8.213   1.561
 8915SOL    HW138399   0.661   8.179   1.488
 8915SOL    HW238400   0.580   8.138   1.623
 8916SOL     OW38401   8.643   0.481   1.265
 8916SOL    HW138402   8.660   0.395   1.217
 8916SOL    HW238403   8.694   0.555   1.221
 8917SOL     OW38404   2.790   4.212   3.865
 8917SOL    HW138405   2.722   4.270   3.821
 8917SOL    HW238406   2.783   4.119   3.829
 8918SOL     OW38407   1.250   5.998   7.104
 8918SOL    HW138408   1.258   6.017   7.201
 8918SOL    HW238409   1.197   5.914   7.090
 8919SOL     OW38410   1.260   5.787   4.285
 8919SOL    HW138411   1.245   5.719   4.356
 8919SOL    HW238412   1.299   5.743   4.204
 8920SOL     OW38413   1.951   1.863   2.254
 8920SOL    HW138414   2.034   1.832   2.207
 8920SOL    HW238415   1.975   1.935   2.319
 8921SOL     OW38416   7.240   9.336   1.780
 8921SOL    HW138417   7.188   9.373   1.703
 8921SOL    HW238418   7.186   9.266   1.826
 8922SOL     OW38419   5.282   8.409   6.053
 8922SOL    HW138420   5.381   8.402   6.040
 8922SOL    HW238421   5.237   8.408   5.964
 8923SOL     OW38422   7.391   4.046   1.203
 8923SOL    HW138423   7.478   4.000   1.188
 8923SOL    HW238424   7.319   3.999   1.153
 8924SOL     OW38425   3.882   3.002   4.948
 8924SOL    HW138426   3.865   3.075   5.014
 8924SOL    HW238427   3.798   2.979   4.901
 8925SOL     OW38428   8.306   1.979   4.399
 8925SOL    HW138429   8.277   1.931   4.316
 8925SOL    HW238430   8.229   1.983   4.463
 8926SOL     OW38431   6.742   2.549   1.365
 8926SOL    HW138432   6.752   2.643   1.332
 8926SOL    HW238433   6.827   2.521   1.411
 8927SOL     OW38434   7.442   8.512   2.742
 8927SOL    HW138435   7.538   8.540   2.743
 8927SOL    HW238436   7.411   8.500   2.648
 8928SOL     OW38437   3.560   7.101   2.776
 8928SOL    HW138438   3.646   7.054   2.756
 8928SOL    HW238439   3.486   7.034   2.782
 8929SOL     OW38440   3.044   0.198   2.240
 8929SOL    HW138441   2.985   0.119   2.230
 8929SOL    HW238442   3.000   0.266   2.299
 8930SOL     OW38443   3.525   6.177   3.413
 8930SOL    HW138444   3.430   6.165   3.385
 8930SOL    HW238445   3.530   6.185   3.513
 8931SOL     OW38446   9.521   7.190   4.857
 8931SOL    HW138447   9.451   7.261   4.870
 8931SOL    HW238448   9.501   7.114   4.918
 8932SOL     OW38449   2.072   0.045   5.993
 8932SOL    HW138450   2.006   0.119   5.981
 8932SOL    HW238451   2.157   0.081   6.032
 8933SOL     OW38452   0.652   5.485   3.876
 8933SOL    HW138453   0.661   5.518   3.782
 8933SOL    HW238454   0.693   5.394   3.883
 8934SOL     OW38455   4.833   2.589   1.530
 8934SOL    HW138456   4.827   2.503   1.580
 8934SOL    HW238457   4.928   2.603   1.500
 8935SOL     OW38458   1.401   3.772   5.620
 8935SOL    HW138459   1.412   3.757   5.718
 8935SOL    HW238460   1.307   3.800   5.601
 8936SOL     OW38461   3.763   9.526   1.846
 8936SOL    HW138462   3.704   9.606   1.838
 8936SOL    HW238463   3.810   9.528   1.935
 8937SOL     OW38464   7.026   2.521   3.152
 8937SOL    HW138465   7.010   2.433   3.107
 8937SOL    HW238466   7.016   2.595   3.085
 8938SOL     OW38467   0.074   9.501   6.396
 8938SOL    HW138468   0.169   9.489   6.427
 8938SOL    HW238469   0.073   9.507   6.296
 8939SOL     OW38470   9.742   7.569   4.555
 8939SOL    HW138471   9.787   7.538   4.639
 8939SOL    HW238472   9.803   7.630   4.505
 8940SOL     OW38473   4.290   7.945   0.215
 8940SOL    HW138474   4.387   7.967   0.227
 8940SOL    HW238475   4.281   7.866   0.154
 8941SOL     OW38476   8.662   3.790   6.364
 8941SOL    HW138477   8.750   3.762   6.324
 8941SOL    HW238478   8.671   3.880   6.406
 8942SOL     OW38479   1.627   0.492   4.574
 8942SOL    HW138480   1.643   0.545   4.657
 8942SOL    HW238481   1.663   0.543   4.495
 8943SOL     OW38482   5.944   4.342   7.906
 8943SOL    HW138483   5.903   4.424   7.866
 8943SOL    HW238484   6.043   4.352   7.907
 8944SOL     OW38485   2.357   3.388   2.107
 8944SOL    HW138486   2.266   3.368   2.073
 8944SOL    HW238487   2.426   3.348   2.046
 8945SOL     OW38488   0.103   9.744   2.267
 8945SOL    HW138489   0.144   9.660   2.302
 8945SOL    HW238490   0.004   9.743   2.283
 8946SOL     OW38491   1.982   3.179   1.384
 8946SOL    HW138492   2.042   3.160   1.306
 8946SOL    HW238493   2.033   3.163   1.469
 8947SOL     OW38494   5.335   6.740   0.029
 8947SOL    HW138495   5.296   6.652   0.057
 8947SOL    HW238496   5.294   6.769  10.024
 8948SOL     OW38497   6.518   8.469   2.701
 8948SOL    HW138498   6.595   8.531   2.710
 8948SOL    HW238499   6.530   8.411   2.621
 8949SOL     OW38500   7.004   2.249   3.091
 8949SOL    HW138501   6.985   2.228   3.187
 8949SOL    HW238502   7.076   2.188   3.057
 8950SOL     OW38503   0.885   4.117   3.662
 8950SOL    HW138504   0.910   4.087   3.570
 8950SOL    HW238505   0.942   4.069   3.729
 8951SOL     OW38506   9.836   0.673   5.453
 8951SOL    HW138507   9.841   0.582   5.411
 8951SOL    HW238508   9.840   0.663   5.552
 8952SOL     OW38509   7.064   5.595   2.726
 8952SOL    HW138510   7.050   5.617   2.630
 8952SOL    HW238511   7.155   5.557   2.739
 8953SOL     OW38512   8.967   3.319   3.685
 8953SOL    HW138513   8.969   3.417   3.667
 8953SOL    HW238514   9.052   3.277   3.653
 8954SOL     OW38515   3.323   9.995   2.576
 8954SOL    HW138516   3.294   0.055   2.502
 8954SOL    HW238517   3.250   9.990   2.645
 8955SOL     OW38518   7.553   2.275   0.522
 8955SOL    HW138519   7.463   2.316   0.506
 8955SOL    HW238520   7.623   2.346   0.519
 8956SOL     OW38521   2.840   4.692   3.606
 8956SOL    HW138522   2.926   4.663   3.564
 8956SOL    HW238523   2.851   4.698   3.705
 8957SOL     OW38524   1.145   6.098   5.220
 8957SOL    HW138525   1.094   6.155   5.156
 8957SOL    HW238526   1.176   6.154   5.297
 8958SOL     OW38527   1.631   7.613   1.128
 8958SOL    HW138528   1.678   7.562   1.055
 8958SOL    HW238529   1.638   7.562   1.214
 8959SOL     OW38530   1.105   4.295   4.535
 8959SOL    HW138531   1.204   4.299   4.548
 8959SOL    HW238532   1.078   4.201   4.515
 8960SOL     OW38533   0.690   3.921   5.081
 8960SOL    HW138534   0.627   3.928   5.158
 8960SOL    HW238535   0.644   3.878   5.004
 8961SOL     OW38536   8.399   7.214   3.562
 8961SOL    HW138537   8.332   7.220   3.488
 8961SOL    HW238538   8.465   7.141   3.541
 8962SOL     OW38539   2.248   2.548   1.737
 8962SOL    HW138540   2.323   2.489   1.707
 8962SOL    HW238541   2.180   2.493   1.784
 8963SOL     OW38542   6.803   0.677   4.045
 8963SOL    HW138543   6.800   0.630   4.134
 8963SOL    HW238544   6.866   0.755   4.051
 8964SOL     OW38545   0.364   4.038   4.640
 8964SOL    HW138546   0.361   3.950   4.594
 8964SOL    HW238547   0.445   4.043   4.699
 8965SOL     OW38548   7.067   9.443   1.595
 8965SOL    HW138549   7.042   9.402   1.507
 8965SOL    HW238550   7.077   9.542   1.585
 8966SOL     OW38551   3.118   8.383   3.864
 8966SOL    HW138552   3.053   8.338   3.803
 8966SOL    HW238553   3.209   8.382   3.821
 8967SOL     OW38554   8.823   6.165   4.844
 8967SOL    HW138555   8.900   6.216   4.881
 8967SOL    HW238556   8.761   6.139   4.918
 8968SOL     OW38557   8.153   6.010   4.567
 8968SOL    HW138558   8.188   5.919   4.590
 8968SOL    HW238559   8.119   6.054   4.651
 8969SOL     OW38560   5.721   7.925   3.300
 8969SOL    HW138561   5.788   7.964   3.237
 8969SOL    HW238562   5.719   7.826   3.289
 8970SOL     OW38563   2.436   6.953   7.277
 8970SOL    HW138564   2.344   6.980   7.250
 8970SOL    HW238565   2.441   6.946   7.377
 8971SOL     OW38566   0.942   6.451   3.420
 8971SOL    HW138567   0.911   6.370   3.470
 8971SOL    HW238568   0.921   6.441   3.323
 8972SOL     OW38569   8.288   2.292   7.890
 8972SOL    HW138570   8.373   2.310   7.841
 8972SOL    HW238571   8.308   2.281   7.988
 8973SOL     OW38572   4.624   0.515   5.841
 8973SOL    HW138573   4.684   0.482   5.913
 8973SOL    HW238574   4.658   0.603   5.808
 8974SOL     OW38575   7.585   9.597   7.408
 8974SOL    HW138576   7.682   9.573   7.411
 8974SOL    HW238577   7.536   9.540   7.474
 8975SOL     OW38578   9.596   0.383   5.227
 8975SOL    HW138579   9.591   0.457   5.160
 8975SOL    HW238580   9.509   0.376   5.275
 8976SOL     OW38581   5.377   4.644   1.641
 8976SOL    HW138582   5.366   4.676   1.547
 8976SOL    HW238583   5.439   4.706   1.690
 8977SOL     OW38584   5.051   7.420   5.549
 8977SOL    HW138585   5.005   7.405   5.462
 8977SOL    HW238586   5.105   7.504   5.544
 8978SOL     OW38587   2.441   2.947   6.338
 8978SOL    HW138588   2.518   3.002   6.306
 8978SOL    HW238589   2.376   2.934   6.263
 8979SOL     OW38590   1.635   3.632   5.123
 8979SOL    HW138591   1.573   3.707   5.146
 8979SOL    HW238592   1.633   3.616   5.024
 8980SOL     OW38593   6.206   4.231   1.594
 8980SOL    HW138594   6.120   4.281   1.587
 8980SOL    HW238595   6.280   4.286   1.555
 8981SOL     OW38596   1.658   1.731   5.865
 8981SOL    HW138597   1.675   1.818   5.910
 8981SOL    HW238598   1.559   1.720   5.850
 8982SOL     OW38599   8.750   7.019   4.652
 8982SOL    HW138600   8.803   6.971   4.583
 8982SOL    HW238601   8.711   7.102   4.613
 8983SOL     OW38602   2.730   3.491   5.802
 8983SOL    HW138603   2.694   3.559   5.739
 8983SOL    HW238604   2.825   3.469   5.777
 8984SOL     OW38605   9.446   1.266   2.829
 8984SOL    HW138606   9.349   1.280   2.848
 8984SOL    HW238607   9.458   1.246   2.731
 8985SOL     OW38608   3.594   0.443   7.707
 8985SOL    HW138609   3.503   0.483   7.695
 8985SOL    HW238610   3.630   0.416   7.617
 8986SOL     OW38611   7.079   2.088   3.773
 8986SOL    HW138612   6.984   2.064   3.793
 8986SOL    HW238613   7.083   2.142   3.689
 8987SOL     OW38614   0.417   9.227   3.346
 8987SOL    HW138615   0.364   9.300   3.389
 8987SOL    HW238616   0.449   9.257   3.256
 8988SOL     OW38617   3.374   0.814   0.525
 8988SOL    HW138618   3.471   0.799   0.510
 8988SOL    HW238619   3.340   0.749   0.594
 8989SOL     OW38620   1.946   0.543   3.390
 8989SOL    HW138621   1.929   0.536   3.292
 8989SOL    HW238622   1.992   0.459   3.421
 8990SOL     OW38623   5.358   4.303   2.170
 8990SOL    HW138624   5.456   4.285   2.163
 8990SOL    HW238625   5.340   4.360   2.251
 8991SOL     OW38626   7.637   6.048   5.815
 8991SOL    HW138627   7.622   6.005   5.726
 8991SOL    HW238628   7.562   6.024   5.877
 8992SOL     OW38629   3.422   1.272   3.153
 8992SOL    HW138630   3.357   1.285   3.228
 8992SOL    HW238631   3.456   1.178   3.154
 8993SOL     OW38632   0.798   8.823   5.393
 8993SOL    HW138633   0.776   8.726   5.396
 8993SOL    HW238634   0.723   8.876   5.433
 8994SOL     OW38635   9.028   3.493   0.464
 8994SOL    HW138636   9.125   3.496   0.440
 8994SOL    HW238637   9.016   3.531   0.555
 8995SOL     OW38638   1.116   7.846   2.831
 8995SOL    HW138639   1.045   7.777   2.815
 8995SOL    HW238640   1.104   7.886   2.922
 8996SOL     OW38641   5.786   3.484   0.417
 8996SOL    HW138642   5.703   3.509   0.366
 8996SOL    HW238643   5.846   3.430   0.358
 8997SOL     OW38644   1.707   2.742   0.288
 8997SOL    HW138645   1.616   2.724   0.251
 8997SOL    HW238646   1.728   2.840   0.280
 8998SOL     OW38647   8.695   7.516   1.699
 8998SOL    HW138648   8.690   7.569   1.614
 8998SOL    HW238649   8.615   7.536   1.756
 8999SOL     OW38650   8.609   2.203   7.587
 8999SOL    HW138651   8.567   2.274   7.643
 8999SOL    HW238652   8.568   2.114   7.609
 9000SOL     OW38653   7.612   7.947   7.067
 9000SOL    HW138654   7.677   7.874   7.092
 9000SOL    HW238655   7.562   7.920   6.985
 9001SOL     OW38656   3.458   7.190   1.211
 9001SOL    HW138657   3.485   7.143   1.128
 9001SOL    HW238658   3.505   7.149   1.290
 9002SOL     OW38659   0.787   1.206   5.209
 9002SOL    HW138660   0.798   1.233   5.113
 9002SOL    HW238661   0.785   1.287   5.267
 9003SOL     OW38662   8.684   2.281   5.723
 9003SOL    HW138663   8.595   2.284   5.769
 9003SOL    HW238664   8.729   2.369   5.731
 9004SOL     OW38665   0.009   3.542   5.570
 9004SOL    HW138666   9.976   3.476   5.638
 9004SOL    HW238667   0.020   3.495   5.482
 9005SOL     OW38668   7.170   5.078   6.746
 9005SOL    HW138669   7.077   5.113   6.753
 9005SOL    HW238670   7.181   4.999   6.807
 9006SOL     OW38671   0.642   7.189   5.074
 9006SOL    HW138672   0.725   7.179   5.020
 9006SOL    HW238673   0.562   7.175   5.016
 9007SOL     OW38674   1.071   2.554   4.304
 9007SOL    HW138675   1.139   2.570   4.232
 9007SOL    HW238676   0.996   2.620   4.294
 9008SOL     OW38677   7.188   0.352   2.877
 9008SOL    HW138678   7.128   0.281   2.913
 9008SOL    HW238679   7.215   0.414   2.951
 9009SOL     OW38680   4.508   1.725   4.322
 9009SOL    HW138681   4.430   1.788   4.319
 9009SOL    HW238682   4.540   1.707   4.229
 9010SOL     OW38683   0.550   3.919   3.747
 9010SOL    HW138684   0.462   3.967   3.741
 9010SOL    HW238685   0.610   3.966   3.811
 9011SOL     OW38686   9.710   7.292   5.473
 9011SOL    HW138687   9.658   7.240   5.405
 9011SOL    HW238688   9.656   7.302   5.556
 9012SOL     OW38689   3.440   7.571   6.353
 9012SOL    HW138690   3.471   7.583   6.259
 9012SOL    HW238691   3.341   7.555   6.354
 9013SOL     OW38692   1.322   6.704   4.447
 9013SOL    HW138693   1.355   6.638   4.380
 9013SOL    HW238694   1.375   6.695   4.531
 9014SOL     OW38695   7.828   4.769   4.068
 9014SOL    HW138696   7.738   4.811   4.079
 9014SOL    HW238697   7.887   4.830   4.016
 9015SOL     OW38698   4.562   5.296   2.030
 9015SOL    HW138699   4.468   5.263   2.025
 9015SOL    HW238700   4.618   5.232   2.082
 9016SOL     OW38701   8.647   7.241   4.529
 9016SOL    HW138702   8.650   7.258   4.430
 9016SOL    HW238703   8.598   7.315   4.575
 9017SOL     OW38704   2.057   6.766   5.901
 9017SOL    HW138705   2.043   6.837   5.831
 9017SOL    HW238706   2.068   6.809   5.990
 9018SOL     OW38707   9.718   8.684   7.723
 9018SOL    HW138708   9.785   8.724   7.659
 9018SOL    HW238709   9.640   8.649   7.671
 9019SOL     OW38710   4.460   0.649   6.864
 9019SOL    HW138711   4.508   0.644   6.777
 9019SOL    HW238712   4.474   0.563   6.914
 9020SOL     OW38713   8.303   1.522   5.617
 9020SOL    HW138714   8.361   1.464   5.559
 9020SOL    HW238715   8.212   1.481   5.625
 9021SOL     OW38716   8.544   0.816   3.596
 9021SOL    HW138717   8.511   0.844   3.687
 9021SOL    HW238718   8.601   0.734   3.605
 9022SOL     OW38719   1.870   6.862   3.628
 9022SOL    HW138720   1.942   6.830   3.689
 9022SOL    HW238721   1.792   6.799   3.631
 9023SOL     OW38722   3.344   1.333   2.259
 9023SOL    HW138723   3.433   1.288   2.266
 9023SOL    HW238724   3.339   1.384   2.173
 9024SOL     OW38725   5.874   7.653   4.002
 9024SOL    HW138726   5.913   7.607   3.922
 9024SOL    HW238727   5.778   7.625   4.011
 9025SOL     OW38728   2.323   8.992   1.809
 9025SOL    HW138729   2.272   8.975   1.725
 9025SOL    HW238730   2.275   8.950   1.886
 9026SOL     OW38731   4.216   1.766   4.085
 9026SOL    HW138732   4.210   1.668   4.105
 9026SOL    HW238733   4.252   1.814   4.165
 9027SOL     OW38734   1.066   7.177   3.565
 9027SOL    HW138735   1.024   7.091   3.593
 9027SOL    HW238736   1.134   7.160   3.494
 9028SOL     OW38737   3.244   9.844   7.559
 9028SOL    HW138738   3.282   9.911   7.495
 9028SOL    HW238739   3.173   9.888   7.615
 9029SOL     OW38740   1.897   6.742   5.457
 9029SOL    HW138741   1.901   6.833   5.417
 9029SOL    HW238742   1.982   6.722   5.505
 9030SOL     OW38743   8.176   8.522   4.074
 9030SOL    HW138744   8.190   8.474   3.987
 9030SOL    HW238745   8.078   8.530   4.092
 9031SOL     OW38746   1.082   1.368   4.269
 9031SOL    HW138747   1.174   1.334   4.246
 9031SOL    HW238748   1.054   1.329   4.356
 9032SOL     OW38749   4.537   3.733   0.572
 9032SOL    HW138750   4.536   3.682   0.658
 9032SOL    HW238751   4.571   3.826   0.588
 9033SOL     OW38752   1.008   2.509   6.347
 9033SOL    HW138753   1.092   2.476   6.304
 9033SOL    HW238754   0.950   2.431   6.370
 9034SOL     OW38755   4.248   1.408   0.865
 9034SOL    HW138756   4.276   1.327   0.917
 9034SOL    HW238757   4.228   1.483   0.928
 9035SOL     OW38758   1.543   1.241   1.504
 9035SOL    HW138759   1.579   1.197   1.422
 9035SOL    HW238760   1.501   1.172   1.563
 9036SOL     OW38761   6.429   8.690   7.661
 9036SOL    HW138762   6.345   8.727   7.622
 9036SOL    HW238763   6.452   8.604   7.615
 9037SOL     OW38764   1.860   4.954   7.720
 9037SOL    HW138765   1.914   4.986   7.643
 9037SOL    HW238766   1.880   5.009   7.801
 9038SOL     OW38767   1.336   1.317   5.571
 9038SOL    HW138768   1.304   1.323   5.477
 9038SOL    HW238769   1.347   1.221   5.596
 9039SOL     OW38770   0.710   1.322   0.290
 9039SOL    HW138771   0.694   1.411   0.333
 9039SOL    HW238772   0.799   1.322   0.245
 9040SOL     OW38773   3.610   4.950   3.939
 9040SOL    HW138774   3.617   4.976   4.035
 9040SOL    HW238775   3.620   5.031   3.881
 9041SOL     OW38776   2.159   7.508   2.221
 9041SOL    HW138777   2.240   7.552   2.183
 9041SOL    HW238778   2.125   7.438   2.157
 9042SOL     OW38779   7.411   2.701   3.734
 9042SOL    HW138780   7.382   2.794   3.711
 9042SOL    HW238781   7.392   2.640   3.657
 9043SOL     OW38782   4.272   3.584   6.169
 9043SOL    HW138783   4.360   3.546   6.141
 9043SOL    HW238784   4.256   3.564   6.266
 9044SOL     OW38785   5.209   0.262   2.365
 9044SOL    HW138786   5.143   0.308   2.306
 9044SOL    HW238787   5.302   0.279   2.331
 9045SOL     OW38788   7.118   9.008   2.161
 9045SOL    HW138789   7.197   9.036   2.216
 9045SOL    HW238790   7.119   9.057   2.074
 9046SOL     OW38791   8.146   6.964   1.318
 9046SOL    HW138792   8.224   7.027   1.316
 9046SOL    HW238793   8.175   6.874   1.285
 9047SOL     OW38794   9.623   1.765   4.048
 9047SOL    HW138795   9.709   1.754   3.999
 9047SOL    HW238796   9.570   1.681   4.042
 9048SOL     OW38797   0.578   7.638   3.149
 9048SOL    HW138798   0.584   7.716   3.087
 9048SOL    HW238799   0.541   7.669   3.237
 9049SOL     OW38800   7.820   4.517   3.948
 9049SOL    HW138801   7.829   4.603   3.998
 9049SOL    HW238802   7.905   4.464   3.957
 9050SOL     OW38803   4.523   3.189   2.718
 9050SOL    HW138804   4.576   3.200   2.634
 9050SOL    HW238805   4.500   3.279   2.755
 9051SOL     OW38806   1.591   2.226   3.272
 9051SOL    HW138807   1.629   2.251   3.362
 9051SOL    HW238808   1.640   2.276   3.201
 9052SOL     OW38809   7.206   1.479   6.277
 9052SOL    HW138810   7.260   1.545   6.224
 9052SOL    HW238811   7.115   1.516   6.293
 9053SOL     OW38812   2.886   9.017   6.296
 9053SOL    HW138813   2.930   9.085   6.355
 9053SOL    HW238814   2.957   8.960   6.254
 9054SOL     OW38815   7.434   4.687   2.941
 9054SOL    HW138816   7.403   4.719   2.851
 9054SOL    HW238817   7.422   4.760   3.008
 9055SOL     OW38818   0.507   1.847   4.539
 9055SOL    HW138819   0.499   1.794   4.454
 9055SOL    HW238820   0.544   1.789   4.611
 9056SOL     OW38821   1.236   1.334   5.313
 9056SOL    HW138822   1.172   1.411   5.303
 9056SOL    HW238823   1.291   1.326   5.230
 9057SOL     OW38824   6.631   7.778   5.156
 9057SOL    HW138825   6.553   7.771   5.219
 9057SOL    HW238826   6.626   7.865   5.107
 9058SOL     OW38827   1.283   7.780   4.999
 9058SOL    HW138828   1.282   7.861   4.939
 9058SOL    HW238829   1.209   7.718   4.972
 9059SOL     OW38830   5.268   0.937   7.693
 9059SOL    HW138831   5.298   0.856   7.744
 9059SOL    HW238832   5.321   1.017   7.723
 9060SOL     OW38833   3.237   6.399   7.085
 9060SOL    HW138834   3.256   6.357   6.996
 9060SOL    HW238835   3.311   6.462   7.109
 9061SOL     OW38836   8.970   3.183   0.705
 9061SOL    HW138837   9.010   3.135   0.627
 9061SOL    HW238838   9.036   3.250   0.740
 9062SOL     OW38839   3.866   2.668   0.488
 9062SOL    HW138840   3.958   2.706   0.473
 9062SOL    HW238841   3.861   2.628   0.579
 9063SOL     OW38842   0.908   5.331   2.365
 9063SOL    HW138843   1.001   5.365   2.376
 9063SOL    HW238844   0.849   5.375   2.433
 9064SOL     OW38845   0.931   6.198   0.333
 9064SOL    HW138846   0.941   6.260   0.411
 9064SOL    HW238847   0.911   6.250   0.250
 9065SOL     OW38848   0.017   5.114   5.296
 9065SOL    HW138849   9.989   5.203   5.332
 9065SOL    HW238850   0.042   5.054   5.372
 9066SOL     OW38851   7.540   2.014   4.820
 9066SOL    HW138852   7.457   1.967   4.848
 9066SOL    HW238853   7.612   1.947   4.802
 9067SOL     OW38854   4.458   2.427   7.736
 9067SOL    HW138855   4.466   2.327   7.736
 9067SOL    HW238856   4.377   2.454   7.787
 9068SOL     OW38857   8.122   2.578   4.741
 9068SOL    HW138858   8.133   2.555   4.837
 9068SOL    HW238859   8.059   2.512   4.698
 9069SOL     OW38860   6.473   8.605   5.003
 9069SOL    HW138861   6.380   8.581   5.032
 9069SOL    HW238862   6.538   8.575   5.073
 9070SOL     OW38863   9.651   6.761   7.749
 9070SOL    HW138864   9.725   6.755   7.816
 9070SOL    HW238865   9.627   6.669   7.716
 9071SOL     OW38866   0.507   8.396   3.577
 9071SOL    HW138867   0.591   8.448   3.568
 9071SOL    HW238868   0.428   8.456   3.565
 9072SOL     OW38869   3.904   9.088   4.641
 9072SOL    HW138870   3.944   9.042   4.562
 9072SOL    HW238871   3.908   9.028   4.721
 9073SOL     OW38872   7.265   8.005   3.670
 9073SOL    HW138873   7.201   7.931   3.650
 9073SOL    HW238874   7.300   8.043   3.585
 9074SOL     OW38875   8.254   7.924   6.972
 9074SOL    HW138876   8.174   7.882   6.929
 9074SOL    HW238877   8.317   7.853   7.003
 9075SOL     OW38878   8.539   6.503   0.615
 9075SOL    HW138879   8.456   6.558   0.620
 9075SOL    HW238880   8.601   6.544   0.548
 9076SOL     OW38881   2.890   2.387   2.951
 9076SOL    HW138882   2.973   2.331   2.954
 9076SOL    HW238883   2.821   2.347   3.011
 9077SOL     OW38884   9.905   7.095   1.434
 9077SOL    HW138885   9.979   7.067   1.494
 9077SOL    HW238886   9.938   7.165   1.371
 9078SOL     OW38887   1.528   7.503   3.051
 9078SOL    HW138888   1.461   7.447   3.003
 9078SOL    HW238889   1.560   7.454   3.132
 9079SOL     OW38890   1.011   3.341   1.424
 9079SOL    HW138891   0.939   3.278   1.452
 9079SOL    HW238892   0.983   3.435   1.445
 9080SOL     OW38893   4.421   6.060   7.938
 9080SOL    HW138894   4.373   5.977   7.908
 9080SOL    HW238895   4.384   6.089   8.026
 9081SOL     OW38896   2.326   0.309   1.483
 9081SOL    HW138897   2.240   0.258   1.496
 9081SOL    HW238898   2.327   0.389   1.542
 9082SOL     OW38899   7.857   2.680   0.927
 9082SOL    HW138900   7.800   2.720   0.856
 9082SOL    HW238901   7.952   2.710   0.915
 9083SOL     OW38902   6.617   5.186   7.831
 9083SOL    HW138903   6.703   5.220   7.869
 9083SOL    HW238904   6.631   5.094   7.795
 9084SOL     OW38905   0.049   9.082   6.160
 9084SOL    HW138906   0.019   8.990   6.187
 9084SOL    HW238907   9.983   9.121   6.095
 9085SOL     OW38908   8.228   5.401   3.265
 9085SOL    HW138909   8.206   5.392   3.168
 9085SOL    HW238910   8.232   5.310   3.307
 9086SOL     OW38911   6.222   2.122   3.657
 9086SOL    HW138912   6.141   2.161   3.701
 9086SOL    HW238913   6.276   2.195   3.616
 9087SOL     OW38914   0.143   0.310   4.625
 9087SOL    HW138915   0.068   0.308   4.560
 9087SOL    HW238916   0.135   0.233   4.688
 9088SOL     OW38917   9.345   5.687   5.512
 9088SOL    HW138918   9.325   5.682   5.414
 9088SOL    HW238919   9.314   5.604   5.557
 9089SOL     OW38920   9.561   9.885   5.554
 9089SOL    HW138921   9.500   9.854   5.481
 9089SOL    HW238922   9.529   9.973   5.589
 9090SOL     OW38923   5.707   9.819   1.492
 9090SOL    HW138924   5.769   9.898   1.494
 9090SOL    HW238925   5.753   9.740   1.533
 9091SOL     OW38926   8.509   4.865   3.078
 9091SOL    HW138927   8.582   4.931   3.063
 9091SOL    HW238928   8.494   4.812   2.994
 9092SOL     OW38929   2.722   7.906   4.660
 9092SOL    HW138930   2.800   7.956   4.623
 9092SOL    HW238931   2.682   7.958   4.736
 9093SOL     OW38932   6.922   7.820   2.441
 9093SOL    HW138933   7.014   7.788   2.467
 9093SOL    HW238934   6.928   7.914   2.408
 9094SOL     OW38935   0.655   8.667   6.527
 9094SOL    HW138936   0.746   8.682   6.565
 9094SOL    HW238937   0.614   8.586   6.569
 9095SOL     OW38938   4.170   4.714   1.488
 9095SOL    HW138939   4.124   4.628   1.465
 9095SOL    HW238940   4.120   4.759   1.562
 9096SOL     OW38941   4.320   1.145   0.156
 9096SOL    HW138942   4.312   1.244   0.168
 9096SOL    HW238943   4.383   1.108   0.225
 9097SOL     OW38944   0.685   2.846   7.700
 9097SOL    HW138945   0.679   2.934   7.652
 9097SOL    HW238946   0.769   2.843   7.754
 9098SOL     OW38947   6.472   1.589   4.607
 9098SOL    HW138948   6.386   1.639   4.603
 9098SOL    HW238949   6.546   1.647   4.576
 9099SOL     OW38950   0.981   2.114   0.345
 9099SOL    HW138951   1.064   2.140   0.296
 9099SOL    HW238952   0.964   2.179   0.418
 9100SOL     OW38953   9.845   9.694   1.929
 9100SOL    HW138954   9.937   9.676   1.963
 9100SOL    HW238955   9.834   9.653   1.839
 9101SOL     OW38956   4.446   3.039   7.685
 9101SOL    HW138957   4.423   3.136   7.683
 9101SOL    HW238958   4.424   3.002   7.776
 9102SOL     OW38959   7.318   0.975   5.530
 9102SOL    HW138960   7.403   0.939   5.568
 9102SOL    HW238961   7.335   1.064   5.488
 9103SOL     OW38962   3.810   0.875   5.079
 9103SOL    HW138963   3.815   0.972   5.058
 9103SOL    HW238964   3.774   0.863   5.172
 9104SOL     OW38965   9.503   2.415   7.723
 9104SOL    HW138966   9.495   2.492   7.786
 9104SOL    HW238967   9.538   2.335   7.772
 9105SOL     OW38968   4.604   4.311   6.291
 9105SOL    HW138969   4.582   4.404   6.318
 9105SOL    HW238970   4.554   4.246   6.348
 9106SOL     OW38971   3.507   2.497   7.035
 9106SOL    HW138972   3.452   2.447   7.102
 9106SOL    HW238973   3.520   2.591   7.067
 9107SOL     OW38974   6.644   5.876   0.558
 9107SOL    HW138975   6.743   5.861   0.550
 9107SOL    HW238976   6.595   5.793   0.533
 9108SOL     OW38977   5.948   9.272   2.072
 9108SOL    HW138978   5.898   9.189   2.098
 9108SOL    HW238979   6.045   9.261   2.097
 9109SOL     OW38980   8.262   9.969   1.817
 9109SOL    HW138981   8.218   9.886   1.783
 9109SOL    HW238982   8.329   9.944   1.887
 9110SOL     OW38983   3.363   4.485   0.175
 9110SOL    HW138984   3.379   4.570   0.124
 9110SOL    HW238985   3.449   4.437   0.189
 9111SOL     OW38986   5.698   9.255   6.401
 9111SOL    HW138987   5.727   9.170   6.444
 9111SOL    HW238988   5.776   9.318   6.396
 9112SOL     OW38989   5.611   7.596   4.062
 9112SOL    HW138990   5.579   7.502   4.071
 9112SOL    HW238991   5.575   7.651   4.136
 9113SOL     OW38992   0.989   8.533   0.668
 9113SOL    HW138993   1.083   8.506   0.647
 9113SOL    HW238994   0.927   8.485   0.607
 9114SOL     OW38995   6.834   8.942   2.446
 9114SOL    HW138996   6.794   8.949   2.355
 9114SOL    HW238997   6.762   8.926   2.513
 9115SOL     OW38998   8.474   8.895   2.035
 9115SOL    HW138999   8.417   8.906   1.953
 9115SOL    HW239000   8.570   8.904   2.009
 9116SOL     OW39001   9.710   7.119   2.632
 9116SOL    HW139002   9.696   7.071   2.719
 9116SOL    HW239003   9.673   7.063   2.557
 9117SOL     OW39004   8.150   9.104   1.759
 9117SOL    HW139005   8.180   9.166   1.831
 9117SOL    HW239006   8.117   9.157   1.681
 9118SOL     OW39007   3.152   6.308   5.570
 9118SOL    HW139008   3.154   6.375   5.495
 9118SOL    HW239009   3.246   6.281   5.591
 9119SOL     OW39010   4.150   2.632   4.331
 9119SOL    HW139011   4.093   2.589   4.261
 9119SOL    HW239012   4.245   2.601   4.321
 9120SOL     OW39013   8.933   5.851   7.136
 9120SOL    HW139014   8.886   5.937   7.153
 9120SOL    HW239015   8.874   5.790   7.083
 9121SOL     OW39016   7.065   9.829   2.428
 9121SOL    HW139017   7.164   9.823   2.414
 9121SOL    HW239018   7.043   9.909   2.484
 9122SOL     OW39019   4.284   1.033   7.298
 9122SOL    HW139020   4.275   1.104   7.228
 9122SOL    HW239021   4.357   1.059   7.362
 9123SOL     OW39022   5.381   0.339   4.351
 9123SOL    HW139023   5.349   0.340   4.256
 9123SOL    HW239024   5.348   0.256   4.396
 9124SOL     OW39025   0.702   2.137   5.454
 9124SOL    HW139026   0.730   2.061   5.395
 9124SOL    HW239027   0.782   2.191   5.479
 9125SOL     OW39028   0.605   6.644   6.786
 9125SOL    HW139029   0.597   6.739   6.819
 9125SOL    HW239030   0.576   6.582   6.859
 9126SOL     OW39031   9.038   2.018   7.360
 9126SOL    HW139032   9.123   2.041   7.408
 9126SOL    HW239033   9.056   1.945   7.294
 9127SOL     OW39034   0.397   7.948   6.801
 9127SOL    HW139035   0.305   7.984   6.818
 9127SOL    HW239036   0.390   7.861   6.754
 9128SOL     OW39037   9.677   0.726   4.495
 9128SOL    HW139038   9.719   0.771   4.417
 9128SOL    HW239039   9.582   0.758   4.504
 9129SOL     OW39040   5.146   8.253   5.149
 9129SOL    HW139041   5.190   8.338   5.176
 9129SOL    HW239042   5.102   8.265   5.060
 9130SOL     OW39043   0.395   2.202   2.677
 9130SOL    HW139044   0.403   2.253   2.592
 9130SOL    HW239045   0.306   2.219   2.718
 9131SOL     OW39046   0.394   1.574   2.325
 9131SOL    HW139047   0.357   1.658   2.286
 9131SOL    HW239048   0.366   1.496   2.269
 9132SOL     OW39049   9.399   2.562   6.531
 9132SOL    HW139050   9.315   2.599   6.570
 9132SOL    HW239051   9.477   2.588   6.588
 9133SOL     OW39052   3.695   5.810   2.390
 9133SOL    HW139053   3.692   5.778   2.485
 9133SOL    HW239054   3.654   5.740   2.331
 9134SOL     OW39055   9.042   8.298   6.704
 9134SOL    HW139056   9.014   8.235   6.631
 9134SOL    HW239057   8.974   8.370   6.714
 9135SOL     OW39058   3.558   2.449   1.665
 9135SOL    HW139059   3.619   2.421   1.591
 9135SOL    HW239060   3.528   2.543   1.650
 9136SOL     OW39061   2.600   2.757   0.506
 9136SOL    HW139062   2.584   2.765   0.408
 9136SOL    HW239063   2.696   2.775   0.526
 9137SOL     OW39064   9.736   4.499   5.507
 9137SOL    HW139065   9.708   4.403   5.513
 9137SOL    HW239066   9.763   4.531   5.598
 9138SOL     OW39067   7.689   2.661   0.254
 9138SOL    HW139068   7.703   2.563   0.240
 9138SOL    HW239069   7.765   2.712   0.213
 9139SOL     OW39070   2.993   1.900   5.602
 9139SOL    HW139071   3.051   1.970   5.560
 9139SOL    HW239072   2.987   1.917   5.700
 9140SOL     OW39073   1.145   5.571   7.699
 9140SOL    HW139074   1.108   5.483   7.669
 9140SOL    HW239075   1.070   5.634   7.720
 9141SOL     OW39076   1.420   9.292   4.738
 9141SOL    HW139077   1.433   9.203   4.783
 9141SOL    HW239078   1.323   9.315   4.738
 9142SOL     OW39079   5.707   3.710   0.628
 9142SOL    HW139080   5.622   3.748   0.663
 9142SOL    HW239081   5.689   3.621   0.587
 9143SOL     OW39082   5.189   8.403   1.505
 9143SOL    HW139083   5.106   8.361   1.541
 9143SOL    HW239084   5.226   8.347   1.431
 9144SOL     OW39085   5.984   8.290   4.258
 9144SOL    HW139086   6.011   8.205   4.213
 9144SOL    HW239087   5.888   8.310   4.237
 9145SOL     OW39088   8.784   4.864   0.995
 9145SOL    HW139089   8.792   4.944   0.936
 9145SOL    HW239090   8.717   4.883   1.068
 9146SOL     OW39091   6.352   7.603   3.999
 9146SOL    HW139092   6.303   7.605   3.911
 9146SOL    HW239093   6.349   7.695   4.039
 9147SOL     OW39094   3.068   2.263   2.698
 9147SOL    HW139095   2.976   2.224   2.695
 9147SOL    HW239096   3.099   2.266   2.793
 9148SOL     OW39097   0.752   5.294   2.139
 9148SOL    HW139098   0.813   5.307   2.218
 9148SOL    HW239099   0.794   5.228   2.076
 9149SOL     OW39100   8.468   8.903   6.397
 9149SOL    HW139101   8.544   8.967   6.397
 9149SOL    HW239102   8.418   8.910   6.484
 9150SOL     OW39103   3.112   6.462   7.320
 9150SOL    HW139104   3.186   6.471   7.387
 9150SOL    HW239105   3.151   6.437   7.232
 9151SOL     OW39106   4.231   4.203   0.943
 9151SOL    HW139107   4.302   4.272   0.959
 9151SOL    HW239108   4.274   4.113   0.932
 9152SOL     OW39109   1.892   7.585   2.251
 9152SOL    HW139110   1.989   7.561   2.260
 9152SOL    HW239111   1.873   7.610   2.156
 9153SOL     OW39112   8.594   1.210   7.234
 9153SOL    HW139113   8.651   1.139   7.275
 9153SOL    HW239114   8.512   1.169   7.195
 9154SOL     OW39115   2.423   0.872   2.260
 9154SOL    HW139116   2.335   0.919   2.272
 9154SOL    HW239117   2.416   0.809   2.182
 9155SOL     OW39118   4.386   7.622   5.542
 9155SOL    HW139119   4.468   7.611   5.597
 9155SOL    HW239120   4.339   7.706   5.570
 9156SOL     OW39121   7.108   3.380   0.210
 9156SOL    HW139122   7.081   3.295   0.166
 9156SOL    HW239123   7.107   3.368   0.309
 9157SOL     OW39124   6.480   2.580   1.700
 9157SOL    HW139125   6.385   2.560   1.673
 9157SOL    HW239126   6.514   2.657   1.646
 9158SOL     OW39127   9.684   9.861   2.791
 9158SOL    HW139128   9.753   9.880   2.721
 9158SOL    HW239129   9.726   9.812   2.867
 9159SOL     OW39130   2.484   8.809   2.651
 9159SOL    HW139131   2.470   8.886   2.713
 9159SOL    HW239132   2.412   8.808   2.582
 9160SOL     OW39133   7.618   5.093   2.607
 9160SOL    HW139134   7.588   5.061   2.517
 9160SOL    HW239135   7.549   5.069   2.675
 9161SOL     OW39136   1.284   6.290   0.737
 9161SOL    HW139137   1.301   6.382   0.702
 9161SOL    HW239138   1.363   6.232   0.719
 9162SOL     OW39139   1.073   0.980   4.445
 9162SOL    HW139140   1.116   0.892   4.428
 9162SOL    HW239141   1.143   1.050   4.458
 9163SOL     OW39142   7.233   4.761   3.254
 9163SOL    HW139143   7.301   4.820   3.212
 9163SOL    HW239144   7.235   4.774   3.353
 9164SOL     OW39145   8.047   1.524   6.553
 9164SOL    HW139146   8.026   1.610   6.599
 9164SOL    HW239147   8.015   1.448   6.609
 9165SOL     OW39148   9.309   5.391   0.669
 9165SOL    HW139149   9.252   5.326   0.619
 9165SOL    HW239150   9.334   5.352   0.758
 9166SOL     OW39151   5.853   8.671   4.337
 9166SOL    HW139152   5.773   8.631   4.293
 9166SOL    HW239153   5.887   8.747   4.282
 9167SOL     OW39154   2.527   6.323   7.064
 9167SOL    HW139155   2.558   6.263   7.137
 9167SOL    HW239156   2.431   6.348   7.080
 9168SOL     OW39157   9.493   4.695   4.435
 9168SOL    HW139158   9.590   4.700   4.411
 9168SOL    HW239159   9.480   4.627   4.507
 9169SOL     OW39160   8.251   0.751   3.784
 9169SOL    HW139161   8.260   0.652   3.772
 9169SOL    HW239162   8.340   0.789   3.810
 9170SOL     OW39163   9.259   4.355   4.584
 9170SOL    HW139164   9.261   4.300   4.667
 9170SOL    HW239165   9.277   4.297   4.505
 9171SOL     OW39166   4.209   2.764   4.797
 9171SOL    HW139167   4.277   2.829   4.764
 9171SOL    HW239168   4.167   2.798   4.880
 9172SOL     OW39169   1.448   3.951   7.444
 9172SOL    HW139170   1.542   3.965   7.475
 9172SOL    HW239171   1.435   3.856   7.418
 9173SOL     OW39172   1.087   8.961   7.812
 9173SOL    HW139173   1.040   9.012   7.885
 9173SOL    HW239174   1.186   8.967   7.826
 9174SOL     OW39175   0.429   8.033   7.650
 9174SOL    HW139176   0.364   7.957   7.646
 9174SOL    HW239177   0.520   7.999   7.624
 9175SOL     OW39178   7.884   1.956   2.894
 9175SOL    HW139179   7.883   1.967   2.994
 9175SOL    HW239180   7.833   1.874   2.870
 9176SOL     OW39181   6.155   1.021   2.678
 9176SOL    HW139182   6.210   0.942   2.651
 9176SOL    HW239183   6.190   1.103   2.633
 9177SOL     OW39184   6.477   3.031   0.856
 9177SOL    HW139185   6.453   2.950   0.803
 9177SOL    HW239186   6.567   3.064   0.828
 9178SOL     OW39187   9.736   8.950   3.607
 9178SOL    HW139188   9.793   9.024   3.642
 9178SOL    HW239189   9.649   8.949   3.657
 9179SOL     OW39190   1.256   6.991   7.287
 9179SOL    HW139191   1.252   7.091   7.287
 9179SOL    HW239192   1.312   6.960   7.364
 9180SOL     OW39193   1.891   1.762   5.656
 9180SOL    HW139194   1.817   1.735   5.718
 9180SOL    HW239195   1.852   1.801   5.573
 9181SOL     OW39196   1.143   8.260   6.853
 9181SOL    HW139197   1.068   8.232   6.793
 9181SOL    HW239198   1.108   8.323   6.923
 9182SOL     OW39199   1.218   1.426   1.616
 9182SOL    HW139200   1.250   1.516   1.644
 9182SOL    HW239201   1.123   1.413   1.644
 9183SOL     OW39202   7.983   4.675   7.032
 9183SOL    HW139203   8.019   4.767   7.016
 9183SOL    HW239204   7.884   4.676   7.020
 9184SOL     OW39205   8.334   6.308   4.853
 9184SOL    HW139206   8.342   6.269   4.945
 9184SOL    HW239207   8.421   6.299   4.805
 9185SOL     OW39208   2.909   1.659   0.841
 9185SOL    HW139209   2.982   1.597   0.811
 9185SOL    HW239210   2.829   1.647   0.782
 9186SOL     OW39211   3.161   4.770   4.142
 9186SOL    HW139212   3.192   4.738   4.052
 9186SOL    HW239213   3.240   4.803   4.194
 9187SOL     OW39214   2.795   2.644   4.935
 9187SOL    HW139215   2.712   2.619   4.885
 9187SOL    HW239216   2.772   2.713   5.004
 9188SOL     OW39217   2.901   7.310   2.209
 9188SOL    HW139218   2.895   7.359   2.122
 9188SOL    HW239219   2.809   7.303   2.249
 9189SOL     OW39220   2.205   6.338   6.833
 9189SOL    HW139221   2.137   6.408   6.817
 9189SOL    HW239222   2.222   6.329   6.931
 9190SOL     OW39223   9.374   5.154   7.613
 9190SOL    HW139224   9.319   5.146   7.530
 9190SOL    HW239225   9.456   5.209   7.594
 9191SOL     OW39226   9.281   9.376   0.164
 9191SOL    HW139227   9.266   9.400   0.260
 9191SOL    HW239228   9.253   9.281   0.149
 9192SOL     OW39229   4.948   4.523   6.254
 9192SOL    HW139230   4.934   4.424   6.250
 9192SOL    HW239231   4.889   4.562   6.325
 9193SOL     OW39232   3.448   1.859   6.632
 9193SOL    HW139233   3.519   1.926   6.652
 9193SOL    HW239234   3.396   1.839   6.715
 9194SOL     OW39235   9.791   6.653   3.520
 9194SOL    HW139236   9.720   6.701   3.571
 9194SOL    HW239237   9.880   6.695   3.538
 9195SOL     OW39238   9.966   3.526   3.728
 9195SOL    HW139239   9.933   3.572   3.645
 9195SOL    HW239240   0.065   3.532   3.732
 9196SOL     OW39241   1.517   4.157   5.718
 9196SOL    HW139242   1.454   4.193   5.787
 9196SOL    HW239243   1.554   4.232   5.664
 9197SOL     OW39244   8.678   5.861   4.886
 9197SOL    HW139245   8.652   5.948   4.929
 9197SOL    HW239246   8.686   5.875   4.787
 9198SOL     OW39247   8.981   5.858   2.370
 9198SOL    HW139248   9.044   5.900   2.305
 9198SOL    HW239249   9.027   5.782   2.416
 9199SOL     OW39250   1.938   8.492   5.883
 9199SOL    HW139251   1.951   8.429   5.807
 9199SOL    HW239252   1.842   8.490   5.912
 9200SOL     OW39253   7.110   9.632   7.027
 9200SOL    HW139254   7.020   9.630   7.070
 9200SOL    HW239255   7.135   9.540   6.997
 9201SOL     OW39256   2.511   7.230   4.268
 9201SOL    HW139257   2.435   7.167   4.287
 9201SOL    HW239258   2.493   7.279   4.183
 9202SOL     OW39259   0.821   9.297   0.815
 9202SOL    HW139260   0.801   9.202   0.841
 9202SOL    HW239261   0.780   9.317   0.726
 9203SOL     OW39262   0.899   4.322   3.145
 9203SOL    HW139263   0.962   4.374   3.088
 9203SOL    HW239264   0.912   4.347   3.241
 9204SOL     OW39265   2.687   1.604   6.620
 9204SOL    HW139266   2.643   1.598   6.530
 9204SOL    HW239267   2.696   1.700   6.647
 9205SOL     OW39268   4.761   2.933   7.098
 9205SOL    HW139269   4.853   2.953   7.067
 9205SOL    HW239270   4.765   2.886   7.186
 9206SOL     OW39271   5.959   0.861   4.709
 9206SOL    HW139272   6.058   0.872   4.705
 9206SOL    HW239273   5.916   0.934   4.656
 9207SOL     OW39274   7.784   2.067   4.616
 9207SOL    HW139275   7.762   2.155   4.657
 9207SOL    HW239276   7.769   1.994   4.683
 9208SOL     OW39277   4.888   3.000   1.320
 9208SOL    HW139278   4.832   2.927   1.280
 9208SOL    HW239279   4.846   3.089   1.302
 9209SOL     OW39280   7.961   4.609   3.250
 9209SOL    HW139281   7.957   4.551   3.331
 9209SOL    HW239282   7.879   4.666   3.246
 9210SOL     OW39283   5.296   1.148   4.952
 9210SOL    HW139284   5.206   1.155   4.908
 9210SOL    HW239285   5.297   1.071   5.015
 9211SOL     OW39286   1.314   0.715   0.845
 9211SOL    HW139287   1.389   0.649   0.848
 9211SOL    HW239288   1.308   0.764   0.931
 9212SOL     OW39289   9.877   3.784   2.320
 9212SOL    HW139290   9.905   3.776   2.224
 9212SOL    HW239291   9.956   3.811   2.375
 9213SOL     OW39292   3.228   4.789   5.225
 9213SOL    HW139293   3.289   4.866   5.245
 9213SOL    HW239294   3.156   4.820   5.163
 9214SOL     OW39295   8.851   4.760   2.516
 9214SOL    HW139296   8.799   4.707   2.583
 9214SOL    HW239297   8.871   4.851   2.552
 9215SOL     OW39298   9.364   3.168   1.517
 9215SOL    HW139299   9.435   3.141   1.451
 9215SOL    HW239300   9.315   3.087   1.548
 9216SOL     OW39301   8.888   7.650   1.308
 9216SOL    HW139302   8.861   7.744   1.285
 9216SOL    HW239303   8.963   7.653   1.374
 9217SOL     OW39304   6.179   1.077   6.313
 9217SOL    HW139305   6.203   1.130   6.395
 9217SOL    HW239306   6.177   0.980   6.336
 9218SOL     OW39307   1.846   6.321   7.480
 9218SOL    HW139308   1.834   6.306   7.382
 9218SOL    HW239309   1.833   6.235   7.529
 9219SOL     OW39310   9.833   2.656   5.062
 9219SOL    HW139311   9.854   2.576   5.006
 9219SOL    HW239312   9.913   2.715   5.067
 9220SOL     OW39313   4.398   7.795   2.637
 9220SOL    HW139314   4.474   7.843   2.682
 9220SOL    HW239315   4.431   7.749   2.555
 9221SOL     OW39316   8.324   0.421   1.627
 9221SOL    HW139317   8.249   0.410   1.693
 9221SOL    HW239318   8.286   0.423   1.534
 9222SOL     OW39319   1.527   5.569   0.769
 9222SOL    HW139320   1.497   5.475   0.751
 9222SOL    HW239321   1.446   5.626   0.785
 9223SOL     OW39322   9.328   0.642   0.482
 9223SOL    HW139323   9.272   0.572   0.437
 9223SOL    HW239324   9.363   0.606   0.568
 9224SOL     OW39325   6.586   5.522   7.350
 9224SOL    HW139326   6.620   5.538   7.258
 9224SOL    HW239327   6.662   5.505   7.412
 9225SOL     OW39328   7.169   3.915   1.093
 9225SOL    HW139329   7.103   3.928   1.019
 9225SOL    HW239330   7.127   3.942   1.180
 9226SOL     OW39331   8.954   4.514   1.352
 9226SOL    HW139332   8.948   4.587   1.283
 9226SOL    HW239333   8.868   4.508   1.403
 9227SOL     OW39334   4.480   4.075   6.703
 9227SOL    HW139335   4.464   4.132   6.783
 9227SOL    HW239336   4.434   3.987   6.714
 9228SOL     OW39337   2.616   8.137   0.761
 9228SOL    HW139338   2.531   8.095   0.792
 9228SOL    HW239339   2.684   8.131   0.834
 9229SOL     OW39340   1.396   8.138   7.478
 9229SOL    HW139341   1.324   8.072   7.459
 9229SOL    HW239342   1.397   8.160   7.575
 9230SOL     OW39343   3.628   3.468   4.139
 9230SOL    HW139344   3.640   3.506   4.047
 9230SOL    HW239345   3.642   3.541   4.207
 9231SOL     OW39346   9.156   2.733   1.490
 9231SOL    HW139347   9.064   2.705   1.518
 9231SOL    HW239348   9.181   2.817   1.537
 9232SOL     OW39349   2.746   6.667   3.788
 9232SOL    HW139350   2.687   6.741   3.819
 9232SOL    HW239351   2.797   6.697   3.707
 9233SOL     OW39352   3.719   9.655   5.409
 9233SOL    HW139353   3.685   9.639   5.501
 9233SOL    HW239354   3.816   9.630   5.404
 9234SOL     OW39355   1.844   6.408   5.604
 9234SOL    HW139356   1.777   6.478   5.580
 9234SOL    HW239357   1.897   6.438   5.683
 9235SOL     OW39358   3.516   2.527   4.146
 9235SOL    HW139359   3.598   2.475   4.171
 9235SOL    HW239360   3.458   2.473   4.086
 9236SOL     OW39361   2.465   7.427   0.214
 9236SOL    HW139362   2.548   7.403   0.163
 9236SOL    HW239363   2.489   7.444   0.310
 9237SOL     OW39364   0.987   2.555   1.667
 9237SOL    HW139365   0.910   2.496   1.692
 9237SOL    HW239366   0.958   2.651   1.668
 9238SOL     OW39367   7.423   0.789   4.602
 9238SOL    HW139368   7.374   0.835   4.528
 9238SOL    HW239369   7.427   0.849   4.681
 9239SOL     OW39370   9.737   7.871   1.689
 9239SOL    HW139371   9.802   7.798   1.670
 9239SOL    HW239372   9.772   7.928   1.763
 9240SOL     OW39373   4.067   4.062   1.424
 9240SOL    HW139374   4.027   3.996   1.487
 9240SOL    HW239375   4.002   4.135   1.406
 9241SOL     OW39376   0.225   5.542   7.113
 9241SOL    HW139377   0.303   5.529   7.052
 9241SOL    HW239378   0.148   5.488   7.081
 9242SOL     OW39379   7.908   1.391   4.173
 9242SOL    HW139380   7.965   1.312   4.196
 9242SOL    HW239381   7.943   1.435   4.090
 9243SOL     OW39382   8.359   9.561   5.460
 9243SOL    HW139383   8.448   9.516   5.449
 9243SOL    HW239384   8.367   9.657   5.431
 9244SOL     OW39385   7.829   7.142   5.521
 9244SOL    HW139386   7.761   7.100   5.462
 9244SOL    HW239387   7.800   7.235   5.544
 9245SOL     OW39388   4.426   3.306   2.024
 9245SOL    HW139389   4.452   3.389   1.974
 9245SOL    HW239390   4.502   3.241   2.021
 9246SOL     OW39391   2.266   3.844   4.367
 9246SOL    HW139392   2.177   3.891   4.367
 9246SOL    HW239393   2.252   3.747   4.383
 9247SOL     OW39394   5.203   2.665   2.048
 9247SOL    HW139395   5.272   2.593   2.057
 9247SOL    HW239396   5.216   2.734   2.120
 9248SOL     OW39397   9.877   6.756   7.922
 9248SOL    HW139398   9.851   6.659   7.923
 9248SOL    HW239399   9.949   6.771   7.990
 9249SOL     OW39400   8.432   3.243   5.738
 9249SOL    HW139401   8.431   3.221   5.836
 9249SOL    HW239402   8.456   3.339   5.726
 9250SOL     OW39403   0.434   8.999   0.737
 9250SOL    HW139404   0.435   9.097   0.756
 9250SOL    HW239405   0.471   8.949   0.816
 9251SOL     OW39406   2.226   7.725   1.159
 9251SOL    HW139407   2.142   7.736   1.211
 9251SOL    HW239408   2.205   7.707   1.063
 9252SOL     OW39409   6.212   3.057   2.054
 9252SOL    HW139410   6.290   3.036   1.994
 9252SOL    HW239411   6.224   3.011   2.142
 9253SOL     OW39412   3.796   8.820   2.595
 9253SOL    HW139413   3.879   8.843   2.646
 9253SOL    HW239414   3.742   8.903   2.580
 9254SOL     OW39415   6.705   2.237   5.937
 9254SOL    HW139416   6.758   2.317   5.908
 9254SOL    HW239417   6.763   2.156   5.934
 9255SOL     OW39418   7.611   6.263   5.371
 9255SOL    HW139419   7.665   6.297   5.448
 9255SOL    HW239420   7.645   6.305   5.286
 9256SOL     OW39421   7.176   4.176   1.945
 9256SOL    HW139422   7.251   4.143   2.002
 9256SOL    HW239423   7.175   4.127   1.858
 9257SOL     OW39424   8.910   4.956   4.587
 9257SOL    HW139425   8.813   4.949   4.613
 9257SOL    HW239426   8.959   5.010   4.655
 9258SOL     OW39427   1.600   1.622   6.382
 9258SOL    HW139428   1.587   1.577   6.293
 9258SOL    HW239429   1.525   1.596   6.443
 9259SOL     OW39430   9.105   7.556   3.090
 9259SOL    HW139431   9.031   7.518   3.035
 9259SOL    HW239432   9.192   7.545   3.041
 9260SOL     OW39433   2.687   2.854   4.635
 9260SOL    HW139434   2.777   2.895   4.646
 9260SOL    HW239435   2.634   2.868   4.719
 9261SOL     OW39436   9.341   0.189   4.782
 9261SOL    HW139437   9.415   0.122   4.794
 9261SOL    HW239438   9.275   0.178   4.856
 9262SOL     OW39439   0.600   6.988   1.673
 9262SOL    HW139440   0.672   6.984   1.743
 9262SOL    HW239441   0.529   6.921   1.695
 9263SOL     OW39442   1.646   3.963   6.689
 9263SOL    HW139443   1.730   3.913   6.711
 9263SOL    HW239444   1.618   3.941   6.596
 9264SOL     OW39445   3.283   3.713   6.665
 9264SOL    HW139446   3.185   3.729   6.673
 9264SOL    HW239447   3.320   3.686   6.755
 9265SOL     OW39448   3.934   0.723   7.772
 9265SOL    HW139449   3.865   0.766   7.714
 9265SOL    HW239450   4.018   0.708   7.718
 9266SOL     OW39451   8.533   9.711   1.893
 9266SOL    HW139452   8.564   9.756   1.809
 9266SOL    HW239453   8.483   9.777   1.949
 9267SOL     OW39454   7.061   0.354   1.379
 9267SOL    HW139455   7.074   0.337   1.477
 9267SOL    HW239456   7.006   0.436   1.367
 9268SOL     OW39457   1.058   3.676   4.349
 9268SOL    HW139458   1.107   3.708   4.268
 9268SOL    HW239459   1.112   3.695   4.431
 9269SOL     OW39460   7.006   6.432   4.792
 9269SOL    HW139461   7.062   6.480   4.724
 9269SOL    HW239462   6.943   6.496   4.835
 9270SOL     OW39463   1.594   1.718   3.341
 9270SOL    HW139464   1.564   1.814   3.345
 9270SOL    HW239465   1.590   1.686   3.246
 9271SOL     OW39466   0.804   3.170   3.705
 9271SOL    HW139467   0.774   3.257   3.743
 9271SOL    HW239468   0.904   3.168   3.701
 9272SOL     OW39469   0.391   4.173   6.459
 9272SOL    HW139470   0.418   4.159   6.364
 9272SOL    HW239471   0.463   4.139   6.519
 9273SOL     OW39472   4.353   5.794   7.413
 9273SOL    HW139473   4.359   5.868   7.479
 9273SOL    HW239474   4.368   5.706   7.459
 9274SOL     OW39475   1.881   8.735   6.482
 9274SOL    HW139476   1.948   8.696   6.420
 9274SOL    HW239477   1.911   8.826   6.511
 9275SOL     OW39478   0.302   1.624   7.230
 9275SOL    HW139479   0.305   1.634   7.131
 9275SOL    HW239480   0.386   1.660   7.270
 9276SOL     OW39481   2.583   0.168   0.415
 9276SOL    HW139482   2.559   0.099   0.347
 9276SOL    HW239483   2.606   0.123   0.501
 9277SOL     OW39484   0.385   7.910   7.374
 9277SOL    HW139485   0.345   7.864   7.453
 9277SOL    HW239486   0.464   7.858   7.342
 9278SOL     OW39487   3.149   5.058   1.365
 9278SOL    HW139488   3.124   5.145   1.323
 9278SOL    HW239489   3.104   5.050   1.454
 9279SOL     OW39490   3.285   9.359   3.081
 9279SOL    HW139491   3.246   9.424   3.146
 9279SOL    HW239492   3.350   9.300   3.127
 9280SOL     OW39493   3.808   0.908   1.780
 9280SOL    HW139494   3.862   0.884   1.860
 9280SOL    HW239495   3.812   0.834   1.713
 9281SOL     OW39496   4.520   8.984   5.885
 9281SOL    HW139497   4.554   8.891   5.877
 9281SOL    HW239498   4.485   8.999   5.978
 9282SOL     OW39499   1.654   0.744   5.737
 9282SOL    HW139500   1.726   0.677   5.722
 9282SOL    HW239501   1.609   0.727   5.825
 9283SOL     OW39502   2.817   3.899   0.842
 9283SOL    HW139503   2.718   3.892   0.838
 9283SOL    HW239504   2.852   3.939   0.757
 9284SOL     OW39505   6.300   4.782   1.894
 9284SOL    HW139506   6.332   4.812   1.804
 9284SOL    HW239507   6.378   4.782   1.958
 9285SOL     OW39508   4.468   1.603   1.752
 9285SOL    HW139509   4.516   1.555   1.825
 9285SOL    HW239510   4.432   1.536   1.687
 9286SOL     OW39511   9.213   5.922   4.369
 9286SOL    HW139512   9.235   6.001   4.427
 9286SOL    HW239513   9.291   5.859   4.366
 9287SOL     OW39514   2.466   6.924   7.549
 9287SOL    HW139515   2.411   6.982   7.608
 9287SOL    HW239516   2.492   6.841   7.597
 9288SOL     OW39517   3.501   3.670   2.987
 9288SOL    HW139518   3.584   3.684   3.040
 9288SOL    HW239519   3.421   3.689   3.045
 9289SOL     OW39520   9.793   9.115   5.518
 9289SOL    HW139521   9.829   9.153   5.433
 9289SOL    HW239522   9.863   9.118   5.588
 9290SOL     OW39523   5.687   9.785   4.429
 9290SOL    HW139524   5.655   9.743   4.344
 9290SOL    HW239525   5.786   9.800   4.424
 9291SOL     OW39526   2.046   4.058   6.310
 9291SOL    HW139527   2.129   4.041   6.364
 9291SOL    HW239528   2.027   4.156   6.307
 9292SOL     OW39529   0.971   6.344   0.560
 9292SOL    HW139530   0.897   6.399   0.597
 9292SOL    HW239531   0.997   6.273   0.625
 9293SOL     OW39532   2.069   3.963   4.645
 9293SOL    HW139533   2.127   3.898   4.693
 9293SOL    HW239534   2.017   4.017   4.711
 9294SOL     OW39535   5.034   1.862   5.665
 9294SOL    HW139536   5.013   1.768   5.639
 9294SOL    HW239537   5.053   1.915   5.583
 9295SOL     OW39538   3.612   9.132   5.952
 9295SOL    HW139539   3.525   9.087   5.976
 9295SOL    HW239540   3.636   9.111   5.858
 9296SOL     OW39541   7.813   4.241   0.578
 9296SOL    HW139542   7.713   4.244   0.574
 9296SOL    HW239543   7.846   4.172   0.513
 9297SOL     OW39544   7.124   1.067   5.966
 9297SOL    HW139545   7.087   1.089   6.056
 9297SOL    HW239546   7.085   0.981   5.933
 9298SOL     OW39547   7.433   9.582   6.699
 9298SOL    HW139548   7.348   9.623   6.731
 9298SOL    HW239549   7.440   9.590   6.600
 9299SOL     OW39550   8.554   9.403   1.377
 9299SOL    HW139551   8.637   9.349   1.365
 9299SOL    HW239552   8.578   9.495   1.407
 9300SOL     OW39553   0.322   9.770   3.568
 9300SOL    HW139554   0.367   9.771   3.657
 9300SOL    HW239555   0.228   9.804   3.578
 9301SOL     OW39556   8.934   1.880   6.954
 9301SOL    HW139557   8.885   1.843   6.875
 9301SOL    HW239558   8.935   1.980   6.948
 9302SOL     OW39559   8.698   6.779   3.218
 9302SOL    HW139560   8.670   6.854   3.278
 9302SOL    HW239561   8.793   6.792   3.190
 9303SOL     OW39562   1.271   3.430   4.302
 9303SOL    HW139563   1.307   3.406   4.393
 9303SOL    HW239564   1.171   3.420   4.303
 9304SOL     OW39565   8.911   7.975   2.763
 9304SOL    HW139566   8.994   7.940   2.806
 9304SOL    HW239567   8.936   8.038   2.689
 9305SOL     OW39568   3.747   6.857   0.249
 9305SOL    HW139569   3.727   6.815   0.337
 9305SOL    HW239570   3.844   6.883   0.246
 9306SOL     OW39571   1.203   5.918   7.584
 9306SOL    HW139572   1.259   5.938   7.665
 9306SOL    HW239573   1.240   5.968   7.506
 9307SOL     OW39574   4.490   3.148   1.135
 9307SOL    HW139575   4.576   3.166   1.087
 9307SOL    HW239576   4.413   3.184   1.082
 9308SOL     OW39577   7.517   8.913   5.344
 9308SOL    HW139578   7.481   8.910   5.251
 9308SOL    HW239579   7.451   8.873   5.407
 9309SOL     OW39580   5.160   4.352   1.979
 9309SOL    HW139581   5.237   4.330   2.038
 9309SOL    HW239582   5.194   4.382   1.890
 9310SOL     OW39583   8.994   9.774   6.468
 9310SOL    HW139584   8.904   9.732   6.472
 9310SOL    HW239585   9.009   9.813   6.377
 9311SOL     OW39586   2.469   5.207   7.352
 9311SOL    HW139587   2.471   5.153   7.436
 9311SOL    HW239588   2.380   5.199   7.309
 9312SOL     OW39589   0.511   5.467   4.434
 9312SOL    HW139590   0.550   5.556   4.408
 9312SOL    HW239591   0.444   5.439   4.365
 9313SOL     OW39592   2.142   4.039   5.901
 9313SOL    HW139593   2.195   4.078   5.976
 9313SOL    HW239594   2.049   4.074   5.904
 9314SOL     OW39595   3.818   3.483   4.691
 9314SOL    HW139596   3.739   3.500   4.751
 9314SOL    HW239597   3.899   3.527   4.730
 9315SOL     OW39598   3.152   4.341   3.596
 9315SOL    HW139599   3.126   4.313   3.688
 9315SOL    HW239600   3.096   4.292   3.529
 9316SOL     OW39601   6.217   8.438   3.785
 9316SOL    HW139602   6.138   8.437   3.847
 9316SOL    HW239603   6.190   8.478   3.698
 9317SOL     OW39604   1.012   8.870   3.058
 9317SOL    HW139605   0.914   8.861   3.077
 9317SOL    HW239606   1.061   8.888   3.143
 9318SOL     OW39607   0.880   3.183   2.735
 9318SOL    HW139608   0.978   3.174   2.754
 9318SOL    HW239609   0.829   3.171   2.820
 9319SOL     OW39610   1.978   8.022   4.884
 9319SOL    HW139611   1.915   8.095   4.857
 9319SOL    HW239612   2.007   7.970   4.804
 9320SOL     OW39613   6.626   0.660   3.693
 9320SOL    HW139614   6.717   0.645   3.730
 9320SOL    HW239615   6.559   0.607   3.746
 9321SOL     OW39616   3.579   8.081   0.784
 9321SOL    HW139617   3.601   8.178   0.769
 9321SOL    HW239618   3.662   8.033   0.812
 9322SOL     OW39619   5.099   1.200   5.388
 9322SOL    HW139620   5.144   1.145   5.458
 9322SOL    HW239621   5.160   1.274   5.359
 9323SOL     OW39622   0.621   9.243   5.507
 9323SOL    HW139623   0.571   9.325   5.536
 9323SOL    HW239624   0.630   9.243   5.408
 9324SOL     OW39625   7.777   2.457   4.951
 9324SOL    HW139626   7.855   2.429   5.008
 9324SOL    HW239627   7.694   2.456   5.007
 9325SOL     OW39628   2.952   6.555   6.608
 9325SOL    HW139629   2.931   6.459   6.589
 9325SOL    HW239630   3.018   6.561   6.683
 9326SOL     OW39631   4.938   3.575   6.167
 9326SOL    HW139632   5.001   3.504   6.136
 9326SOL    HW239633   4.894   3.618   6.088
 9327SOL     OW39634   9.272   2.642   0.289
 9327SOL    HW139635   9.323   2.598   0.214
 9327SOL    HW239636   9.182   2.669   0.256
 9328SOL     OW39637   0.228   9.491   0.615
 9328SOL    HW139638   0.208   9.533   0.704
 9328SOL    HW239639   0.324   9.507   0.592
 9329SOL     OW39640   3.967   2.017   2.002
 9329SOL    HW139641   3.977   1.917   2.008
 9329SOL    HW239642   3.901   2.039   1.930
 9330SOL     OW39643   8.128   9.323   4.028
 9330SOL    HW139644   8.157   9.229   4.011
 9330SOL    HW239645   8.139   9.376   3.944
 9331SOL     OW39646   1.467   2.519   4.503
 9331SOL    HW139647   1.369   2.534   4.515
 9331SOL    HW239648   1.497   2.442   4.561
 9332SOL     OW39649   4.868   1.014   6.243
 9332SOL    HW139650   4.878   0.980   6.149
 9332SOL    HW239651   4.797   1.084   6.246
 9333SOL     OW39652   7.663   8.853   1.306
 9333SOL    HW139653   7.639   8.950   1.295
 9333SOL    HW239654   7.733   8.844   1.377
 9334SOL     OW39655   4.357   4.186   2.133
 9334SOL    HW139656   4.329   4.277   2.163
 9334SOL    HW239657   4.280   4.123   2.144
 9335SOL     OW39658   8.435   8.695   2.210
 9335SOL    HW139659   8.519   8.642   2.219
 9335SOL    HW239660   8.449   8.772   2.149
 9336SOL     OW39661   9.149   0.764   2.015
 9336SOL    HW139662   9.098   0.683   2.045
 9336SOL    HW239663   9.188   0.811   2.094
 9337SOL     OW39664   9.519   2.265   1.757
 9337SOL    HW139665   9.597   2.230   1.810
 9337SOL    HW239666   9.495   2.198   1.686
 9338SOL     OW39667   1.944   3.552   2.076
 9338SOL    HW139668   1.958   3.535   2.174
 9338SOL    HW239669   1.847   3.567   2.058
 9339SOL     OW39670   7.145   9.451   7.382
 9339SOL    HW139671   7.176   9.372   7.329
 9339SOL    HW239672   7.045   9.455   7.381
 9340SOL     OW39673   4.108   2.478   0.311
 9340SOL    HW139674   4.061   2.560   0.279
 9340SOL    HW239675   4.084   2.460   0.406
 9341SOL     OW39676   1.434   3.984   4.558
 9341SOL    HW139677   1.368   3.909   4.552
 9341SOL    HW239678   1.525   3.948   4.578
 9342SOL     OW39679   0.057   5.814   7.712
 9342SOL    HW139680   0.073   5.731   7.765
 9342SOL    HW239681   0.139   5.872   7.715
 9343SOL     OW39682   5.728   0.179   7.658
 9343SOL    HW139683   5.716   0.278   7.654
 9343SOL    HW239684   5.645   0.136   7.694
 9344SOL     OW39685   2.520   4.518   1.047
 9344SOL    HW139686   2.448   4.521   1.117
 9344SOL    HW239687   2.593   4.456   1.076
 9345SOL     OW39688   2.930   8.210   0.116
 9345SOL    HW139689   2.900   8.124   0.075
 9345SOL    HW239690   3.019   8.197   0.160
 9346SOL     OW39691   1.177   2.392   6.637
 9346SOL    HW139692   1.232   2.467   6.601
 9346SOL    HW239693   1.166   2.322   6.566
 9347SOL     OW39694   2.925   0.921   7.436
 9347SOL    HW139695   2.994   0.855   7.464
 9347SOL    HW239696   2.834   0.888   7.463
 9348SOL     OW39697   2.899   9.863   3.661
 9348SOL    HW139698   2.985   9.816   3.643
 9348SOL    HW239699   2.883   9.867   3.759
 9349SOL     OW39700   2.173   8.526   4.649
 9349SOL    HW139701   2.191   8.518   4.551
 9349SOL    HW239702   2.237   8.468   4.699
 9350SOL     OW39703   6.059   1.842   3.780
 9350SOL    HW139704   6.067   1.757   3.729
 9350SOL    HW239705   6.149   1.867   3.818
 9351SOL     OW39706   7.500   1.489   5.332
 9351SOL    HW139707   7.425   1.495   5.266
 9351SOL    HW239708   7.500   1.399   5.375
 9352SOL     OW39709   9.933   3.884   2.830
 9352SOL    HW139710   9.863   3.946   2.865
 9352SOL    HW239711   9.903   3.789   2.842
 9353SOL     OW39712   1.189   3.452   5.021
 9353SOL    HW139713   1.159   3.368   4.976
 9353SOL    HW239714   1.254   3.429   5.094
 9354SOL     OW39715   3.326   3.626   7.858
 9354SOL    HW139716   3.275   3.602   7.776
 9354SOL    HW239717   3.356   3.543   7.905
 9355SOL     OW39718   6.196   0.526   2.224
 9355SOL    HW139719   6.168   0.605   2.278
 9355SOL    HW239720   6.191   0.444   2.281
 9356SOL     OW39721   6.328   5.120   7.853
 9356SOL    HW139722   6.420   5.156   7.864
 9356SOL    HW239723   6.262   5.195   7.859
 9357SOL     OW39724   9.249   1.589   2.122
 9357SOL    HW139725   9.280   1.662   2.183
 9357SOL    HW239726   9.319   1.519   2.115
 9358SOL     OW39727   5.754   1.463   7.091
 9358SOL    HW139728   5.801   1.375   7.093
 9358SOL    HW239729   5.798   1.522   7.023
 9359SOL     OW39730   9.228   3.246   0.269
 9359SOL    HW139731   9.162   3.172   0.253
 9359SOL    HW239732   9.289   3.221   0.344
 9360SOL     OW39733   0.988   5.180   4.150
 9360SOL    HW139734   0.984   5.236   4.232
 9360SOL    HW239735   1.051   5.103   4.166
 9361SOL     OW39736   3.043   3.578   4.956
 9361SOL    HW139737   3.001   3.659   4.914
 9361SOL    HW239738   3.121   3.606   5.012
 9362SOL     OW39739   1.086   7.088   3.875
 9362SOL    HW139740   1.054   7.181   3.859
 9362SOL    HW239741   1.044   7.027   3.808
 9363SOL     OW39742   9.122   2.479   5.398
 9363SOL    HW139743   9.160   2.556   5.449
 9363SOL    HW239744   9.090   2.409   5.462
 9364SOL     OW39745   6.091   2.677   0.911
 9364SOL    HW139746   6.029   2.611   0.867
 9364SOL    HW239747   6.090   2.762   0.859
 9365SOL     OW39748   9.038   2.819   5.050
 9365SOL    HW139749   9.113   2.883   5.060
 9365SOL    HW239750   8.959   2.866   5.010
 9366SOL     OW39751   1.909   3.468   7.010
 9366SOL    HW139752   1.920   3.376   7.048
 9366SOL    HW239753   1.998   3.514   7.006
 9367SOL     OW39754   5.807   8.298   5.369
 9367SOL    HW139755   5.746   8.377   5.365
 9367SOL    HW239756   5.827   8.276   5.464
 9368SOL     OW39757   3.680   5.498   1.832
 9368SOL    HW139758   3.638   5.579   1.873
 9368SOL    HW239759   3.654   5.493   1.735
 9369SOL     OW39760   8.643   4.677   0.851
 9369SOL    HW139761   8.701   4.744   0.897
 9369SOL    HW239762   8.607   4.716   0.766
 9370SOL     OW39763   8.561   5.164   0.947
 9370SOL    HW139764   8.502   5.239   0.917
 9370SOL    HW239765   8.559   5.159   1.047
 9371SOL     OW39766   4.184   3.323   0.738
 9371SOL    HW139767   4.203   3.267   0.657
 9371SOL    HW239768   4.086   3.323   0.757
 9372SOL     OW39769   2.836   3.909   3.808
 9372SOL    HW139770   2.758   3.919   3.746
 9372SOL    HW239771   2.803   3.900   3.902
 9373SOL     OW39772   8.102   8.752   1.518
 9373SOL    HW139773   8.010   8.790   1.512
 9373SOL    HW239774   8.099   8.666   1.569
 9374SOL     OW39775   1.170   5.907   2.246
 9374SOL    HW139776   1.164   5.925   2.345
 9374SOL    HW239777   1.208   5.815   2.232
 9375SOL     OW39778   1.853   0.349   0.063
 9375SOL    HW139779   1.916   0.272   0.069
 9375SOL    HW239780   1.760   0.318   0.085
 9376SOL     OW39781   1.608   3.319   3.092
 9376SOL    HW139782   1.604   3.289   2.996
 9376SOL    HW239783   1.524   3.368   3.115
 9377SOL     OW39784   4.779   9.019   5.670
 9377SOL    HW139785   4.682   9.035   5.658
 9377SOL    HW239786   4.816   8.976   5.587
 9378SOL     OW39787   1.591   5.681   1.255
 9378SOL    HW139788   1.547   5.615   1.315
 9378SOL    HW239789   1.523   5.747   1.222
 9379SOL     OW39790   7.371   9.296   4.276
 9379SOL    HW139791   7.402   9.349   4.198
 9379SOL    HW239792   7.360   9.200   4.249
 9380SOL     OW39793   5.086   2.957   1.129
 9380SOL    HW139794   5.007   2.962   1.190
 9380SOL    HW239795   5.119   2.863   1.125
 9381SOL     OW39796   2.347   7.448   5.874
 9381SOL    HW139797   2.417   7.519   5.863
 9381SOL    HW239798   2.297   7.464   5.960
 9382SOL     OW39799   9.993   8.272   7.598
 9382SOL    HW139800   9.971   8.310   7.507
 9382SOL    HW239801   0.091   8.253   7.602
 9383SOL     OW39802   0.808   4.872   5.880
 9383SOL    HW139803   0.773   4.790   5.836
 9383SOL    HW239804   0.810   4.947   5.814
 9384SOL     OW39805   5.975   1.705   4.046
 9384SOL    HW139806   6.074   1.698   4.033
 9384SOL    HW239807   5.928   1.679   3.962
 9385SOL     OW39808   3.559   9.658   3.820
 9385SOL    HW139809   3.574   9.723   3.746
 9385SOL    HW239810   3.562   9.565   3.783
 9386SOL     OW39811   4.616   0.121   2.040
 9386SOL    HW139812   4.682   0.145   1.968
 9386SOL    HW239813   4.524   0.149   2.011
 9387SOL     OW39814   6.679   8.768   5.324
 9387SOL    HW139815   6.663   8.757   5.422
 9387SOL    HW239816   6.648   8.858   5.295
 9388SOL     OW39817   3.042   3.765   7.035
 9388SOL    HW139818   3.028   3.839   6.971
 9388SOL    HW239819   2.954   3.733   7.071
 9389SOL     OW39820   6.165   9.153   2.202
 9389SOL    HW139821   6.102   9.142   2.279
 9389SOL    HW239822   6.219   9.070   2.192
 9390SOL     OW39823   4.641   6.564   3.126
 9390SOL    HW139824   4.577   6.640   3.140
 9390SOL    HW239825   4.703   6.586   3.051
 9391SOL     OW39826   0.281   4.106   6.873
 9391SOL    HW139827   0.305   4.192   6.920
 9391SOL    HW239828   0.207   4.061   6.923
 9392SOL     OW39829   5.844   1.110   7.319
 9392SOL    HW139830   5.881   1.028   7.363
 9392SOL    HW239831   5.757   1.089   7.276
 9393SOL     OW39832   8.072   7.637   3.669
 9393SOL    HW139833   8.097   7.655   3.573
 9393SOL    HW239834   8.056   7.724   3.716
 9394SOL     OW39835   1.994   5.889   4.283
 9394SOL    HW139836   2.086   5.880   4.321
 9394SOL    HW239837   1.926   5.882   4.356
 9395SOL     OW39838   9.022   6.981   6.661
 9395SOL    HW139839   9.109   7.012   6.622
 9395SOL    HW239840   9.007   6.885   6.636
 9396SOL     OW39841   9.078   4.516   7.690
 9396SOL    HW139842   9.102   4.436   7.746
 9396SOL    HW239843   9.148   4.529   7.620
 9397SOL     OW39844   9.950   6.368   5.741
 9397SOL    HW139845   9.865   6.330   5.779
 9397SOL    HW239846   0.017   6.378   5.815
 9398SOL     OW39847   7.935   4.991   3.949
 9398SOL    HW139848   8.002   5.058   3.982
 9398SOL    HW239849   7.848   5.037   3.929
 9399SOL     OW39850   5.466   2.459   1.020
 9399SOL    HW139851   5.494   2.555   1.010
 9399SOL    HW239852   5.536   2.401   0.977
 9400SOL     OW39853   4.187   9.136   2.749
 9400SOL    HW139854   4.194   9.078   2.830
 9400SOL    HW239855   4.219   9.228   2.770
 9401SOL     OW39856   9.409   9.792   0.277
 9401SOL    HW139857   9.489   9.838   0.315
 9401SOL    HW239858   9.336   9.791   0.345
 9402SOL     OW39859   6.115   0.300   6.373
 9402SOL    HW139860   6.132   0.310   6.275
 9402SOL    HW239861   6.016   0.304   6.391
 9403SOL     OW39862   1.681   7.180   1.011
 9403SOL    HW139863   1.600   7.168   0.954
 9403SOL    HW239864   1.719   7.091   1.036
 9404SOL     OW39865   8.359   5.162   6.804
 9404SOL    HW139866   8.296   5.165   6.882
 9404SOL    HW239867   8.403   5.251   6.793
 9405SOL     OW39868   1.162   0.590   1.702
 9405SOL    HW139869   1.162   0.497   1.664
 9405SOL    HW239870   1.071   0.631   1.688
 9406SOL     OW39871   0.100   4.005   2.174
 9406SOL    HW139872   0.099   3.978   2.271
 9406SOL    HW239873   0.052   4.092   2.163
 9407SOL     OW39874   7.339   0.354   3.650
 9407SOL    HW139875   7.277   0.335   3.726
 9407SOL    HW239876   7.288   0.352   3.564
 9408SOL     OW39877   0.151   3.879   5.959
 9408SOL    HW139878   0.097   3.814   5.907
 9408SOL    HW239879   0.226   3.914   5.902
 9409SOL     OW39880   0.452   8.674   7.811
 9409SOL    HW139881   0.530   8.706   7.757
 9409SOL    HW239882   0.372   8.666   7.751
 9410SOL     OW39883   2.636   9.990   2.306
 9410SOL    HW139884   2.655   0.081   2.269
 9410SOL    HW239885   2.538   9.977   2.316
 9411SOL     OW39886   9.779   4.350   0.421
 9411SOL    HW139887   9.799   4.313   0.511
 9411SOL    HW239888   9.768   4.450   0.428
 9412SOL     OW39889   9.170   6.569   0.511
 9412SOL    HW139890   9.071   6.555   0.512
 9412SOL    HW239891   9.190   6.665   0.529
 9413SOL     OW39892   9.388   8.285   2.520
 9413SOL    HW139893   9.331   8.266   2.440
 9413SOL    HW239894   9.365   8.376   2.556
 9414SOL     OW39895   8.489   4.146   0.511
 9414SOL    HW139896   8.486   4.065   0.453
 9414SOL    HW239897   8.514   4.120   0.605
 9415SOL     OW39898   8.608   4.236   0.816
 9415SOL    HW139899   8.564   4.302   0.756
 9415SOL    HW239900   8.672   4.284   0.878
 9416SOL     OW39901   1.345   5.683   4.814
 9416SOL    HW139902   1.286   5.612   4.775
 9416SOL    HW239903   1.404   5.643   4.884
 9417SOL     OW39904   7.849   8.538   6.801
 9417SOL    HW139905   7.905   8.532   6.718
 9417SOL    HW239906   7.844   8.448   6.844
 9418SOL     OW39907   2.065   5.005   1.494
 9418SOL    HW139908   2.034   4.972   1.582
 9418SOL    HW239909   1.995   4.989   1.425
 9419SOL     OW39910   9.447   4.177   0.381
 9419SOL    HW139911   9.511   4.128   0.441
 9419SOL    HW239912   9.431   4.268   0.419
 9420SOL     OW39913   6.689   8.493   5.867
 9420SOL    HW139914   6.666   8.513   5.962
 9420SOL    HW239915   6.768   8.549   5.840
 9421SOL     OW39916   6.924   3.479   1.015
 9421SOL    HW139917   6.969   3.536   0.947
 9421SOL    HW239918   6.842   3.526   1.048
 9422SOL     OW39919   9.059   8.974   6.549
 9422SOL    HW139920   8.986   8.923   6.503
 9422SOL    HW239921   9.026   9.008   6.638
 9423SOL     OW39922   2.653   5.990   5.255
 9423SOL    HW139923   2.608   5.951   5.334
 9423SOL    HW239924   2.750   6.002   5.274
 9424SOL     OW39925   9.461   4.525   4.655
 9424SOL    HW139926   9.498   4.475   4.733
 9424SOL    HW239927   9.382   4.476   4.619
 9425SOL     OW39928   8.151   4.068   5.253
 9425SOL    HW139929   8.180   4.062   5.157
 9425SOL    HW239930   8.197   3.997   5.306
 9426SOL     OW39931   9.019   8.110   2.542
 9426SOL    HW139932   8.983   8.122   2.450
 9426SOL    HW239933   9.088   8.037   2.542
 9427SOL     OW39934   7.366   0.735   7.876
 9427SOL    HW139935   7.310   0.743   7.793
 9427SOL    HW239936   7.357   0.818   7.930
 9428SOL     OW39937   1.120   9.641   5.326
 9428SOL    HW139938   1.072   9.611   5.244
 9428SOL    HW239939   1.094   9.583   5.403
 9429SOL     OW39940   8.547   6.687   0.998
 9429SOL    HW139941   8.462   6.636   1.008
 9429SOL    HW239942   8.623   6.633   1.034
 9430SOL     OW39943   7.784   2.897   3.800
 9430SOL    HW139944   7.820   2.813   3.841
 9430SOL    HW239945   7.835   2.976   3.835
 9431SOL     OW39946   0.955   2.692   3.808
 9431SOL    HW139947   0.868   2.661   3.770
 9431SOL    HW239948   1.015   2.724   3.734
 9432SOL     OW39949   1.661   7.044   4.664
 9432SOL    HW139950   1.674   7.072   4.759
 9432SOL    HW239951   1.571   7.073   4.632
 9433SOL     OW39952   3.139   9.791   1.227
 9433SOL    HW139953   3.158   9.872   1.172
 9433SOL    HW239954   3.083   9.728   1.174
 9434SOL     OW39955   6.942   5.547   0.480
 9434SOL    HW139956   6.940   5.533   0.381
 9434SOL    HW239957   7.035   5.532   0.514
 9435SOL     OW39958   9.585   6.561   1.952
 9435SOL    HW139959   9.508   6.602   1.903
 9435SOL    HW239960   9.612   6.476   1.907
 9436SOL     OW39961   5.192   7.734   6.699
 9436SOL    HW139962   5.283   7.742   6.658
 9436SOL    HW239963   5.132   7.682   6.638
 9437SOL     OW39964   2.360   7.310   7.057
 9437SOL    HW139965   2.288   7.299   7.125
 9437SOL    HW239966   2.366   7.406   7.030
 9438SOL     OW39967   1.801   7.568   5.409
 9438SOL    HW139968   1.744   7.649   5.394
 9438SOL    HW239969   1.770   7.522   5.493
 9439SOL     OW39970   1.845   4.987   3.871
 9439SOL    HW139971   1.810   5.011   3.781
 9439SOL    HW239972   1.808   4.899   3.900
 9440SOL     OW39973   1.854   8.274   2.769
 9440SOL    HW139974   1.836   8.298   2.674
 9440SOL    HW239975   1.790   8.203   2.799
 9441SOL     OW39976   7.274   9.512   2.415
 9441SOL    HW139977   7.180   9.516   2.449
 9441SOL    HW239978   7.274   9.470   2.324
 9442SOL     OW39979   9.026   7.655   2.795
 9442SOL    HW139980   9.077   7.734   2.828
 9442SOL    HW239981   9.087   7.597   2.740
 9443SOL     OW39982   1.759   1.298   0.905
 9443SOL    HW139983   1.734   1.386   0.945
 9443SOL    HW239984   1.794   1.237   0.977
 9444SOL     OW39985   2.241   7.052   3.253
 9444SOL    HW139986   2.315   7.076   3.316
 9444SOL    HW239987   2.257   6.960   3.216
 9445SOL     OW39988   4.199   9.444   3.488
 9445SOL    HW139989   4.241   9.355   3.466
 9445SOL    HW239990   4.167   9.443   3.583
 9446SOL     OW39991   1.222   8.588   2.019
 9446SOL    HW139992   1.196   8.513   2.081
 9446SOL    HW239993   1.295   8.642   2.061
 9447SOL     OW39994   9.111   3.947   5.589
 9447SOL    HW139995   9.063   3.864   5.618
 9447SOL    HW239996   9.209   3.936   5.603
 9448SOL     OW39997   2.585   2.745   6.788
 9448SOL    HW139998   2.575   2.843   6.804
 9448SOL    HW239999   2.658   2.730   6.721
 9449SOL     OW40000   1.807   1.447   3.132
 9449SOL    HW140001   1.838   1.373   3.071
 9449SOL    HW240002   1.780   1.408   3.220
 9450SOL     OW40003   7.002   7.015   5.655
 9450SOL    HW140004   6.982   7.106   5.620
 9450SOL    HW240005   6.937   6.991   5.726
 9451SOL     OW40006   8.793   9.115   4.710
 9451SOL    HW140007   8.849   9.084   4.633
 9451SOL    HW240008   8.784   9.040   4.776
 9452SOL     OW40009   5.971   3.718   0.727
 9452SOL    HW140010   5.989   3.710   0.825
 9452SOL    HW240011   5.872   3.720   0.712
 9453SOL     OW40012   4.774   0.234   7.721
 9453SOL    HW140013   4.783   0.193   7.631
 9453SOL    HW240014   4.742   0.328   7.711
 9454SOL     OW40015   2.120   0.600   5.445
 9454SOL    HW140016   2.121   0.501   5.430
 9454SOL    HW240017   2.026   0.634   5.437
 9455SOL     OW40018   4.547   9.440   6.457
 9455SOL    HW140019   4.533   9.499   6.378
 9455SOL    HW240020   4.503   9.480   6.537
 9456SOL     OW40021   0.427   6.254   6.956
 9456SOL    HW140022   0.505   6.212   7.003
 9456SOL    HW240023   0.427   6.353   6.973
 9457SOL     OW40024   4.017   0.619   6.157
 9457SOL    HW140025   4.026   0.571   6.244
 9457SOL    HW240026   4.058   0.709   6.164
 9458SOL     OW40027   8.566   6.201   6.257
 9458SOL    HW140028   8.516   6.212   6.343
 9458SOL    HW240029   8.528   6.264   6.189
 9459SOL     OW40030   0.702   5.177   6.201
 9459SOL    HW140031   0.660   5.107   6.144
 9459SOL    HW240032   0.632   5.223   6.255
 9460SOL     OW40033   8.969   2.797   7.362
 9460SOL    HW140034   9.008   2.866   7.423
 9460SOL    HW240035   8.927   2.842   7.283
 9461SOL     OW40036   2.612   3.463   2.615
 9461SOL    HW140037   2.701   3.506   2.603
 9461SOL    HW240038   2.570   3.446   2.525
 9462SOL     OW40039   2.780   7.869   2.187
 9462SOL    HW140040   2.833   7.802   2.136
 9462SOL    HW240041   2.814   7.961   2.166
 9463SOL     OW40042   5.736   1.919   1.101
 9463SOL    HW140043   5.791   1.983   1.155
 9463SOL    HW240044   5.764   1.825   1.122
 9464SOL     OW40045   4.254   8.781   5.391
 9464SOL    HW140046   4.265   8.682   5.389
 9464SOL    HW240047   4.218   8.813   5.303
 9465SOL     OW40048   9.742   4.570   6.267
 9465SOL    HW140049   9.673   4.624   6.220
 9465SOL    HW240050   9.803   4.630   6.319
 9466SOL     OW40051   0.671   2.121   0.474
 9466SOL    HW140052   0.687   2.217   0.452
 9466SOL    HW240053   0.601   2.084   0.413
 9467SOL     OW40054   7.949   1.832   5.318
 9467SOL    HW140055   7.967   1.813   5.222
 9467SOL    HW240056   7.853   1.857   5.330
 9468SOL     OW40057   9.783   3.015   1.796
 9468SOL    HW140058   9.852   2.943   1.788
 9468SOL    HW240059   9.710   2.986   1.858
 9469SOL     OW40060   9.071   4.790   5.024
 9469SOL    HW140061   8.977   4.767   5.049
 9469SOL    HW240062   9.080   4.787   4.924
 9470SOL     OW40063   3.854   7.052   5.056
 9470SOL    HW140064   3.854   7.152   5.067
 9470SOL    HW240065   3.918   7.027   4.984
 9471SOL     OW40066   2.461   9.323   5.870
 9471SOL    HW140067   2.367   9.356   5.865
 9471SOL    HW240068   2.521   9.395   5.906
 9472SOL     OW40069   1.022   1.853   5.850
 9472SOL    HW140070   0.962   1.827   5.926
 9472SOL    HW240071   0.974   1.917   5.790
 9473SOL     OW40072   0.433   2.005   3.018
 9473SOL    HW140073   0.493   1.957   3.083
 9473SOL    HW240074   0.481   2.084   2.981
 9474SOL     OW40075   3.651   9.778   0.133
 9474SOL    HW140076   3.562   9.731   0.134
 9474SOL    HW240077   3.636   9.876   0.126
 9475SOL     OW40078   4.017   0.049   0.892
 9475SOL    HW140079   3.976   0.020   0.805
 9475SOL    HW240080   4.113   0.072   0.878
 9476SOL     OW40081   2.759   1.458   1.543
 9476SOL    HW140082   2.753   1.430   1.639
 9476SOL    HW240083   2.847   1.502   1.526
 9477SOL     OW40084   3.167   9.761   4.976
 9477SOL    HW140085   3.108   9.835   5.007
 9477SOL    HW240086   3.231   9.737   5.049
 9478SOL     OW40087   5.170   2.641   6.722
 9478SOL    HW140088   5.184   2.728   6.676
 9478SOL    HW240089   5.233   2.573   6.685
 9479SOL     OW40090   1.790   1.773   0.309
 9479SOL    HW140091   1.703   1.763   0.262
 9479SOL    HW240092   1.783   1.732   0.401
 9480SOL     OW40093   2.201   3.220   7.016
 9480SOL    HW140094   2.207   3.182   7.108
 9480SOL    HW240095   2.283   3.274   6.996
 9481SOL     OW40096   7.760   5.623   0.143
 9481SOL    HW140097   7.737   5.582   0.055
 9481SOL    HW240098   7.723   5.716   0.147
 9482SOL     OW40099   8.292   2.124   0.322
 9482SOL    HW140100   8.267   2.059   0.393
 9482SOL    HW240101   8.209   2.161   0.281
 9483SOL     OW40102   4.785   6.155   1.783
 9483SOL    HW140103   4.830   6.214   1.850
 9483SOL    HW240104   4.834   6.160   1.696
 9484SOL     OW40105   8.999   6.864   0.392
 9484SOL    HW140106   8.918   6.920   0.407
 9484SOL    HW240107   8.973   6.782   0.341
 9485SOL     OW40108   9.937   8.044   5.696
 9485SOL    HW140109   9.966   7.949   5.685
 9485SOL    HW240110   9.849   8.058   5.652
 9486SOL     OW40111   4.690   0.158   3.716
 9486SOL    HW140112   4.789   0.174   3.711
 9486SOL    HW240113   4.651   0.222   3.783
 9487SOL     OW40114   2.774   0.575   1.885
 9487SOL    HW140115   2.793   0.664   1.927
 9487SOL    HW240116   2.856   0.542   1.839
 9488SOL     OW40117   4.178   4.051   6.912
 9488SOL    HW140118   4.233   4.063   6.995
 9488SOL    HW240119   4.220   3.981   6.854
 9489SOL     OW40120   9.369   8.120   6.567
 9489SOL    HW140121   9.322   8.209   6.566
 9489SOL    HW240122   9.463   8.133   6.599
 9490SOL     OW40123   6.983   1.298   2.150
 9490SOL    HW140124   7.043   1.324   2.225
 9490SOL    HW240125   6.990   1.200   2.133
 9491SOL     OW40126   0.480   7.260   3.454
 9491SOL    HW140127   0.518   7.250   3.363
 9491SOL    HW240128   0.543   7.315   3.510
 9492SOL     OW40129   5.243   3.698   0.471
 9492SOL    HW140130   5.151   3.666   0.446
 9492SOL    HW240131   5.243   3.730   0.565
 9493SOL     OW40132   2.094   3.573   4.676
 9493SOL    HW140133   2.133   3.653   4.723
 9493SOL    HW240134   2.100   3.587   4.577
 9494SOL     OW40135   8.789   4.074   2.354
 9494SOL    HW140136   8.850   4.052   2.430
 9494SOL    HW240137   8.821   4.027   2.272
 9495SOL     OW40138   7.193   8.014   7.512
 9495SOL    HW140139   7.227   8.054   7.427
 9495SOL    HW240140   7.103   8.052   7.533
 9496SOL     OW40141   8.063   1.115   1.618
 9496SOL    HW140142   8.029   1.097   1.526
 9496SOL    HW240143   8.084   1.029   1.664
 9497SOL     OW40144   3.264   3.067   7.084
 9497SOL    HW140145   3.278   3.159   7.047
 9497SOL    HW240146   3.315   3.001   7.029
 9498SOL     OW40147   1.588   4.109   6.132
 9498SOL    HW140148   1.517   4.046   6.164
 9498SOL    HW240149   1.556   4.203   6.142
 9499SOL     OW40150   1.459   5.594   7.406
 9499SOL    HW140151   1.536   5.529   7.398
 9499SOL    HW240152   1.386   5.566   7.345
 9500SOL     OW40153   1.733   6.666   0.978
 9500SOL    HW140154   1.642   6.647   0.939
 9500SOL    HW240155   1.758   6.591   1.040
 9501SOL     OW40156   0.075   2.771   0.781
 9501SOL    HW140157   0.073   2.740   0.876
 9501SOL    HW240158   9.989   2.749   0.736
 9502SOL     OW40159   3.347   2.353   3.105
 9502SOL    HW140160   3.310   2.375   3.195
 9502SOL    HW240161   3.446   2.336   3.113
 9503SOL     OW40162   2.287   4.222   3.527
 9503SOL    HW140163   2.290   4.304   3.470
 9503SOL    HW240164   2.294   4.248   3.624
 9504SOL     OW40165   7.995   7.852   3.822
 9504SOL    HW140166   8.024   7.945   3.800
 9504SOL    HW240167   7.898   7.852   3.847
 9505SOL     OW40168   3.658   8.721   2.370
 9505SOL    HW140169   3.571   8.770   2.376
 9505SOL    HW240170   3.716   8.746   2.447
 9506SOL     OW40171   8.115   4.206   2.339
 9506SOL    HW140172   8.093   4.110   2.353
 9506SOL    HW240173   8.180   4.214   2.264
 9507SOL     OW40174   8.547   8.018   7.785
 9507SOL    HW140175   8.559   8.039   7.882
 9507SOL    HW240176   8.474   7.950   7.775
 9508SOL     OW40177   2.926   1.082   5.386
 9508SOL    HW140178   3.004   1.144   5.382
 9508SOL    HW240179   2.874   1.099   5.469
 9509SOL     OW40180   0.071   8.749   0.463
 9509SOL    HW140181   0.147   8.685   0.464
 9509SOL    HW240182   9.990   8.706   0.503
 9510SOL     OW40183   2.938   3.684   1.947
 9510SOL    HW140184   3.025   3.676   1.899
 9510SOL    HW240185   2.864   3.700   1.882
 9511SOL     OW40186   0.580   7.210   5.344
 9511SOL    HW140187   0.603   7.194   5.248
 9511SOL    HW240188   0.601   7.127   5.397
 9512SOL     OW40189   1.898   9.558   4.789
 9512SOL    HW140190   1.945   9.493   4.729
 9512SOL    HW240191   1.803   9.529   4.802
 9513SOL     OW40192   9.060   3.595   4.304
 9513SOL    HW140193   8.999   3.521   4.275
 9513SOL    HW240194   9.141   3.595   4.245
 9514SOL     OW40195   1.114   5.164   0.731
 9514SOL    HW140196   1.157   5.181   0.642
 9514SOL    HW240197   1.048   5.090   0.722
 9515SOL     OW40198   8.587   7.217   2.844
 9515SOL    HW140199   8.518   7.157   2.802
 9515SOL    HW240200   8.678   7.191   2.811
 9516SOL     OW40201   2.836   5.626   0.979
 9516SOL    HW140202   2.883   5.669   0.903
 9516SOL    HW240203   2.900   5.613   1.055
 9517SOL     OW40204   0.459   7.335   1.003
 9517SOL    HW140205   0.518   7.359   0.926
 9517SOL    HW240206   0.513   7.335   1.087
 9518SOL     OW40207   7.701   0.103   0.380
 9518SOL    HW140208   7.719   0.143   0.470
 9518SOL    HW240209   7.754   0.153   0.311
 9519SOL     OW40210   9.099   1.970   1.195
 9519SOL    HW140211   9.179   1.998   1.142
 9519SOL    HW240212   9.048   2.051   1.223
 9520SOL     OW40213   3.794   9.472   0.337
 9520SOL    HW140214   3.700   9.500   0.351
 9520SOL    HW240215   3.843   9.541   0.284
 9521SOL     OW40216   0.648   2.344   5.916
 9521SOL    HW140217   0.743   2.367   5.895
 9521SOL    HW240218   0.612   2.284   5.845
 9522SOL     OW40219   4.775   7.540   3.865
 9522SOL    HW140220   4.721   7.482   3.805
 9522SOL    HW240221   4.756   7.636   3.844
 9523SOL     OW40222   3.030   0.211   5.169
 9523SOL    HW140223   2.994   0.299   5.138
 9523SOL    HW240224   3.129   0.217   5.179
 9524SOL     OW40225   5.560   2.565   5.540
 9524SOL    HW140226   5.494   2.534   5.472
 9524SOL    HW240227   5.642   2.509   5.535
 9525SOL     OW40228   3.940   6.612   2.089
 9525SOL    HW140229   3.886   6.640   2.168
 9525SOL    HW240230   4.037   6.619   2.111
 9526SOL     OW40231   2.632   7.801   2.894
 9526SOL    HW140232   2.731   7.818   2.894
 9526SOL    HW240233   2.615   7.703   2.888
 9527SOL     OW40234   8.501   9.481   5.144
 9527SOL    HW140235   8.577   9.525   5.096
 9527SOL    HW240236   8.420   9.540   5.140
 9528SOL     OW40237   9.494   6.674   1.244
 9528SOL    HW140238   9.438   6.669   1.327
 9528SOL    HW240239   9.457   6.745   1.184
 9529SOL     OW40240   4.308   2.564   4.026
 9529SOL    HW140241   4.306   2.641   3.963
 9529SOL    HW240242   4.259   2.487   3.985
 9530SOL     OW40243   2.685   2.732   7.806
 9530SOL    HW140244   2.585   2.724   7.801
 9530SOL    HW240245   2.727   2.674   7.736
 9531SOL     OW40246   2.592   3.577   4.537
 9531SOL    HW140247   2.526   3.503   4.524
 9531SOL    HW240248   2.560   3.639   4.609
 9532SOL     OW40249   8.361   9.613   6.231
 9532SOL    HW140250   8.441   9.580   6.180
 9532SOL    HW240251   8.306   9.672   6.172
 9533SOL     OW40252   4.958   1.873   7.437
 9533SOL    HW140253   5.035   1.905   7.381
 9533SOL    HW240254   4.918   1.792   7.395
 9534SOL     OW40255   1.081   3.000   6.176
 9534SOL    HW140256   1.149   2.937   6.139
 9534SOL    HW240257   1.126   3.080   6.215
 9535SOL     OW40258   7.086   6.870   2.323
 9535SOL    HW140259   7.179   6.872   2.287
 9535SOL    HW240260   7.050   6.777   2.319
 9536SOL     OW40261   8.334   1.193   7.817
 9536SOL    HW140262   8.363   1.210   7.723
 9536SOL    HW240263   8.398   1.238   7.880
 9537SOL     OW40264   8.373   7.166   6.817
 9537SOL    HW140265   8.458   7.166   6.871
 9537SOL    HW240266   8.295   7.167   6.879
 9538SOL     OW40267   7.358   9.124   2.583
 9538SOL    HW140268   7.290   9.106   2.655
 9538SOL    HW240269   7.444   9.080   2.607
 9539SOL     OW40270   9.740   0.179   5.108
 9539SOL    HW140271   9.689   0.251   5.156
 9539SOL    HW240272   9.679   0.103   5.089
 9540SOL     OW40273   9.060   7.648   4.805
 9540SOL    HW140274   9.040   7.746   4.808
 9540SOL    HW240275   9.151   7.633   4.769
 9541SOL     OW40276   2.221   3.503   4.041
 9541SOL    HW140277   2.196   3.599   4.034
 9541SOL    HW240278   2.320   3.495   4.059
 9542SOL     OW40279   7.190   8.945   2.767
 9542SOL    HW140280   7.216   8.851   2.788
 9542SOL    HW240281   7.161   8.991   2.851
 9543SOL     OW40282   3.269   0.215   4.735
 9543SOL    HW140283   3.198   0.151   4.765
 9543SOL    HW240284   3.244   0.251   4.645
 9544SOL     OW40285   8.894   3.438   5.089
 9544SOL    HW140286   8.944   3.483   5.015
 9544SOL    HW240287   8.856   3.352   5.056
 9545SOL     OW40288   3.282   1.062   0.590
 9545SOL    HW140289   3.312   0.969   0.566
 9545SOL    HW240290   3.295   1.123   0.512
 9546SOL     OW40291   5.474   8.978   4.510
 9546SOL    HW140292   5.483   9.014   4.602
 9546SOL    HW240293   5.400   9.026   4.463
 9547SOL     OW40294   0.332   8.969   7.543
 9547SOL    HW140295   0.254   8.947   7.602
 9547SOL    HW240296   0.400   9.021   7.595
 9548SOL     OW40297   3.778   5.210   5.347
 9548SOL    HW140298   3.784   5.187   5.250
 9548SOL    HW240299   3.690   5.255   5.365
 9549SOL     OW40300   6.071   1.700   5.983
 9549SOL    HW140301   6.162   1.741   5.984
 9549SOL    HW240302   6.072   1.617   5.929
 9550SOL     OW40303   7.484   5.797   6.880
 9550SOL    HW140304   7.403   5.843   6.841
 9550SOL    HW240305   7.457   5.709   6.919
 9551SOL     OW40306   3.686   0.111   0.402
 9551SOL    HW140307   3.644   0.065   0.480
 9551SOL    HW240308   3.777   0.143   0.427
 9552SOL     OW40309   1.893   0.021   4.574
 9552SOL    HW140310   1.875   0.109   4.618
 9552SOL    HW240311   1.921   9.954   4.643
 9553SOL     OW40312   3.795   7.125   0.908
 9553SOL    HW140313   3.776   7.223   0.906
 9553SOL    HW240314   3.880   7.109   0.958
 9554SOL     OW40315   7.221   3.405   1.475
 9554SOL    HW140316   7.187   3.335   1.537
 9554SOL    HW240317   7.279   3.469   1.526
 9555SOL     OW40318   6.779   9.441   2.141
 9555SOL    HW140319   6.841   9.365   2.158
 9555SOL    HW240320   6.740   9.433   2.050
 9556SOL     OW40321   3.950   5.845   1.717
 9556SOL    HW140322   3.880   5.904   1.757
 9556SOL    HW240323   3.956   5.760   1.770
 9557SOL     OW40324   6.090   5.021   1.192
 9557SOL    HW140325   6.076   5.062   1.282
 9557SOL    HW240326   6.117   5.091   1.127
 9558SOL     OW40327   7.931   3.768   1.184
 9558SOL    HW140328   8.005   3.734   1.241
 9558SOL    HW240329   7.844   3.758   1.234
 9559SOL     OW40330   2.509   0.762   4.915
 9559SOL    HW140331   2.436   0.728   4.975
 9559SOL    HW240332   2.590   0.780   4.970
 9560SOL     OW40333   9.952   5.273   6.567
 9560SOL    HW140334   0.015   5.337   6.609
 9560SOL    HW240335   9.923   5.205   6.634
 9561SOL     OW40336   8.158   9.149   6.276
 9561SOL    HW140337   8.132   9.081   6.345
 9561SOL    HW240338   8.212   9.221   6.320
 9562SOL     OW40339   8.712   4.340   6.655
 9562SOL    HW140340   8.669   4.430   6.659
 9562SOL    HW240341   8.641   4.270   6.642
 9563SOL     OW40342   0.721   0.626   7.867
 9563SOL    HW140343   0.669   0.672   7.795
 9563SOL    HW240344   0.697   0.666   7.956
 9564SOL     OW40345   3.650   8.848   6.837
 9564SOL    HW140346   3.619   8.897   6.755
 9564SOL    HW240347   3.744   8.816   6.823
 9565SOL     OW40348   0.853   7.959   4.883
 9565SOL    HW140349   0.807   7.897   4.819
 9565SOL    HW240350   0.916   8.018   4.832
 9566SOL     OW40351   3.724   8.324   3.594
 9566SOL    HW140352   3.762   8.257   3.530
 9566SOL    HW240353   3.721   8.284   3.685
 9567SOL     OW40354   1.114   6.002   4.630
 9567SOL    HW140355   1.045   6.073   4.645
 9567SOL    HW240356   1.139   5.960   4.718
 9568SOL     OW40357   0.423   2.327   2.438
 9568SOL    HW140358   0.413   2.280   2.350
 9568SOL    HW240359   0.409   2.425   2.425
 9569SOL     OW40360   3.839   7.907   3.223
 9569SOL    HW140361   3.799   7.886   3.134
 9569SOL    HW240362   3.938   7.906   3.217
 9570SOL     OW40363   4.016   1.121   3.616
 9570SOL    HW140364   4.082   1.084   3.682
 9570SOL    HW240365   3.967   1.198   3.656
 9571SOL     OW40366   3.381   8.349   3.758
 9571SOL    HW140367   3.379   8.290   3.839
 9571SOL    HW240368   3.439   8.308   3.688
 9572SOL     OW40369   8.748   7.327   3.128
 9572SOL    HW140370   8.804   7.381   3.065
 9572SOL    HW240371   8.651   7.337   3.104
 9573SOL     OW40372   0.969   1.358   1.720
 9573SOL    HW140373   0.884   1.309   1.699
 9573SOL    HW240374   0.959   1.408   1.805
 9574SOL     OW40375   1.836   1.440   1.317
 9574SOL    HW140376   1.741   1.452   1.289
 9574SOL    HW240377   1.843   1.365   1.383
 9575SOL     OW40378   8.790   3.165   3.340
 9575SOL    HW140379   8.850   3.091   3.310
 9575SOL    HW240380   8.699   3.151   3.301
 9576SOL     OW40381   1.581   4.344   2.379
 9576SOL    HW140382   1.494   4.306   2.409
 9576SOL    HW240383   1.627   4.388   2.456
 9577SOL     OW40384   6.612   9.973   4.984
 9577SOL    HW140385   6.519   9.946   5.007
 9577SOL    HW240386   6.628   0.068   5.012
 9578SOL     OW40387   5.387   0.807   5.883
 9578SOL    HW140388   5.451   0.738   5.916
 9578SOL    HW240389   5.432   0.866   5.816
 9579SOL     OW40390   2.993   6.992   3.597
 9579SOL    HW140391   3.041   6.932   3.534
 9579SOL    HW240392   3.044   6.997   3.683
 9580SOL     OW40393   4.648   9.837   1.565
 9580SOL    HW140394   4.621   9.743   1.584
 9580SOL    HW240395   4.684   9.844   1.472
 9581SOL     OW40396   3.676   2.014   0.262
 9581SOL    HW140397   3.678   1.937   0.198
 9581SOL    HW240398   3.710   2.097   0.216
 9582SOL     OW40399   0.551   4.781   0.637
 9582SOL    HW140400   0.615   4.736   0.699
 9582SOL    HW240401   0.546   4.728   0.552
 9583SOL     OW40402   5.231   0.940   5.126
 9583SOL    HW140403   5.221   0.850   5.084
 9583SOL    HW240404   5.140   0.981   5.140
 9584SOL     OW40405   5.109   4.773   6.436
 9584SOL    HW140406   5.170   4.693   6.444
 9584SOL    HW240407   5.041   4.756   6.365
 9585SOL     OW40408   0.695   5.600   6.021
 9585SOL    HW140409   0.657   5.692   6.009
 9585SOL    HW240410   0.627   5.532   5.996
 9586SOL     OW40411   4.112   1.767   7.336
 9586SOL    HW140412   4.073   1.847   7.382
 9586SOL    HW240413   4.084   1.765   7.241
 9587SOL     OW40414   7.300   1.996   4.130
 9587SOL    HW140415   7.393   2.031   4.137
 9587SOL    HW240416   7.241   2.047   4.194
 9588SOL     OW40417   0.993   2.284   1.273
 9588SOL    HW140418   0.966   2.309   1.180
 9588SOL    HW240419   1.015   2.367   1.325
 9589SOL     OW40420   2.791   0.168   6.572
 9589SOL    HW140421   2.720   0.123   6.626
 9589SOL    HW240422   2.819   0.108   6.497
 9590SOL     OW40423   0.623   9.943   6.912
 9590SOL    HW140424   0.652   9.984   6.826
 9590SOL    HW240425   0.586   0.013   6.972
 9591SOL     OW40426   8.304   9.503   6.990
 9591SOL    HW140427   8.215   9.462   6.968
 9591SOL    HW240428   8.296   9.553   7.076
 9592SOL     OW40429   0.972   9.903   4.415
 9592SOL    HW140430   0.904   9.930   4.483
 9592SOL    HW240431   1.058   9.881   4.461
 9593SOL     OW40432   0.608   1.642   4.714
 9593SOL    HW140433   0.575   1.628   4.807
 9593SOL    HW240434   0.695   1.692   4.717
 9594SOL     OW40435   9.609   0.147   3.532
 9594SOL    HW140436   9.620   0.140   3.631
 9594SOL    HW240437   9.595   0.242   3.507
 9595SOL     OW40438   1.208   7.136   5.846
 9595SOL    HW140439   1.199   7.182   5.758
 9595SOL    HW240440   1.293   7.083   5.847
 9596SOL     OW40441   3.071   4.334   2.655
 9596SOL    HW140442   3.154   4.389   2.665
 9596SOL    HW240443   3.067   4.267   2.729
 9597SOL     OW40444   2.954   8.293   6.461
 9597SOL    HW140445   2.981   8.371   6.404
 9597SOL    HW240446   2.861   8.308   6.495
 9598SOL     OW40447   2.143   3.848   6.651
 9598SOL    HW140448   2.230   3.893   6.673
 9598SOL    HW240449   2.160   3.773   6.587
 9599SOL     OW40450   9.335   2.938   1.886
 9599SOL    HW140451   9.280   2.987   1.954
 9599SOL    HW240452   9.431   2.939   1.914
 9600SOL     OW40453   4.065   7.653   1.522
 9600SOL    HW140454   4.046   7.592   1.599
 9600SOL    HW240455   4.123   7.728   1.552
 9601SOL     OW40456   5.702   7.779   4.430
 9601SOL    HW140457   5.614   7.742   4.399
 9601SOL    HW240458   5.776   7.734   4.379
 9602SOL     OW40459   4.096   4.730   6.511
 9602SOL    HW140460   4.074   4.794   6.585
 9602SOL    HW240461   4.095   4.778   6.423
 9603SOL     OW40462   1.028   0.645   3.640
 9603SOL    HW140463   1.017   0.607   3.732
 9603SOL    HW240464   0.943   0.633   3.589
 9604SOL     OW40465   2.828   9.534   3.426
 9604SOL    HW140466   2.777   9.616   3.401
 9604SOL    HW240467   2.766   9.468   3.467
 9605SOL     OW40468   6.949   0.094   6.525
 9605SOL    HW140469   7.042   0.110   6.558
 9605SOL    HW240470   6.921   0.169   6.466
 9606SOL     OW40471   5.910   4.802   0.805
 9606SOL    HW140472   5.930   4.898   0.820
 9606SOL    HW240473   5.981   4.746   0.848
 9607SOL     OW40474   5.143   7.776   5.781
 9607SOL    HW140475   5.227   7.821   5.810
 9607SOL    HW240476   5.100   7.829   5.708
 9608SOL     OW40477   6.974   8.470   3.696
 9608SOL    HW140478   6.893   8.484   3.638
 9608SOL    HW240479   7.033   8.550   3.690
 9609SOL     OW40480   8.190   8.604   7.839
 9609SOL    HW140481   8.171   8.557   7.925
 9609SOL    HW240482   8.196   8.537   7.765
 9610SOL     OW40483   6.799   3.363   2.410
 9610SOL    HW140484   6.790   3.270   2.375
 9610SOL    HW240485   6.709   3.397   2.438
 9611SOL     OW40486   4.057   2.412   0.579
 9611SOL    HW140487   3.985   2.456   0.632
 9611SOL    HW240488   4.073   2.320   0.615
 9612SOL     OW40489   3.143   1.383   7.351
 9612SOL    HW140490   3.060   1.435   7.370
 9612SOL    HW240491   3.123   1.285   7.357
 9613SOL     OW40492   9.393   6.958   3.485
 9613SOL    HW140493   9.324   7.028   3.464
 9613SOL    HW240494   9.480   7.003   3.507
 9614SOL     OW40495   2.429   3.121   1.211
 9614SOL    HW140496   2.516   3.137   1.256
 9614SOL    HW240497   2.444   3.088   1.118
 9615SOL     OW40498   2.611   5.356   0.063
 9615SOL    HW140499   2.687   5.399   0.112
 9615SOL    HW240500   2.648   5.301  10.069
 9616SOL     OW40501   2.281   9.245   6.942
 9616SOL    HW140502   2.306   9.289   6.856
 9616SOL    HW240503   2.212   9.175   6.925
 9617SOL     OW40504   8.633   3.874   4.938
 9617SOL    HW140505   8.677   3.826   5.013
 9617SOL    HW240506   8.623   3.812   4.860
 9618SOL     OW40507   3.075   5.320   1.299
 9618SOL    HW140508   3.125   5.372   1.368
 9618SOL    HW240509   3.123   5.324   1.212
 9619SOL     OW40510   4.834   5.582   3.302
 9619SOL    HW140511   4.833   5.679   3.279
 9619SOL    HW240512   4.803   5.528   3.224
 9620SOL     OW40513   3.573   2.064   1.946
 9620SOL    HW140514   3.490   2.030   1.902
 9620SOL    HW240515   3.592   2.011   2.028
 9621SOL     OW40516   7.631   0.023   6.351
 9621SOL    HW140517   7.673   9.974   6.274
 9621SOL    HW240518   7.695   0.025   6.428
 9622SOL     OW40519   9.461   9.574   6.973
 9622SOL    HW140520   9.427   9.481   6.957
 9622SOL    HW240521   9.422   9.636   6.906
 9623SOL     OW40522   7.962   5.753   3.659
 9623SOL    HW140523   7.924   5.776   3.749
 9623SOL    HW240524   8.005   5.663   3.663
 9624SOL     OW40525   9.180   5.310   6.127
 9624SOL    HW140526   9.128   5.232   6.162
 9624SOL    HW240527   9.150   5.394   6.172
 9625SOL     OW40528   1.407   9.354   0.760
 9625SOL    HW140529   1.490   9.300   0.748
 9625SOL    HW240530   1.402   9.388   0.854
 9626SOL     OW40531   7.875   0.219   0.938
 9626SOL    HW140532   7.923   0.137   0.908
 9626SOL    HW240533   7.926   0.300   0.910
 9627SOL     OW40534   1.032   3.389   0.190
 9627SOL    HW140535   1.028   3.487   0.208
 9627SOL    HW240536   0.946   3.359   0.149
 9628SOL     OW40537   5.478   6.345   0.698
 9628SOL    HW140538   5.505   6.384   0.611
 9628SOL    HW240539   5.556   6.346   0.761
 9629SOL     OW40540   8.063   5.457   4.739
 9629SOL    HW140541   8.120   5.496   4.667
 9629SOL    HW240542   8.099   5.484   4.828
 9630SOL     OW40543   8.381   6.465   6.365
 9630SOL    HW140544   8.446   6.513   6.425
 9630SOL    HW240545   8.367   6.372   6.398
 9631SOL     OW40546   2.468   8.560   5.161
 9631SOL    HW140547   2.515   8.629   5.215
 9631SOL    HW240548   2.470   8.473   5.208
 9632SOL     OW40549   8.054   7.810   6.819
 9632SOL    HW140550   7.973   7.755   6.801
 9632SOL    HW240551   8.126   7.786   6.755
 9633SOL     OW40552   2.159   6.316   4.288
 9633SOL    HW140553   2.236   6.324   4.352
 9633SOL    HW240554   2.082   6.272   4.334
 9634SOL     OW40555   0.218   6.521   1.125
 9634SOL    HW140556   0.229   6.589   1.053
 9634SOL    HW240557   0.191   6.433   1.085
 9635SOL     OW40558   9.917   5.891   2.286
 9635SOL    HW140559   9.925   5.990   2.295
 9635SOL    HW240560   9.847   5.869   2.217
 9636SOL     OW40561   2.105   4.368   7.432
 9636SOL    HW140562   2.078   4.369   7.336
 9636SOL    HW240563   2.035   4.321   7.486
 9637SOL     OW40564   9.061   7.164   4.769
 9637SOL    HW140565   9.006   7.096   4.819
 9637SOL    HW240566   9.001   7.222   4.715
 9638SOL     OW40567   1.792   3.963   6.255
 9638SOL    HW140568   1.883   3.999   6.276
 9638SOL    HW240569   1.739   4.032   6.205
 9639SOL     OW40570   0.681   7.399   4.399
 9639SOL    HW140571   0.619   7.456   4.345
 9639SOL    HW240572   0.718   7.325   4.342
 9640SOL     OW40573   9.215   4.693   5.237
 9640SOL    HW140574   9.285   4.756   5.270
 9640SOL    HW240575   9.168   4.734   5.159
 9641SOL     OW40576   2.828   5.558   2.960
 9641SOL    HW140577   2.873   5.546   2.872
 9641SOL    HW240578   2.876   5.627   3.013
 9642SOL     OW40579   1.362   5.954   0.922
 9642SOL    HW140580   1.333   5.866   0.885
 9642SOL    HW240581   1.415   6.004   0.854
 9643SOL     OW40582   0.545   9.615   1.833
 9643SOL    HW140583   0.474   9.569   1.780
 9643SOL    HW240584   0.552   9.711   1.804
 9644SOL     OW40585   1.711   3.460   0.231
 9644SOL    HW140586   1.689   3.540   0.288
 9644SOL    HW240587   1.715   3.488   0.135
 9645SOL     OW40588   1.659   3.622   4.847
 9645SOL    HW140589   1.692   3.716   4.838
 9645SOL    HW240590   1.736   3.559   4.838
 9646SOL     OW40591   2.135   0.991   6.443
 9646SOL    HW140592   2.090   1.071   6.404
 9646SOL    HW240593   2.097   0.971   6.533
 9647SOL     OW40594   1.190   5.013   0.948
 9647SOL    HW140595   1.173   5.080   0.875
 9647SOL    HW240596   1.204   4.923   0.908
 9648SOL     OW40597   6.235   3.034   0.090
 9648SOL    HW140598   6.202   2.940   0.075
 9648SOL    HW240599   6.221   3.088   0.007
 9649SOL     OW40600   7.716   2.314   4.724
 9649SOL    HW140601   7.740   2.365   4.806
 9649SOL    HW240602   7.616   2.312   4.715
 9650SOL     OW40603   8.651   3.287   2.597
 9650SOL    HW140604   8.618   3.379   2.619
 9650SOL    HW240605   8.574   3.223   2.603
 9651SOL     OW40606   9.975   4.258   2.925
 9651SOL    HW140607   0.056   4.206   2.953
 9651SOL    HW240608   9.898   4.196   2.912
 9652SOL     OW40609   2.713   9.703   1.003
 9652SOL    HW140610   2.690   9.670   1.095
 9652SOL    HW240611   2.669   9.791   0.987
 9653SOL     OW40612   3.791   8.793   5.732
 9653SOL    HW140613   3.788   8.736   5.650
 9653SOL    HW240614   3.837   8.743   5.805
 9654SOL     OW40615   2.017   0.167   7.335
 9654SOL    HW140616   2.086   0.105   7.297
 9654SOL    HW240617   1.935   0.164   7.277
 9655SOL     OW40618   5.269   1.414   4.373
 9655SOL    HW140619   5.328   1.494   4.358
 9655SOL    HW240620   5.282   1.379   4.465
 9656SOL     OW40621   9.932   6.315   4.804
 9656SOL    HW140622   9.834   6.324   4.788
 9656SOL    HW240623   9.950   6.230   4.852
 9657SOL     OW40624   6.462   2.799   2.200
 9657SOL    HW140625   6.504   2.743   2.271
 9657SOL    HW240626   6.465   2.749   2.113
 9658SOL     OW40627   9.740   5.578   1.702
 9658SOL    HW140628   9.769   5.510   1.634
 9658SOL    HW240629   9.642   5.594   1.693
 9659SOL     OW40630   5.969   8.557   4.553
 9659SOL    HW140631   5.966   8.457   4.543
 9659SOL    HW240632   5.918   8.599   4.478
 9660SOL     OW40633   3.382   4.507   1.871
 9660SOL    HW140634   3.369   4.409   1.885
 9660SOL    HW240635   3.410   4.525   1.777
 9661SOL     OW40636   1.246   2.986   3.675
 9661SOL    HW140637   1.191   2.906   3.652
 9661SOL    HW240638   1.187   3.067   3.681
 9662SOL     OW40639   5.697   1.298   6.824
 9662SOL    HW140640   5.767   1.343   6.880
 9662SOL    HW240641   5.665   1.360   6.753
 9663SOL     OW40642   4.758   2.441   4.441
 9663SOL    HW140643   4.736   2.516   4.503
 9663SOL    HW240644   4.823   2.379   4.485
 9664SOL     OW40645   8.650   5.348   6.986
 9664SOL    HW140646   8.730   5.323   6.931
 9664SOL    HW240647   8.576   5.380   6.926
 9665SOL     OW40648   9.766   3.393   0.352
 9665SOL    HW140649   9.843   3.335   0.379
 9665SOL    HW240650   9.796   3.459   0.284
 9666SOL     OW40651   3.608   4.548   3.692
 9666SOL    HW140652   3.636   4.591   3.777
 9666SOL    HW240653   3.687   4.540   3.631
 9667SOL     OW40654   9.273   6.056   4.812
 9667SOL    HW140655   9.357   6.002   4.824
 9667SOL    HW240656   9.202   6.021   4.874
 9668SOL     OW40657   8.647   7.090   0.663
 9668SOL    HW140658   8.664   7.166   0.725
 9668SOL    HW240659   8.618   7.010   0.716
 9669SOL     OW40660   3.544   5.361   5.368
 9669SOL    HW140661   3.444   5.366   5.377
 9669SOL    HW240662   3.585   5.433   5.424
 9670SOL     OW40663   2.604   2.121   6.657
 9670SOL    HW140664   2.551   2.137   6.574
 9670SOL    HW240665   2.688   2.175   6.653
 9671SOL     OW40666   1.687   8.429   2.942
 9671SOL    HW140667   1.744   8.392   2.869
 9671SOL    HW240668   1.628   8.501   2.906
 9672SOL     OW40669   6.966   1.948   0.008
 9672SOL    HW140670   6.947   2.043  10.065
 9672SOL    HW240671   7.040   1.945   0.076
 9673SOL     OW40672   4.655   9.852   6.580
 9673SOL    HW140673   4.709   9.772   6.603
 9673SOL    HW240674   4.565   9.823   6.545
 9674SOL     OW40675   8.492   7.212   5.158
 9674SOL    HW140676   8.496   7.274   5.081
 9674SOL    HW240677   8.398   7.180   5.171
 9675SOL     OW40678   3.637   5.579   5.501
 9675SOL    HW140679   3.736   5.590   5.501
 9675SOL    HW240680   3.595   5.645   5.563
 9676SOL     OW40681   5.140   7.396   3.563
 9676SOL    HW140682   5.083   7.403   3.480
 9676SOL    HW240683   5.235   7.412   3.539
 9677SOL     OW40684   6.624   0.350   7.353
 9677SOL    HW140685   6.630   0.450   7.361
 9677SOL    HW240686   6.655   0.322   7.262
 9678SOL     OW40687   9.923   4.018   1.820
 9678SOL    HW140688   9.936   3.919   1.811
 9678SOL    HW240689   9.983   4.066   1.757
 9679SOL     OW40690   0.145   3.486   2.435
 9679SOL    HW140691   0.238   3.471   2.468
 9679SOL    HW240692   0.148   3.541   2.351
 9680SOL     OW40693   9.872   8.238   4.078
 9680SOL    HW140694   9.912   8.328   4.057
 9680SOL    HW240695   9.881   8.220   4.176
 9681SOL     OW40696   7.927   0.784   7.732
 9681SOL    HW140697   7.907   0.730   7.650
 9681SOL    HW240698   7.922   0.725   7.813
 9682SOL     OW40699   0.008   7.164   2.523
 9682SOL    HW140700   9.929   7.126   2.571
 9682SOL    HW240701   0.083   7.099   2.526
 9683SOL     OW40702   1.749   7.578   3.455
 9683SOL    HW140703   1.795   7.613   3.373
 9683SOL    HW240704   1.738   7.478   3.447
 9684SOL     OW40705   1.918   6.517   7.790
 9684SOL    HW140706   1.920   6.418   7.805
 9684SOL    HW240707   2.011   6.550   7.772
 9685SOL     OW40708   7.293   8.939   4.404
 9685SOL    HW140709   7.315   8.977   4.314
 9685SOL    HW240710   7.233   9.002   4.453
 9686SOL     OW40711   3.801   0.835   6.462
 9686SOL    HW140712   3.822   0.745   6.500
 9686SOL    HW240713   3.743   0.825   6.382
 9687SOL     OW40714   1.808   4.174   6.804
 9687SOL    HW140715   1.737   4.112   6.770
 9687SOL    HW240716   1.767   4.237   6.870
 9688SOL     OW40717   0.661   8.786   7.126
 9688SOL    HW140718   0.755   8.813   7.109
 9688SOL    HW240719   0.603   8.868   7.129
 9689SOL     OW40720   2.438   4.253   7.281
 9689SOL    HW140721   2.405   4.343   7.250
 9689SOL    HW240722   2.481   4.262   7.371
 9690SOL     OW40723   2.460   1.130   6.077
 9690SOL    HW140724   2.423   1.092   6.162
 9690SOL    HW240725   2.559   1.119   6.076
 9691SOL     OW40726   2.781   2.435   5.761
 9691SOL    HW140727   2.769   2.352   5.707
 9691SOL    HW240728   2.831   2.413   5.845
 9692SOL     OW40729   7.939   0.212   3.901
 9692SOL    HW140730   7.880   0.229   3.822
 9692SOL    HW240731   7.966   0.300   3.942
 9693SOL     OW40732   7.606   1.412   4.037
 9693SOL    HW140733   7.681   1.375   3.984
 9693SOL    HW240734   7.638   1.437   4.128
 9694SOL     OW40735   4.117   1.068   4.374
 9694SOL    HW140736   4.069   1.151   4.401
 9694SOL    HW240737   4.050   0.993   4.365
 9695SOL     OW40738   8.400   9.639   0.277
 9695SOL    HW140739   8.455   9.557   0.265
 9695SOL    HW240740   8.426   9.708   0.209
 9696SOL     OW40741   8.800   9.406   0.137
 9696SOL    HW140742   8.827   9.338   0.206
 9696SOL    HW240743   8.875   9.470   0.123
 9697SOL     OW40744   2.907   2.073   7.641
 9697SOL    HW140745   2.927   2.113   7.731
 9697SOL    HW240746   2.808   2.074   7.626
 9698SOL     OW40747   9.034   7.933   1.104
 9698SOL    HW140748   9.096   7.855   1.117
 9698SOL    HW240749   8.992   7.927   1.014
 9699SOL     OW40750   7.941   3.253   3.659
 9699SOL    HW140751   7.936   3.191   3.738
 9699SOL    HW240752   8.036   3.275   3.640
 9700SOL     OW40753   8.891   6.355   1.549
 9700SOL    HW140754   8.865   6.259   1.535
 9700SOL    HW240755   8.907   6.371   1.647
 9701SOL     OW40756   4.312   9.424   3.060
 9701SOL    HW140757   4.340   9.513   3.096
 9701SOL    HW240758   4.234   9.391   3.113
 9702SOL     OW40759   0.630   1.946   7.301
 9702SOL    HW140760   0.609   1.893   7.383
 9702SOL    HW240761   0.650   2.041   7.327
 9703SOL     OW40762   2.708   4.742   4.066
 9703SOL    HW140763   2.771   4.813   4.098
 9703SOL    HW240764   2.616   4.760   4.101
 9704SOL     OW40765   9.567   9.456   0.623
 9704SOL    HW140766   9.614   9.455   0.535
 9704SOL    HW240767   9.634   9.460   0.697
 9705SOL     OW40768   6.663   1.248   1.395
 9705SOL    HW140769   6.763   1.242   1.405
 9705SOL    HW240770   6.635   1.205   1.309
 9706SOL     OW40771   1.110   2.767   1.315
 9706SOL    HW140772   1.136   2.863   1.327
 9706SOL    HW240773   1.055   2.757   1.232
 9707SOL     OW40774   9.218   3.161   5.683
 9707SOL    HW140775   9.141   3.105   5.652
 9707SOL    HW240776   9.235   3.143   5.780
 9708SOL     OW40777   9.488   7.934   5.692
 9708SOL    HW140778   9.520   7.867   5.759
 9708SOL    HW240779   9.565   7.990   5.661
 9709SOL     OW40780   2.144   7.357   7.672
 9709SOL    HW140781   2.145   7.444   7.720
 9709SOL    HW240782   2.092   7.366   7.587
 9710SOL     OW40783   1.966   2.604   7.270
 9710SOL    HW140784   2.005   2.596   7.179
 9710SOL    HW240785   1.904   2.683   7.272
 9711SOL     OW40786   4.910   0.921   5.988
 9711SOL    HW140787   4.977   0.848   5.982
 9711SOL    HW240788   4.910   0.973   5.902
 9712SOL     OW40789   4.201   6.604   7.842
 9712SOL    HW140790   4.171   6.601   7.747
 9712SOL    HW240791   4.129   6.646   7.898
 9713SOL     OW40792   1.589   3.253   2.831
 9713SOL    HW140793   1.559   3.309   2.754
 9713SOL    HW240794   1.624   3.165   2.797
 9714SOL     OW40795   5.412   1.406   5.709
 9714SOL    HW140796   5.368   1.381   5.796
 9714SOL    HW240797   5.368   1.488   5.673
 9715SOL     OW40798   4.185   2.402   1.553
 9715SOL    HW140799   4.244   2.368   1.626
 9715SOL    HW240800   4.207   2.498   1.534
 9716SOL     OW40801   3.416   8.713   5.348
 9716SOL    HW140802   3.477   8.738   5.273
 9716SOL    HW240803   3.389   8.796   5.398
 9717SOL     OW40804   5.063   7.260   4.023
 9717SOL    HW140805   5.097   7.246   3.929
 9717SOL    HW240806   5.141   7.281   4.083
 9718SOL     OW40807   1.305   7.568   4.732
 9718SOL    HW140808   1.300   7.655   4.684
 9718SOL    HW240809   1.335   7.497   4.669
 9719SOL     OW40810   2.759   4.247   2.229
 9719SOL    HW140811   2.735   4.272   2.135
 9719SOL    HW240812   2.744   4.326   2.289
 9720SOL     OW40813   5.455   3.099   2.022
 9720SOL    HW140814   5.444   3.085   2.120
 9720SOL    HW240815   5.384   3.161   1.989
 9721SOL     OW40816   7.190   9.262   3.153
 9721SOL    HW140817   7.210   9.356   3.182
 9721SOL    HW240818   7.274   9.208   3.156
 9722SOL     OW40819   2.551   8.942   2.011
 9722SOL    HW140820   2.470   8.970   1.959
 9722SOL    HW240821   2.631   8.944   1.951
 9723SOL     OW40822   1.199   0.221   5.601
 9723SOL    HW140823   1.164   0.314   5.607
 9723SOL    HW240824   1.141   0.167   5.540
 9724SOL     OW40825   0.472   0.795   2.527
 9724SOL    HW140826   0.469   0.880   2.580
 9724SOL    HW240827   0.550   0.797   2.465
 9725SOL     OW40828   0.577   9.292   3.088
 9725SOL    HW140829   0.654   9.230   3.073
 9725SOL    HW240830   0.599   9.356   3.162
 9726SOL     OW40831   4.143   4.277   3.402
 9726SOL    HW140832   4.196   4.231   3.330
 9726SOL    HW240833   4.145   4.376   3.387
 9727SOL     OW40834   4.358   6.416   2.012
 9727SOL    HW140835   4.409   6.433   1.928
 9727SOL    HW240836   4.404   6.345   2.066
 9728SOL     OW40837   3.016   4.496   4.941
 9728SOL    HW140838   3.029   4.573   4.879
 9728SOL    HW240839   3.106   4.461   4.969
 9729SOL     OW40840   7.718   9.418   5.736
 9729SOL    HW140841   7.817   9.409   5.743
 9729SOL    HW240842   7.691   9.424   5.640
 9730SOL     OW40843   5.927   9.666   3.071
 9730SOL    HW140844   5.859   9.612   3.021
 9730SOL    HW240845   5.892   9.759   3.085
 9731SOL     OW40846   8.705   3.287   0.656
 9731SOL    HW140847   8.728   3.293   0.559
 9731SOL    HW240848   8.778   3.238   0.704
 9732SOL     OW40849   2.062   8.155   5.276
 9732SOL    HW140850   2.115   8.136   5.194
 9732SOL    HW240851   2.070   8.078   5.340
 9733SOL     OW40852   8.381   8.487   3.042
 9733SOL    HW140853   8.389   8.423   3.119
 9733SOL    HW240854   8.290   8.477   3.000
 9734SOL     OW40855   8.404   7.423   4.265
 9734SOL    HW140856   8.469   7.422   4.189
 9734SOL    HW240857   8.426   7.499   4.326
 9735SOL     OW40858   1.496   4.347   4.344
 9735SOL    HW140859   1.593   4.326   4.353
 9735SOL    HW240860   1.447   4.317   4.426
 9736SOL     OW40861   7.204   9.528   7.644
 9736SOL    HW140862   7.155   9.463   7.702
 9736SOL    HW240863   7.177   9.514   7.549
 9737SOL     OW40864   4.042   4.579   0.668
 9737SOL    HW140865   4.080   4.665   0.634
 9737SOL    HW240866   4.116   4.512   0.679
 9738SOL     OW40867   2.658   5.462   1.588
 9738SOL    HW140868   2.706   5.411   1.516
 9738SOL    HW240869   2.715   5.537   1.619
 9739SOL     OW40870   6.899   9.738   3.043
 9739SOL    HW140871   6.845   9.654   3.049
 9739SOL    HW240872   6.907   9.765   2.947
 9740SOL     OW40873   9.096   8.197   3.270
 9740SOL    HW140874   9.111   8.108   3.227
 9740SOL    HW240875   9.000   8.222   3.261
 9741SOL     OW40876   3.019   5.147   0.716
 9741SOL    HW140877   2.921   5.133   0.727
 9741SOL    HW240878   3.067   5.120   0.799
 9742SOL     OW40879   7.320   7.940   3.011
 9742SOL    HW140880   7.274   7.993   2.940
 9742SOL    HW240881   7.399   7.990   3.045
 9743SOL     OW40882   4.194   1.966   1.550
 9743SOL    HW140883   4.197   1.898   1.477
 9743SOL    HW240884   4.113   1.951   1.606
 9744SOL     OW40885   3.336   3.495   3.997
 9744SOL    HW140886   3.312   3.411   3.949
 9744SOL    HW240887   3.406   3.476   4.066
 9745SOL     OW40888   8.897   1.944   5.517
 9745SOL    HW140889   8.978   1.991   5.481
 9745SOL    HW240890   8.872   1.983   5.605
 9746SOL     OW40891   5.987   8.695   7.404
 9746SOL    HW140892   5.971   8.602   7.372
 9746SOL    HW240893   5.904   8.731   7.446
 9747SOL     OW40894   3.947   7.188   1.454
 9747SOL    HW140895   3.944   7.237   1.367
 9747SOL    HW240896   4.037   7.200   1.496
 9748SOL     OW40897   0.180   8.449   1.495
 9748SOL    HW140898   0.158   8.481   1.403
 9748SOL    HW240899   0.096   8.441   1.549
 9749SOL     OW40900   7.088   0.768   3.236
 9749SOL    HW140901   7.040   0.684   3.212
 9749SOL    HW240902   7.181   0.745   3.266
 9750SOL     OW40903   3.866   1.971   4.491
 9750SOL    HW140904   3.897   1.973   4.586
 9750SOL    HW240905   3.768   1.990   4.487
 9751SOL     OW40906   5.121   8.197   6.150
 9751SOL    HW140907   5.096   8.177   6.245
 9751SOL    HW240908   5.181   8.277   6.148
 9752SOL     OW40909   1.888   5.182   4.828
 9752SOL    HW140910   1.795   5.214   4.810
 9752SOL    HW240911   1.912   5.110   4.764
 9753SOL     OW40912   2.795   3.109   1.045
 9753SOL    HW140913   2.865   3.179   1.031
 9753SOL    HW240914   2.830   3.020   1.017
 9754SOL     OW40915   3.486   6.707   3.384
 9754SOL    HW140916   3.450   6.636   3.445
 9754SOL    HW240917   3.449   6.694   3.292
 9755SOL     OW40918   3.291   2.332   6.562
 9755SOL    HW140919   3.226   2.394   6.607
 9755SOL    HW240920   3.359   2.301   6.629
 9756SOL     OW40921   4.994   8.247   5.909
 9756SOL    HW140922   5.043   8.221   5.992
 9756SOL    HW240923   5.059   8.270   5.837
 9757SOL     OW40924   1.401   6.476   1.086
 9757SOL    HW140925   1.375   6.380   1.073
 9757SOL    HW240926   1.436   6.513   1.001
 9758SOL     OW40927   3.092   4.400   6.637
 9758SOL    HW140928   3.001   4.401   6.678
 9758SOL    HW240929   3.113   4.307   6.607
 9759SOL     OW40930   0.766   2.375   1.695
 9759SOL    HW140931   0.691   2.317   1.663
 9759SOL    HW240932   0.849   2.319   1.706
 9760SOL     OW40933   1.444   3.627   7.477
 9760SOL    HW140934   1.426   3.580   7.391
 9760SOL    HW240935   1.538   3.607   7.507
 9761SOL     OW40936   1.869   4.235   3.775
 9761SOL    HW140937   1.878   4.286   3.689
 9761SOL    HW240938   1.841   4.141   3.756
 9762SOL     OW40939   8.683   9.782   5.990
 9762SOL    HW140940   8.687   9.861   6.052
 9762SOL    HW240941   8.649   9.702   6.040
 9763SOL     OW40942   9.212   6.697   7.578
 9763SOL    HW140943   9.249   6.642   7.653
 9763SOL    HW240944   9.218   6.794   7.603
 9764SOL     OW40945   4.170   3.670   4.217
 9764SOL    HW140946   4.143   3.590   4.165
 9764SOL    HW240947   4.161   3.752   4.160
 9765SOL     OW40948   7.220   5.632   0.286
 9765SOL    HW140949   7.133   5.604   0.245
 9765SOL    HW240950   7.235   5.583   0.371
 9766SOL     OW40951   0.768   6.656   3.197
 9766SOL    HW140952   0.801   6.740   3.154
 9766SOL    HW240953   0.827   6.580   3.171
 9767SOL     OW40954   0.298   2.596   3.320
 9767SOL    HW140955   0.307   2.531   3.246
 9767SOL    HW240956   0.362   2.672   3.307
 9768SOL     OW40957   1.758   4.374   6.995
 9768SOL    HW140958   1.771   4.465   6.955
 9768SOL    HW240959   1.828   4.358   7.065
 9769SOL     OW40960   6.826   1.719   0.054
 9769SOL    HW140961   6.856   1.648  10.071
 9769SOL    HW240962   6.873   1.804   0.034
 9770SOL     OW40963   3.278   3.898   7.109
 9770SOL    HW140964   3.191   3.848   7.113
 9770SOL    HW240965   3.319   3.901   7.200
 9771SOL     OW40966   7.786   8.388   7.228
 9771SOL    HW140967   7.734   8.464   7.189
 9771SOL    HW240968   7.876   8.383   7.185
 9772SOL     OW40969   7.337   6.485   6.066
 9772SOL    HW140970   7.376   6.519   5.981
 9772SOL    HW240971   7.256   6.538   6.089
 9773SOL     OW40972   0.053   3.795   0.337
 9773SOL    HW140973   0.132   3.845   0.374
 9773SOL    HW240974   9.969   3.840   0.366
 9774SOL     OW40975   1.309   0.914   3.040
 9774SOL    HW140976   1.224   0.932   3.090
 9774SOL    HW240977   1.380   0.885   3.105
 9775SOL     OW40978   1.389   2.894   6.675
 9775SOL    HW140979   1.453   2.920   6.747
 9775SOL    HW240980   1.343   2.808   6.701
 9776SOL     OW40981   8.620   0.004   5.177
 9776SOL    HW140982   8.604   0.032   5.083
 9776SOL    HW240983   8.660   9.913   5.179
 9777SOL     OW40984   3.353   2.281   7.759
 9777SOL    HW140985   3.373   2.207   7.824
 9777SOL    HW240986   3.281   2.252   7.697
 9778SOL     OW40987   0.009   4.943   0.688
 9778SOL    HW140988   0.045   4.946   0.595
 9778SOL    HW240989   0.079   4.975   0.752
 9779SOL     OW40990   8.286   3.649   5.784
 9779SOL    HW140991   8.365   3.593   5.757
 9779SOL    HW240992   8.282   3.656   5.883
 9780SOL     OW40993   9.618   8.870   6.249
 9780SOL    HW140994   9.583   8.779   6.272
 9780SOL    HW240995   9.554   8.917   6.189
 9781SOL     OW40996   7.736   7.351   6.317
 9781SOL    HW140997   7.748   7.252   6.317
 9781SOL    HW240998   7.784   7.391   6.239
 9782SOL     OW40999   7.952   6.069   2.887
 9782SOL    HW141000   7.898   6.112   2.815
 9782SOL    HW241001   8.043   6.048   2.853
 9783SOL     OW41002   8.690   2.877   1.042
 9783SOL    HW141003   8.759   2.837   1.101
 9783SOL    HW241004   8.734   2.931   0.970
 9784SOL     OW41005   4.801   4.129   2.397
 9784SOL    HW141006   4.842   4.150   2.486
 9784SOL    HW241007   4.761   4.038   2.399
 9785SOL     OW41008   7.214   9.731   6.767
 9785SOL    HW141009   7.247   9.815   6.724
 9785SOL    HW241010   7.189   9.751   6.862
 9786SOL     OW41011   3.423   6.493   3.545
 9786SOL    HW141012   3.347   6.438   3.510
 9786SOL    HW241013   3.410   6.510   3.642
 9787SOL     OW41014   5.654   4.844   2.051
 9787SOL    HW141015   5.655   4.913   2.123
 9787SOL    HW241016   5.656   4.753   2.091
 9788SOL     OW41017   6.280   1.211   2.529
 9788SOL    HW141018   6.268   1.288   2.467
 9788SOL    HW241019   6.341   1.144   2.488
 9789SOL     OW41020   7.833   8.161   1.974
 9789SOL    HW141021   7.845   8.111   1.889
 9789SOL    HW241022   7.890   8.121   2.045
 9790SOL     OW41023   0.360   1.526   4.886
 9790SOL    HW141024   0.280   1.526   4.826
 9790SOL    HW241025   0.341   1.585   4.965
 9791SOL     OW41026   3.807   3.137   3.851
 9791SOL    HW141027   3.736   3.119   3.783
 9791SOL    HW241028   3.780   3.100   3.939
 9792SOL     OW41029   9.727   6.668   5.962
 9792SOL    HW141030   9.820   6.631   5.968
 9792SOL    HW241031   9.684   6.636   5.878
 9793SOL     OW41032   1.101   9.536   7.685
 9793SOL    HW141033   1.149   9.546   7.773
 9793SOL    HW241034   1.158   9.483   7.623
 9794SOL     OW41035   3.357   8.132   7.771
 9794SOL    HW141036   3.425   8.206   7.776
 9794SOL    HW241037   3.404   8.044   7.763
 9795SOL     OW41038   5.822   2.774   0.226
 9795SOL    HW141039   5.907   2.790   0.277
 9795SOL    HW241040   5.793   2.859   0.183
 9796SOL     OW41041   8.120   1.978   7.562
 9796SOL    HW141042   8.075   2.047   7.505
 9796SOL    HW241043   8.122   2.009   7.657
 9797SOL     OW41044   5.174   9.640   7.755
 9797SOL    HW141045   5.193   9.624   7.658
 9797SOL    HW241046   5.226   9.719   7.786
 9798SOL     OW41047   8.124   6.493   5.746
 9798SOL    HW141048   8.204   6.435   5.727
 9798SOL    HW241049   8.105   6.492   5.844
 9799SOL     OW41050   8.535   6.441   1.290
 9799SOL    HW141051   8.574   6.350   1.305
 9799SOL    HW241052   8.599   6.497   1.237
 9800SOL     OW41053   4.967   1.368   6.353
 9800SOL    HW141054   4.965   1.433   6.429
 9800SOL    HW241055   4.874   1.343   6.327
 9801SOL     OW41056   6.919   1.031   0.688
 9801SOL    HW141057   6.982   0.954   0.702
 9801SOL    HW241058   6.970   1.117   0.696
 9802SOL     OW41059   3.489   5.057   0.742
 9802SOL    HW141060   3.545   5.122   0.794
 9802SOL    HW241061   3.495   4.967   0.784
 9803SOL     OW41062   5.492   9.203   4.229
 9803SOL    HW141063   5.565   9.137   4.250
 9803SOL    HW241064   5.407   9.173   4.272
 9804SOL     OW41065   2.917   2.861   0.992
 9804SOL    HW141066   2.875   2.771   0.977
 9804SOL    HW241067   2.973   2.858   1.074
 9805SOL     OW41068   6.192   7.498   2.828
 9805SOL    HW141069   6.172   7.501   2.730
 9805SOL    HW241070   6.273   7.554   2.847
 9806SOL     OW41071   9.240   2.181   2.323
 9806SOL    HW141072   9.230   2.097   2.270
 9806SOL    HW241073   9.209   2.259   2.268
 9807SOL     OW41074   1.482   4.799   2.076
 9807SOL    HW141075   1.520   4.788   2.168
 9807SOL    HW241076   1.390   4.759   2.073
 9808SOL     OW41077   7.390   3.163   4.472
 9808SOL    HW141078   7.421   3.230   4.404
 9808SOL    HW241079   7.305   3.122   4.441
 9809SOL     OW41080   5.098   8.738   2.279
 9809SOL    HW141081   5.087   8.805   2.206
 9809SOL    HW241082   5.062   8.650   2.248
 9810SOL     OW41083   3.707   5.160   0.930
 9810SOL    HW141084   3.741   5.083   0.877
 9810SOL    HW241085   3.663   5.127   1.014
 9811SOL     OW41086   2.603   4.777   0.463
 9811SOL    HW141087   2.643   4.867   0.443
 9811SOL    HW241088   2.525   4.761   0.403
 9812SOL     OW41089   2.091   0.089   3.613
 9812SOL    HW141090   2.041   0.099   3.700
 9812SOL    HW241091   2.186   0.067   3.633
 9813SOL     OW41092   0.117   2.771   2.874
 9813SOL    HW141093   0.095   2.772   2.776
 9813SOL    HW241094   0.190   2.704   2.891
 9814SOL     OW41095   4.026   6.023   4.661
 9814SOL    HW141096   4.091   5.954   4.631
 9814SOL    HW241097   4.067   6.114   4.654
 9815SOL     OW41098   3.722   8.210   3.849
 9815SOL    HW141099   3.674   8.155   3.918
 9815SOL    HW241100   3.795   8.156   3.808
 9816SOL     OW41101   4.929   2.053   6.098
 9816SOL    HW141102   5.026   2.032   6.109
 9816SOL    HW241103   4.874   1.975   6.127
 9817SOL     OW41104   7.699   6.035   6.258
 9817SOL    HW141105   7.771   5.979   6.217
 9817SOL    HW241106   7.611   5.988   6.249
 9818SOL     OW41107   2.249   6.808   3.123
 9818SOL    HW141108   2.196   6.732   3.162
 9818SOL    HW241109   2.205   6.838   3.038
 9819SOL     OW41110   7.575   6.764   4.904
 9819SOL    HW141111   7.509   6.837   4.886
 9819SOL    HW241112   7.538   6.677   4.872
 9820SOL     OW41113   5.886   1.185   4.812
 9820SOL    HW141114   5.867   1.131   4.730
 9820SOL    HW241115   5.935   1.269   4.786
 9821SOL     OW41116   9.206   9.475   1.395
 9821SOL    HW141117   9.259   9.512   1.319
 9821SOL    HW241118   9.253   9.395   1.432
 9822SOL     OW41119   0.580   2.183   1.607
 9822SOL    HW141120   0.535   2.105   1.564
 9822SOL    HW241121   0.510   2.246   1.643
 9823SOL     OW41122   3.203   1.510   5.069
 9823SOL    HW141123   3.119   1.564   5.067
 9823SOL    HW241124   3.185   1.418   5.033
 9824SOL     OW41125   5.929   2.606   2.497
 9824SOL    HW141126   5.875   2.686   2.473
 9824SOL    HW241127   5.871   2.539   2.543
 9825SOL     OW41128   9.560   1.287   4.842
 9825SOL    HW141129   9.621   1.283   4.763
 9825SOL    HW241130   9.468   1.259   4.814
 9826SOL     OW41131   5.263   6.609   2.029
 9826SOL    HW141132   5.223   6.645   1.944
 9826SOL    HW241133   5.282   6.512   2.019
 9827SOL     OW41134   9.013   9.832   2.041
 9827SOL    HW141135   8.959   9.858   1.961
 9827SOL    HW241136   9.014   9.732   2.050
 9828SOL     OW41137   6.259   0.490   6.741
 9828SOL    HW141138   6.340   0.545   6.760
 9828SOL    HW241139   6.280   0.424   6.670
 9829SOL     OW41140   9.421   8.764   7.173
 9829SOL    HW141141   9.376   8.853   7.185
 9829SOL    HW241142   9.456   8.757   7.080
 9830SOL     OW41143   1.504   2.654   1.864
 9830SOL    HW141144   1.480   2.751   1.864
 9830SOL    HW241145   1.496   2.618   1.772
 9831SOL     OW41146   0.227   7.105   1.306
 9831SOL    HW141147   0.234   7.038   1.231
 9831SOL    HW241148   0.152   7.169   1.286
 9832SOL     OW41149   0.084   9.127   4.253
 9832SOL    HW141150   9.990   9.161   4.244
 9832SOL    HW241151   0.148   9.204   4.253
 9833SOL     OW41152   0.391   4.330   3.589
 9833SOL    HW141153   0.332   4.267   3.538
 9833SOL    HW241154   0.358   4.337   3.683
 9834SOL     OW41155   9.196   0.145   6.040
 9834SOL    HW141156   9.108   0.164   6.083
 9834SOL    HW241157   9.250   0.084   6.100
 9835SOL     OW41158   7.109   3.632   0.120
 9835SOL    HW141159   7.102   3.538   0.153
 9835SOL    HW241160   7.019   3.676   0.124
 9836SOL     OW41161   9.707   1.089   0.086
 9836SOL    HW141162   9.680   1.124   0.175
 9836SOL    HW241163   9.647   1.126   0.015
 9837SOL     OW41164   2.465   3.247   4.762
 9837SOL    HW141165   2.559   3.214   4.770
 9837SOL    HW241166   2.407   3.175   4.725
 9838SOL     OW41167   7.965   9.720   2.777
 9838SOL    HW141168   8.005   9.808   2.802
 9838SOL    HW241169   8.016   9.646   2.822
 9839SOL     OW41170   0.426   3.420   6.509
 9839SOL    HW141171   0.355   3.440   6.441
 9839SOL    HW241172   0.399   3.341   6.563
 9840SOL     OW41173   9.050   4.271   0.210
 9840SOL    HW141174   9.047   4.366   0.241
 9840SOL    HW241175   9.063   4.269   0.111
 9841SOL     OW41176   7.883   4.700   2.781
 9841SOL    HW141177   7.849   4.760   2.853
 9841SOL    HW241178   7.931   4.622   2.822
 9842SOL     OW41179   4.653   2.782   1.598
 9842SOL    HW141180   4.584   2.797   1.527
 9842SOL    HW241181   4.712   2.706   1.571
 9843SOL     OW41182   2.161   3.922   5.029
 9843SOL    HW141183   2.085   3.986   5.038
 9843SOL    HW241184   2.159   3.856   5.104
 9844SOL     OW41185   6.145   1.945   4.770
 9844SOL    HW141186   6.177   1.893   4.849
 9844SOL    HW241187   6.156   2.043   4.788
 9845SOL     OW41188   1.320   1.343   2.837
 9845SOL    HW141189   1.367   1.254   2.838
 9845SOL    HW241190   1.238   1.337   2.781
 9846SOL     OW41191   4.942   0.926   3.762
 9846SOL    HW141192   4.874   0.989   3.799
 9846SOL    HW241193   5.034   0.960   3.783
 9847SOL     OW41194   0.445   6.490   3.013
 9847SOL    HW141195   0.414   6.481   3.107
 9847SOL    HW241196   0.510   6.416   2.991
 9848SOL     OW41197   4.149   3.689   2.220
 9848SOL    HW141198   4.116   3.732   2.305
 9848SOL    HW241199   4.242   3.721   2.202
 9849SOL     OW41200   0.834   4.751   4.506
 9849SOL    HW141201   0.839   4.688   4.428
 9849SOL    HW241202   0.863   4.842   4.477
 9850SOL     OW41203   9.987   7.191   5.766
 9850SOL    HW141204   0.034   7.258   5.708
 9850SOL    HW241205   9.983   7.103   5.719
 9851SOL     OW41206   2.717   1.360   1.812
 9851SOL    HW141207   2.813   1.335   1.821
 9851SOL    HW241208   2.664   1.313   1.884
 9852SOL     OW41209   3.558   5.625   2.229
 9852SOL    HW141210   3.570   5.526   2.236
 9852SOL    HW241211   3.577   5.655   2.136
 9853SOL     OW41212   0.600   3.457   5.380
 9853SOL    HW141213   0.674   3.433   5.317
 9853SOL    HW241214   0.588   3.556   5.382
 9854SOL     OW41215   0.636   3.188   6.650
 9854SOL    HW141216   0.699   3.228   6.584
 9854SOL    HW241217   0.621   3.252   6.725
 9855SOL     OW41218   3.611   5.984   6.856
 9855SOL    HW141219   3.591   5.940   6.944
 9855SOL    HW241220   3.669   5.925   6.801
 9856SOL     OW41221   7.379   7.017   2.000
 9856SOL    HW141222   7.478   7.028   1.993
 9856SOL    HW241223   7.357   6.966   2.083
 9857SOL     OW41224   1.788   1.709   1.800
 9857SOL    HW141225   1.805   1.650   1.880
 9857SOL    HW241226   1.860   1.694   1.732
 9858SOL     OW41227   9.188   4.003   6.627
 9858SOL    HW141228   9.288   3.996   6.634
 9858SOL    HW241229   9.153   4.059   6.701
 9859SOL     OW41230   9.197   9.623   1.017
 9859SOL    HW141231   9.159   9.713   0.995
 9859SOL    HW241232   9.196   9.566   0.935
 9860SOL     OW41233   5.194   0.686   5.012
 9860SOL    HW141234   5.274   0.642   5.052
 9860SOL    HW241235   5.181   0.653   4.919
 9861SOL     OW41236   4.113   1.707   0.520
 9861SOL    HW141237   4.016   1.695   0.544
 9861SOL    HW241238   4.164   1.624   0.546
 9862SOL     OW41239   5.263   6.635   1.414
 9862SOL    HW141240   5.362   6.622   1.404
 9862SOL    HW241241   5.245   6.718   1.466
 9863SOL     OW41242   9.198   2.130   3.329
 9863SOL    HW141243   9.253   2.075   3.393
 9863SOL    HW241244   9.169   2.214   3.374
 9864SOL     OW41245   4.773   7.755   1.907
 9864SOL    HW141246   4.827   7.800   1.836
 9864SOL    HW241247   4.713   7.822   1.951
 9865SOL     OW41248   6.872   3.726   1.818
 9865SOL    HW141249   6.804   3.800   1.816
 9865SOL    HW241250   6.951   3.752   1.763
 9866SOL     OW41251   8.475   7.362   4.932
 9866SOL    HW141252   8.450   7.452   4.967
 9866SOL    HW241253   8.398   7.322   4.883
 9867SOL     OW41254   3.591   9.285   5.607
 9867SOL    HW141255   3.598   9.197   5.653
 9867SOL    HW241256   3.668   9.297   5.545
 9868SOL     OW41257   8.446   4.944   7.642
 9868SOL    HW141258   8.481   5.037   7.634
 9868SOL    HW241259   8.520   4.879   7.622
 9869SOL     OW41260   3.870   8.793   3.946
 9869SOL    HW141261   3.771   8.800   3.939
 9869SOL    HW241262   3.912   8.820   3.859
 9870SOL     OW41263   1.216   3.745   4.567
 9870SOL    HW141264   1.156   3.777   4.641
 9870SOL    HW241265   1.289   3.689   4.606
 9871SOL     OW41266   3.521   1.497   0.575
 9871SOL    HW141267   3.538   1.414   0.522
 9871SOL    HW241268   3.558   1.576   0.527
 9872SOL     OW41269   9.641   1.038   2.457
 9872SOL    HW141270   9.646   1.053   2.359
 9872SOL    HW241271   9.599   1.117   2.502
 9873SOL     OW41272   2.716   9.139   1.374
 9873SOL    HW141273   2.690   9.052   1.332
 9873SOL    HW241274   2.765   9.121   1.459
 9874SOL     OW41275   7.022   2.745   0.820
 9874SOL    HW141276   7.073   2.702   0.746
 9874SOL    HW241277   6.986   2.833   0.790
 9875SOL     OW41278   8.528   6.117   3.807
 9875SOL    HW141279   8.607   6.057   3.814
 9875SOL    HW241280   8.514   6.164   3.894
 9876SOL     OW41281   3.060   3.658   7.415
 9876SOL    HW141282   3.064   3.758   7.409
 9876SOL    HW241283   2.970   3.630   7.447
 9877SOL     OW41284   0.119   4.487   0.232
 9877SOL    HW141285   0.122   4.446   0.323
 9877SOL    HW241286   0.097   4.417   0.164
 9878SOL     OW41287   1.257   9.707   1.676
 9878SOL    HW141288   1.263   9.632   1.742
 9878SOL    HW241289   1.277   9.793   1.721
 9879SOL     OW41290   8.732   7.344   4.276
 9879SOL    HW141291   8.686   7.379   4.194
 9879SOL    HW241292   8.749   7.420   4.339
 9880SOL     OW41293   4.884   4.043   1.038
 9880SOL    HW141294   4.936   4.054   0.954
 9880SOL    HW241295   4.907   4.117   1.101
 9881SOL     OW41296   7.009   2.222   5.775
 9881SOL    HW141297   7.109   2.217   5.773
 9881SOL    HW241298   6.980   2.311   5.810
 9882SOL     OW41299   0.827   9.757   0.647
 9882SOL    HW141300   0.819   9.678   0.586
 9882SOL    HW241301   0.913   9.751   0.698
 9883SOL     OW41302   6.857   4.535   7.419
 9883SOL    HW141303   6.868   4.488   7.332
 9883SOL    HW241304   6.875   4.470   7.494
 9884SOL     OW41305   0.685   9.391   4.133
 9884SOL    HW141306   0.683   9.301   4.176
 9884SOL    HW241307   0.595   9.434   4.142
 9885SOL     OW41308   8.350   9.138   2.943
 9885SOL    HW141309   8.273   9.171   2.888
 9885SOL    HW241310   8.435   9.151   2.892
 9886SOL     OW41311   7.623   5.836   2.404
 9886SOL    HW141312   7.645   5.850   2.501
 9886SOL    HW241313   7.564   5.756   2.394
 9887SOL     OW41314   4.466   0.230   2.530
 9887SOL    HW141315   4.504   0.186   2.448
 9887SOL    HW241316   4.385   0.281   2.505
 9888SOL     OW41317   9.883   8.716   5.944
 9888SOL    HW141318   9.970   8.669   5.930
 9888SOL    HW241319   9.882   8.759   6.034
 9889SOL     OW41320   9.291   1.571   5.133
 9889SOL    HW141321   9.367   1.589   5.070
 9889SOL    HW241322   9.323   1.513   5.208
 9890SOL     OW41323   3.331   6.282   0.792
 9890SOL    HW141324   3.275   6.260   0.871
 9890SOL    HW241325   3.412   6.334   0.822
 9891SOL     OW41326   9.279   5.421   2.215
 9891SOL    HW141327   9.223   5.368   2.279
 9891SOL    HW241328   9.326   5.358   2.152
 9892SOL     OW41329   1.541   0.572   2.131
 9892SOL    HW141330   1.589   0.576   2.218
 9892SOL    HW241331   1.466   0.507   2.137
 9893SOL     OW41332   4.148   8.123   7.285
 9893SOL    HW141333   4.141   8.200   7.349
 9893SOL    HW241334   4.089   8.049   7.315
 9894SOL     OW41335   3.835   2.739   1.215
 9894SOL    HW141336   3.776   2.776   1.143
 9894SOL    HW241337   3.797   2.764   1.304
 9895SOL     OW41338   3.075   6.157   2.011
 9895SOL    HW141339   3.037   6.099   2.083
 9895SOL    HW241340   3.072   6.108   1.924
 9896SOL     OW41341   3.852   0.594   6.582
 9896SOL    HW141342   3.755   0.572   6.574
 9896SOL    HW241343   3.887   0.559   6.669
 9897SOL     OW41344   9.528   7.971   2.280
 9897SOL    HW141345   9.610   8.028   2.270
 9897SOL    HW241346   9.554   7.875   2.267
 9898SOL     OW41347   6.148   2.334   4.258
 9898SOL    HW141348   6.179   2.413   4.310
 9898SOL    HW241349   6.148   2.356   4.160
 9899SOL     OW41350   2.674   4.764   1.270
 9899SOL    HW141351   2.659   4.785   1.173
 9899SOL    HW241352   2.587   4.766   1.318
 9900SOL     OW41353   1.630   6.651   6.192
 9900SOL    HW141354   1.730   6.644   6.194
 9900SOL    HW241355   1.602   6.738   6.233
 9901SOL     OW41356   9.716   9.605   7.782
 9901SOL    HW141357   9.716   9.705   7.773
 9901SOL    HW241358   9.740   9.564   7.695
 9902SOL     OW41359   9.820   0.824   3.279
 9902SOL    HW141360   9.784   0.917   3.280
 9902SOL    HW241361   9.759   0.765   3.227
 9903SOL     OW41362   0.984   3.433   7.709
 9903SOL    HW141363   1.004   3.347   7.756
 9903SOL    HW241364   1.060   3.456   7.648
 9904SOL     OW41365   2.925   6.000   5.293
 9904SOL    HW141366   3.016   6.018   5.330
 9904SOL    HW241367   2.932   5.933   5.219
 9905SOL     OW41368   4.994   5.013   1.087
 9905SOL    HW141369   4.995   5.047   1.181
 9905SOL    HW241370   4.967   5.086   1.025
 9906SOL     OW41371   2.533   6.395   2.429
 9906SOL    HW141372   2.513   6.297   2.436
 9906SOL    HW241373   2.511   6.427   2.337
 9907SOL     OW41374   3.561   5.404   5.096
 9907SOL    HW141375   3.557   5.387   5.194
 9907SOL    HW241376   3.587   5.320   5.048
 9908SOL     OW41377   2.884   9.975   2.171
 9908SOL    HW141378   2.800   9.968   2.224
 9908SOL    HW241379   2.924   9.884   2.161
 9909SOL     OW41380   7.426   0.128   5.982
 9909SOL    HW141381   7.485   0.170   6.051
 9909SOL    HW241382   7.482   0.095   5.907
 9910SOL     OW41383   8.442   7.083   4.001
 9910SOL    HW141384   8.378   7.126   3.937
 9910SOL    HW241385   8.522   7.051   3.951
 9911SOL     OW41386   5.868   8.837   3.466
 9911SOL    HW141387   5.940   8.850   3.398
 9911SOL    HW241388   5.878   8.903   3.539
 9912SOL     OW41389   0.891   6.595   2.181
 9912SOL    HW141390   0.965   6.661   2.188
 9912SOL    HW241391   0.930   6.504   2.164
 9913SOL     OW41392   4.143   5.167   1.087
 9913SOL    HW141393   4.121   5.131   0.997
 9913SOL    HW241394   4.217   5.114   1.127
 9914SOL     OW41395   5.187   4.130   7.154
 9914SOL    HW141396   5.088   4.135   7.141
 9914SOL    HW241397   5.229   4.216   7.125
 9915SOL     OW41398   8.739   0.147   5.372
 9915SOL    HW141399   8.686   0.102   5.301
 9915SOL    HW241400   8.766   0.081   5.442
 9916SOL     OW41401   5.526   9.984   2.659
 9916SOL    HW141402   5.494   9.955   2.569
 9916SOL    HW241403   5.467   0.058   2.693
 9917SOL     OW41404   7.519   8.508   1.733
 9917SOL    HW141405   7.572   8.425   1.750
 9917SOL    HW241406   7.423   8.484   1.719
 9918SOL     OW41407   8.458   6.444   7.647
 9918SOL    HW141408   8.402   6.526   7.637
 9918SOL    HW241409   8.538   6.466   7.703
 9919SOL     OW41410   3.076   7.529   7.376
 9919SOL    HW141411   3.075   7.528   7.276
 9919SOL    HW241412   2.989   7.493   7.410
 9920SOL     OW41413   6.444   8.638   2.146
 9920SOL    HW141414   6.516   8.656   2.212
 9920SOL    HW241415   6.375   8.711   2.151
 9921SOL     OW41416   9.204   0.251   3.321
 9921SOL    HW141417   9.203   0.193   3.239
 9921SOL    HW241418   9.238   0.197   3.398
 9922SOL     OW41419   4.051   6.344   4.370
 9922SOL    HW141420   3.992   6.270   4.336
 9922SOL    HW241421   4.011   6.432   4.344
 9923SOL     OW41422   6.271   1.108   4.522
 9923SOL    HW141423   6.318   1.182   4.569
 9923SOL    HW241424   6.223   1.144   4.442
 9924SOL     OW41425   1.027   3.595   3.670
 9924SOL    HW141426   1.081   3.524   3.715
 9924SOL    HW241427   1.088   3.653   3.615
 9925SOL     OW41428   9.755   8.674   6.547
 9925SOL    HW141429   9.839   8.662   6.494
 9925SOL    HW241430   9.694   8.596   6.531
 9926SOL     OW41431   8.345   4.432   7.667
 9926SOL    HW141432   8.269   4.370   7.686
 9926SOL    HW241433   8.428   4.379   7.650
 9927SOL     OW41434   7.756   8.654   3.118
 9927SOL    HW141435   7.715   8.630   3.206
 9927SOL    HW241436   7.855   8.661   3.129
 9928SOL     OW41437   5.281   9.069   3.324
 9928SOL    HW141438   5.351   9.016   3.275
 9928SOL    HW241439   5.192   9.053   3.281
 9929SOL     OW41440   8.555   0.343   1.490
 9929SOL    HW141441   8.572   0.396   1.407
 9929SOL    HW241442   8.465   0.366   1.527
 9930SOL     OW41443   7.430   4.405   1.907
 9930SOL    HW141444   7.496   4.333   1.925
 9930SOL    HW241445   7.429   4.469   1.984
 9931SOL     OW41446   0.623   2.062   2.125
 9931SOL    HW141447   0.703   2.119   2.145
 9931SOL    HW241448   0.617   2.046   2.027
 9932SOL     OW41449   0.237   7.136   4.343
 9932SOL    HW141450   0.204   7.088   4.425
 9932SOL    HW241451   0.257   7.231   4.366
 9933SOL     OW41452   9.855   3.868   1.049
 9933SOL    HW141453   9.816   3.924   1.122
 9933SOL    HW241454   9.924   3.807   1.087
 9934SOL     OW41455   7.152   2.329   2.666
 9934SOL    HW141456   7.225   2.272   2.627
 9934SOL    HW241457   7.187   2.377   2.746
 9935SOL     OW41458   8.474   2.988   1.168
 9935SOL    HW141459   8.421   3.031   1.096
 9935SOL    HW241460   8.554   2.942   1.129
 9936SOL     OW41461   8.347   8.475   4.636
 9936SOL    HW141462   8.264   8.485   4.691
 9936SOL    HW241463   8.360   8.557   4.580
 9937SOL     OW41464   9.979   4.292   7.324
 9937SOL    HW141465   9.967   4.374   7.380
 9937SOL    HW241466   9.922   4.219   7.361
 9938SOL     OW41467   0.615   9.929   1.285
 9938SOL    HW141468   0.587   9.967   1.197
 9938SOL    HW241469   0.691   9.866   1.272
 9939SOL     OW41470   8.878   6.032   4.604
 9939SOL    HW141471   8.883   5.935   4.625
 9939SOL    HW241472   8.862   6.084   4.688
 9940SOL     OW41473   2.842   8.599   7.306
 9940SOL    HW141474   2.750   8.559   7.299
 9940SOL    HW241475   2.859   8.628   7.400
 9941SOL     OW41476   1.337   4.536   1.765
 9941SOL    HW141477   1.251   4.581   1.790
 9941SOL    HW241478   1.326   4.489   1.677
 9942SOL     OW41479   4.563   1.024   1.742
 9942SOL    HW141480   4.580   1.030   1.644
 9942SOL    HW241481   4.469   1.051   1.761
 9943SOL     OW41482   7.210   0.530   6.536
 9943SOL    HW141483   7.221   0.441   6.493
 9943SOL    HW241484   7.260   0.599   6.483
 9944SOL     OW41485   1.897   8.588   0.787
 9944SOL    HW141486   1.901   8.488   0.788
 9944SOL    HW241487   1.801   8.618   0.785
 9945SOL     OW41488   9.666   2.437   7.504
 9945SOL    HW141489   9.679   2.341   7.477
 9945SOL    HW241490   9.598   2.442   7.577
 9946SOL     OW41491   1.918   8.369   6.858
 9946SOL    HW141492   1.845   8.428   6.894
 9946SOL    HW241493   1.976   8.421   6.796
 9947SOL     OW41494   5.444   4.155   0.090
 9947SOL    HW141495   5.414   4.079   0.147
 9947SOL    HW241496   5.384   4.163   0.011
 9948SOL     OW41497   0.396   2.196   3.846
 9948SOL    HW141498   0.338   2.217   3.925
 9948SOL    HW241499   0.468   2.133   3.873
 9949SOL     OW41500   1.664   5.073   2.872
 9949SOL    HW141501   1.574   5.046   2.904
 9949SOL    HW241502   1.697   5.150   2.927
 9950SOL     OW41503   7.657   6.548   4.398
 9950SOL    HW141504   7.645   6.469   4.459
 9950SOL    HW241505   7.749   6.586   4.409
 9951SOL     OW41506   1.816   7.455   6.459
 9951SOL    HW141507   1.732   7.450   6.405
 9951SOL    HW241508   1.813   7.537   6.516
 9952SOL     OW41509   0.234   2.562   5.491
 9952SOL    HW141510   0.285   2.488   5.536
 9952SOL    HW241511   0.200   2.529   5.403
 9953SOL     OW41512   6.913   7.123   4.951
 9953SOL    HW141513   7.011   7.136   4.967
 9953SOL    HW241514   6.885   7.178   4.873
 9954SOL     OW41515   6.376   9.959   1.134
 9954SOL    HW141516   6.281   9.970   1.162
 9954SOL    HW241517   6.417   9.881   1.182
 9955SOL     OW41518   9.596   5.898   6.638
 9955SOL    HW141519   9.527   5.827   6.653
 9955SOL    HW241520   9.589   5.933   6.545
 9956SOL     OW41521   1.473   4.507   4.676
 9956SOL    HW141522   1.547   4.484   4.739
 9956SOL    HW241523   1.441   4.424   4.630
 9957SOL     OW41524   9.271   1.646   3.477
 9957SOL    HW141525   9.211   1.580   3.522
 9957SOL    HW241526   9.281   1.622   3.381
 9958SOL     OW41527   2.701   2.824   5.124
 9958SOL    HW141528   2.616   2.840   5.173
 9958SOL    HW241529   2.770   2.889   5.155
 9959SOL     OW41530   8.305   9.898   6.847
 9959SOL    HW141531   8.314   9.806   6.808
 9959SOL    HW241532   8.210   9.914   6.874
 9960SOL     OW41533   8.352   2.251   4.445
 9960SOL    HW141534   8.298   2.261   4.528
 9960SOL    HW241535   8.352   2.154   4.418
 9961SOL     OW41536   5.945   9.730   4.981
 9961SOL    HW141537   5.914   9.717   5.076
 9961SOL    HW241538   6.008   9.807   4.976
 9962SOL     OW41539   3.503   9.749   6.549
 9962SOL    HW141540   3.429   9.685   6.529
 9962SOL    HW241541   3.576   9.737   6.482
 9963SOL     OW41542   9.762   6.463   7.308
 9963SOL    HW141543   9.782   6.463   7.406
 9963SOL    HW241544   9.724   6.374   7.282
 9964SOL     OW41545   3.597   2.006   4.501
 9964SOL    HW141546   3.548   2.016   4.414
 9964SOL    HW241547   3.533   1.980   4.573
 9965SOL     OW41548   8.442   8.659   3.844
 9965SOL    HW141549   8.478   8.592   3.908
 9965SOL    HW241550   8.402   8.612   3.765
 9966SOL     OW41551   6.759   2.123   3.076
 9966SOL    HW141552   6.846   2.171   3.072
 9966SOL    HW241553   6.695   2.173   3.135
 9967SOL     OW41554   0.342   2.438   0.150
 9967SOL    HW141555   0.352   2.377   0.071
 9967SOL    HW241556   0.413   2.508   0.148
 9968SOL     OW41557   4.305   7.406   5.119
 9968SOL    HW141558   4.324   7.433   5.025
 9968SOL    HW241559   4.258   7.318   5.120
 9969SOL     OW41560   8.748   9.928   2.170
 9969SOL    HW141561   8.742   9.993   2.094
 9969SOL    HW241562   8.831   9.945   2.222
 9970SOL     OW41563   7.153   4.208   2.979
 9970SOL    HW141564   7.188   4.300   2.958
 9970SOL    HW241565   7.096   4.176   2.903
 9971SOL     OW41566   7.704   8.415   7.492
 9971SOL    HW141567   7.780   8.425   7.556
 9971SOL    HW241568   7.740   8.407   7.399
 9972SOL     OW41569   8.008   8.485   6.578
 9972SOL    HW141570   7.932   8.469   6.514
 9972SOL    HW241571   8.091   8.505   6.526
 9973SOL     OW41572   6.900   4.700   2.017
 9973SOL    HW141573   6.966   4.766   1.983
 9973SOL    HW241574   6.920   4.680   2.113
 9974SOL     OW41575   3.525   8.721   1.582
 9974SOL    HW141576   3.519   8.685   1.675
 9974SOL    HW241577   3.446   8.691   1.529
 9975SOL     OW41578   3.068   8.304   5.595
 9975SOL    HW141579   3.121   8.320   5.512
 9975SOL    HW241580   3.027   8.390   5.626
 9976SOL     OW41581   0.242   3.000   2.622
 9976SOL    HW141582   0.313   2.932   2.639
 9976SOL    HW241583   0.273   3.063   2.551
 9977SOL     OW41584   3.934   5.131   7.332
 9977SOL    HW141585   3.903   5.224   7.311
 9977SOL    HW241586   3.981   5.093   7.252
 9978SOL     OW41587   8.389   2.879   0.334
 9978SOL    HW141588   8.341   2.922   0.257
 9978SOL    HW241589   8.457   2.814   0.298
 9979SOL     OW41590   2.299   6.466   5.507
 9979SOL    HW141591   2.386   6.509   5.530
 9979SOL    HW241592   2.224   6.530   5.522
 9980SOL     OW41593   5.616   5.408   0.360
 9980SOL    HW141594   5.567   5.492   0.337
 9980SOL    HW241595   5.710   5.430   0.387
 9981SOL     OW41596   2.532   9.281   4.103
 9981SOL    HW141597   2.526   9.381   4.103
 9981SOL    HW241598   2.466   9.244   4.037
 9982SOL     OW41599   9.687   9.533   5.902
 9982SOL    HW141600   9.644   9.474   5.833
 9982SOL    HW241601   9.633   9.617   5.912
 9983SOL     OW41602   7.041   8.801   2.333
 9983SOL    HW141603   7.072   8.866   2.264
 9983SOL    HW241604   6.965   8.840   2.384
 9984SOL     OW41605   2.558   9.604   3.149
 9984SOL    HW141606   2.581   9.616   3.246
 9984SOL    HW241607   2.544   9.693   3.107
 9985SOL     OW41608   9.505   0.015   2.656
 9985SOL    HW141609   9.539   0.108   2.671
 9985SOL    HW241610   9.562   9.950   2.706
 9986SOL     OW41611   3.538   4.914   5.727
 9986SOL    HW141612   3.522   4.966   5.811
 9986SOL    HW241613   3.636   4.899   5.715
 9987SOL     OW41614   4.594   5.750   2.927
 9987SOL    HW141615   4.605   5.849   2.919
 9987SOL    HW241616   4.577   5.725   3.022
 9988SOL     OW41617   1.598   1.005   7.911
 9988SOL    HW141618   1.693   1.033   7.897
 9988SOL    HW241619   1.559   1.057   7.987
 9989SOL     OW41620   0.650   9.557   5.785
 9989SOL    HW141621   0.727   9.573   5.722
 9989SOL    HW241622   0.669   9.476   5.840
 9990SOL     OW41623   1.726   2.321   6.599
 9990SOL    HW141624   1.723   2.298   6.502
 9990SOL    HW241625   1.672   2.404   6.615
 9991SOL     OW41626   2.921   2.587   0.691
 9991SOL    HW141627   2.882   2.580   0.783
 9991SOL    HW241628   2.888   2.671   0.647
 9992SOL     OW41629   2.320   1.709   0.747
 9992SOL    HW141630   2.375   1.625   0.753
 9992SOL    HW241631   2.283   1.718   0.654
 9993SOL     OW41632   1.342   2.525   2.897
 9993SOL    HW141633   1.291   2.440   2.909
 9993SOL    HW241634   1.439   2.504   2.884
 9994SOL     OW41635   5.867   0.890   3.784
 9994SOL    HW141636   5.916   0.967   3.825
 9994SOL    HW241637   5.921   0.852   3.709
 9995SOL     OW41638   1.143   2.473   7.034
 9995SOL    HW141639   1.060   2.510   7.076
 9995SOL    HW241640   1.169   2.531   6.957
 9996SOL     OW41641   6.561   0.388   2.108
 9996SOL    HW141642   6.641   0.346   2.151
 9996SOL    HW241643   6.544   0.477   2.150
 9997SOL     OW41644   4.700   8.101   4.828
 9997SOL    HW141645   4.750   8.116   4.743
 9997SOL    HW241646   4.615   8.154   4.826
 9998SOL     OW41647   8.799   9.940   5.546
 9998SOL    HW141648   8.750   9.858   5.517
 9998SOL    HW241649   8.809   9.939   5.646
 9999SOL     OW41650   8.429   3.695   2.186
 9999SOL    HW141651   8.523   3.700   2.152
 9999SOL    HW241652   8.367   3.739   2.120
10000SOL     OW41653   3.665   6.528   5.530
10000SOL    HW141654   3.720   6.606   5.500
10000SOL    HW241655   3.670   6.519   5.629
10001SOL     OW41656   6.570   8.608   2.988
10001SOL    HW141657   6.567   8.525   3.044
10001SOL    HW241658   6.523   8.593   2.902
10002SOL     OW41659   8.115   9.746   3.265
10002SOL    HW141660   8.162   9.818   3.215
10002SOL    HW241661   8.089   9.780   3.356
10003SOL     OW41662   6.842   8.011   5.760
10003SOL    HW141663   6.869   7.949   5.834
10003SOL    HW241664   6.766   7.971   5.709
10004SOL     OW41665   0.145   1.382   2.983
10004SOL    HW141666   0.151   1.286   2.955
10004SOL    HW241667   0.231   1.409   3.026
10005SOL     OW41668   8.391   3.320   4.256
10005SOL    HW141669   8.384   3.354   4.350
10005SOL    HW241670   8.481   3.343   4.219
10006SOL     OW41671   1.728   9.289   2.406
10006SOL    HW141672   1.672   9.208   2.389
10006SOL    HW241673   1.743   9.339   2.321
10007SOL     OW41674   9.968   6.375   7.142
10007SOL    HW141675   9.938   6.357   7.048
10007SOL    HW241676   9.897   6.422   7.192
10008SOL     OW41677   8.123   8.752   6.288
10008SOL    HW141678   8.090   8.820   6.353
10008SOL    HW241679   8.191   8.794   6.227
10009SOL     OW41680   0.482   8.721   2.925
10009SOL    HW141681   0.472   8.651   2.854
10009SOL    HW241682   0.395   8.768   2.939
10010SOL     OW41683   7.148   5.044   2.219
10010SOL    HW141684   7.177   4.952   2.245
10010SOL    HW241685   7.098   5.086   2.294
10011SOL     OW41686   4.140   0.863   3.158
10011SOL    HW141687   4.071   0.826   3.096
10011SOL    HW241688   4.096   0.890   3.245
10012SOL     OW41689   0.209   7.195   5.342
10012SOL    HW141690   0.272   7.229   5.411
10012SOL    HW241691   0.194   7.265   5.272
10013SOL     OW41692   1.242   1.931   7.630
10013SOL    HW141693   1.318   1.867   7.615
10013SOL    HW241694   1.159   1.880   7.650
10014SOL     OW41695   8.567   9.033   3.106
10014SOL    HW141696   8.483   9.069   3.065
10014SOL    HW241697   8.634   9.014   3.034
10015SOL     OW41698   5.884   1.929   4.677
10015SOL    HW141699   5.821   1.925   4.755
10015SOL    HW241700   5.978   1.937   4.712
10016SOL     OW41701   4.996   7.787   4.703
10016SOL    HW141702   5.008   7.702   4.651
10016SOL    HW241703   5.084   7.818   4.737
10017SOL     OW41704   1.669   8.158   7.746
10017SOL    HW141705   1.696   8.252   7.723
10017SOL    HW241706   1.571   8.154   7.763
10018SOL     OW41707   7.491   6.002   1.186
10018SOL    HW141708   7.449   6.005   1.276
10018SOL    HW241709   7.554   6.078   1.175
10019SOL     OW41710   5.801   3.045   0.127
10019SOL    HW141711   5.843   3.063   0.216
10019SOL    HW241712   5.861   3.080   0.055
10020SOL     OW41713   7.924   9.706   5.495
10020SOL    HW141714   7.986   9.643   5.448
10020SOL    HW241715   7.930   9.692   5.594
10021SOL     OW41716   0.307   4.034   3.750
10021SOL    HW141717   0.287   4.130   3.768
10021SOL    HW241718   0.224   3.979   3.757
10022SOL     OW41719   1.539   3.475   2.261
10022SOL    HW141720   1.560   3.378   2.246
10022SOL    HW241721   1.460   3.483   2.322
10023SOL     OW41722   0.427   5.653   0.737
10023SOL    HW141723   0.509   5.708   0.720
10023SOL    HW241724   0.452   5.572   0.791
10024SOL     OW41725   4.232   1.126   5.591
10024SOL    HW141726   4.280   1.162   5.670
10024SOL    HW241727   4.288   1.140   5.509
10025SOL     OW41728   7.430   8.843   3.015
10025SOL    HW141729   7.365   8.795   2.955
10025SOL    HW241730   7.522   8.837   2.977
10026SOL     OW41731   8.641   0.127   5.833
10026SOL    HW141732   8.709   0.054   5.827
10026SOL    HW241733   8.680   0.212   5.797
10027SOL     OW41734   9.034   4.797   7.769
10027SOL    HW141735   9.044   4.697   7.765
10027SOL    HW241736   9.054   4.835   7.679
10028SOL     OW41737   9.686   9.389   4.900
10028SOL    HW141738   9.704   9.463   4.965
10028SOL    HW241739   9.588   9.384   4.881
10029SOL     OW41740   8.876   9.694   7.474
10029SOL    HW141741   8.934   9.749   7.414
10029SOL    HW241742   8.889   9.721   7.569
10030SOL     OW41743   1.562   7.097   4.275
10030SOL    HW141744   1.636   7.062   4.219
10030SOL    HW241745   1.486   7.032   4.274
10031SOL     OW41746   0.397   9.849   5.590
10031SOL    HW141747   0.466   9.804   5.534
10031SOL    HW241748   0.325   9.886   5.531
10032SOL     OW41749   0.141   6.529   3.972
10032SOL    HW141750   0.048   6.548   3.940
10032SOL    HW241751   0.156   6.574   4.060
10033SOL     OW41752   9.594   2.194   7.851
10033SOL    HW141753   9.684   2.166   7.885
10033SOL    HW241754   9.533   2.115   7.848
10034SOL     OW41755   9.027   2.974   5.616
10034SOL    HW141756   9.030   2.874   5.611
10034SOL    HW241757   8.934   3.005   5.597
10035SOL     OW41758   0.699   1.577   7.433
10035SOL    HW141759   0.797   1.577   7.413
10035SOL    HW241760   0.663   1.485   7.420
10036SOL     OW41761   7.675   0.578   0.784
10036SOL    HW141762   7.766   0.611   0.806
10036SOL    HW241763   7.646   0.512   0.854
10037SOL     OW41764   6.294   2.090   0.761
10037SOL    HW141765   6.202   2.062   0.787
10037SOL    HW241766   6.298   2.190   0.755
10038SOL     OW41767   3.645   7.477   6.515
10038SOL    HW141768   3.569   7.502   6.456
10038SOL    HW241769   3.620   7.397   6.570
10039SOL     OW41770   3.642   1.004   2.477
10039SOL    HW141771   3.598   0.943   2.412
10039SOL    HW241772   3.644   0.962   2.568
10040SOL     OW41773   9.991   4.654   2.085
10040SOL    HW141774   9.998   4.739   2.033
10040SOL    HW241775   0.071   4.644   2.144
10041SOL     OW41776   2.118   5.817   2.877
10041SOL    HW141777   2.141   5.722   2.855
10041SOL    HW241778   2.088   5.864   2.794
10042SOL     OW41779   2.203   2.025   5.436
10042SOL    HW141780   2.234   2.015   5.530
10042SOL    HW241781   2.218   2.119   5.406
10043SOL     OW41782   4.203   6.125   7.480
10043SOL    HW141783   4.245   6.152   7.393
10043SOL    HW241784   4.266   6.068   7.532
10044SOL     OW41785   4.723   3.273   1.707
10044SOL    HW141786   4.723   3.302   1.803
10044SOL    HW241787   4.675   3.186   1.699
10045SOL     OW41788   3.451   7.462   5.147
10045SOL    HW141789   3.420   7.379   5.099
10045SOL    HW241790   3.541   7.488   5.113
10046SOL     OW41791   8.833   7.999   1.531
10046SOL    HW141792   8.823   7.974   1.434
10046SOL    HW241793   8.918   7.962   1.566
10047SOL     OW41794   1.035   7.521   6.096
10047SOL    HW141795   1.005   7.536   6.002
10047SOL    HW241796   1.085   7.435   6.103
10048SOL     OW41797   2.232   6.268   4.025
10048SOL    HW141798   2.203   6.274   4.120
10048SOL    HW241799   2.282   6.351   4.000
10049SOL     OW41800   0.881   2.915   6.344
10049SOL    HW141801   0.951   2.947   6.281
10049SOL    HW241802   0.791   2.949   6.314
10050SOL     OW41803   5.589   0.732   5.563
10050SOL    HW141804   5.582   0.814   5.619
10050SOL    HW241805   5.680   0.691   5.575
10051SOL     OW41806   0.379   8.625   1.243
10051SOL    HW141807   0.449   8.558   1.267
10051SOL    HW241808   0.295   8.577   1.216
10052SOL     OW41809   2.634   6.493   1.218
10052SOL    HW141810   2.648   6.432   1.296
10052SOL    HW241811   2.695   6.572   1.226
10053SOL     OW41812   1.006   1.508   7.683
10053SOL    HW141813   1.006   1.608   7.692
10053SOL    HW241814   1.071   1.469   7.748
10054SOL     OW41815   0.416   9.165   2.873
10054SOL    HW141816   0.327   9.136   2.908
10054SOL    HW241817   0.467   9.210   2.945
10055SOL     OW41818   0.519   4.146   3.272
10055SOL    HW141819   0.565   4.163   3.360
10055SOL    HW241820   0.465   4.062   3.279
10056SOL     OW41821   2.559   5.606   2.896
10056SOL    HW141822   2.654   5.597   2.925
10056SOL    HW241823   2.501   5.628   2.975
10057SOL     OW41824   7.722   7.197   7.729
10057SOL    HW141825   7.753   7.151   7.647
10057SOL    HW241826   7.739   7.295   7.721
10058SOL     OW41827   6.268   5.170   1.597
10058SOL    HW141828   6.339   5.126   1.652
10058SOL    HW241829   6.273   5.269   1.611
10059SOL     OW41830   6.644   0.816   5.601
10059SOL    HW141831   6.593   0.892   5.644
10059SOL    HW241832   6.610   0.729   5.637
10060SOL     OW41833   0.819   4.615   6.125
10060SOL    HW141834   0.849   4.600   6.031
10060SOL    HW241835   0.786   4.528   6.164
10061SOL     OW41836   3.612   3.532   4.868
10061SOL    HW141837   3.541   3.603   4.873
10061SOL    HW241838   3.634   3.501   4.961
10062SOL     OW41839   0.608   4.104   4.774
10062SOL    HW141840   0.667   4.024   4.762
10062SOL    HW241841   0.641   4.179   4.716
10063SOL     OW41842   4.207   9.458   7.420
10063SOL    HW141843   4.167   9.463   7.329
10063SOL    HW241844   4.283   9.393   7.420
10064SOL     OW41845   3.785   2.996   6.194
10064SOL    HW141846   3.768   2.901   6.221
10064SOL    HW241847   3.850   2.997   6.118
10065SOL     OW41848   1.463   7.872   6.455
10065SOL    HW141849   1.447   7.883   6.357
10065SOL    HW241850   1.555   7.904   6.478
10066SOL     OW41851   4.000   1.991   7.443
10066SOL    HW141852   3.904   1.979   7.420
10066SOL    HW241853   4.014   1.970   7.540
10067SOL     OW41854   4.241   9.056   2.297
10067SOL    HW141855   4.252   9.024   2.204
10067SOL    HW241856   4.145   9.052   2.323
10068SOL     OW41857   6.323   8.105   6.609
10068SOL    HW141858   6.268   8.155   6.542
10068SOL    HW241859   6.266   8.081   6.688
10069SOL     OW41860   0.461   5.442   6.739
10069SOL    HW141861   0.527   5.381   6.695
10069SOL    HW241862   0.479   5.446   6.837
10070SOL     OW41863   2.633   4.964   6.376
10070SOL    HW141864   2.549   4.959   6.322
10070SOL    HW241865   2.710   4.987   6.316
10071SOL     OW41866   9.200   6.025   3.645
10071SOL    HW141867   9.298   6.004   3.635
10071SOL    HW241868   9.153   6.006   3.558
10072SOL     OW41869   0.904   0.827   0.684
10072SOL    HW141870   0.935   0.907   0.734
10072SOL    HW241871   0.808   0.838   0.659
10073SOL     OW41872   6.505   7.141   5.863
10073SOL    HW141873   6.473   7.235   5.856
10073SOL    HW241874   6.565   7.133   5.943
10074SOL     OW41875   2.154   9.988   3.352
10074SOL    HW141876   2.093   9.999   3.431
10074SOL    HW241877   2.241   0.034   3.371
10075SOL     OW41878   8.256   0.514   7.842
10075SOL    HW141879   8.275   0.416   7.841
10075SOL    HW241880   8.331   0.562   7.797
10076SOL     OW41881   2.533   2.906   7.579
10076SOL    HW141882   2.601   2.977   7.560
10076SOL    HW241883   2.554   2.824   7.526
10077SOL     OW41884   4.782   7.556   0.154
10077SOL    HW141885   4.682   7.556   0.150
10077SOL    HW241886   4.817   7.468   0.122
10078SOL     OW41887   0.166   4.842   3.816
10078SOL    HW141888   0.171   4.756   3.763
10078SOL    HW241889   0.252   4.856   3.864
10079SOL     OW41890   5.899   2.219   0.921
10079SOL    HW141891   5.896   2.214   1.021
10079SOL    HW241892   5.950   2.141   0.886
10080SOL     OW41893   6.386   0.332   1.465
10080SOL    HW141894   6.408   0.430   1.456
10080SOL    HW241895   6.395   0.289   1.375
10081SOL     OW41896   9.991   2.038   6.099
10081SOL    HW141897   0.025   1.980   6.173
10081SOL    HW241898   0.041   2.015   6.015
10082SOL     OW41899   8.405   2.280   2.634
10082SOL    HW141900   8.393   2.318   2.542
10082SOL    HW241901   8.502   2.270   2.654
10083SOL     OW41902   3.931   2.811   0.859
10083SOL    HW141903   3.956   2.872   0.785
10083SOL    HW241904   3.845   2.841   0.901
10084SOL     OW41905   2.670   8.479   2.484
10084SOL    HW141906   2.689   8.572   2.516
10084SOL    HW241907   2.572   8.469   2.467
10085SOL     OW41908   6.928   4.432   0.628
10085SOL    HW141909   6.962   4.524   0.646
10085SOL    HW241910   6.828   4.431   0.637
10086SOL     OW41911   8.672   9.086   6.438
10086SOL    HW141912   8.742   9.156   6.418
10086SOL    HW241913   8.648   9.090   6.535
10087SOL     OW41914   2.955   7.962   0.814
10087SOL    HW141915   3.010   8.000   0.740
10087SOL    HW241916   2.907   8.036   0.860
10088SOL     OW41917   6.834   8.912   7.623
10088SOL    HW141918   6.797   8.946   7.537
10088SOL    HW241919   6.759   8.886   7.684
10089SOL     OW41920   0.822   8.571   4.040
10089SOL    HW141921   0.901   8.550   4.097
10089SOL    HW241922   0.752   8.617   4.095
10090SOL     OW41923   8.896   3.587   6.954
10090SOL    HW141924   8.983   3.567   6.908
10090SOL    HW241925   8.846   3.502   6.969
10091SOL     OW41926   1.319   3.456   6.383
10091SOL    HW141927   1.252   3.493   6.447
10091SOL    HW241928   1.385   3.399   6.433
10092SOL     OW41929   4.986   7.925   6.645
10092SOL    HW141930   4.986   8.015   6.688
10092SOL    HW241931   5.063   7.871   6.680
10093SOL     OW41932   2.481   2.317   6.193
10093SOL    HW141933   2.559   2.280   6.142
10093SOL    HW241934   2.400   2.261   6.175
10094SOL     OW41935   4.922   4.320   0.872
10094SOL    HW141936   4.972   4.306   0.786
10094SOL    HW241937   4.982   4.360   0.940
10095SOL     OW41938   6.097   2.395   0.219
10095SOL    HW141939   6.137   2.342   0.294
10095SOL    HW241940   6.016   2.442   0.252
10096SOL     OW41941   5.848   4.732   1.642
10096SOL    HW141942   5.824   4.640   1.671
10096SOL    HW241943   5.848   4.793   1.721
10097SOL     OW41944   2.051   3.606   7.879
10097SOL    HW141945   2.077   3.575   7.970
10097SOL    HW241946   1.952   3.611   7.872
10098SOL     OW41947   6.490   0.483   1.859
10098SOL    HW141948   6.508   0.452   1.952
10098SOL    HW241949   6.518   0.579   1.850
10099SOL     OW41950   8.048   0.121   4.461
10099SOL    HW141951   8.001   0.080   4.540
10099SOL    HW241952   8.064   0.051   4.392
10100SOL     OW41953   9.498   6.465   4.678
10100SOL    HW141954   9.501   6.565   4.683
10100SOL    HW241955   9.405   6.436   4.654
10101SOL     OW41956   3.959   3.885   1.598
10101SOL    HW141957   3.880   3.890   1.659
10101SOL    HW241958   4.042   3.878   1.652
10102SOL     OW41959   5.341   1.392   3.696
10102SOL    HW141960   5.296   1.481   3.683
10102SOL    HW241961   5.315   1.355   3.785
10103SOL     OW41962   8.107   2.770   0.831
10103SOL    HW141963   8.142   2.859   0.803
10103SOL    HW241964   8.074   2.721   0.750
10104SOL     OW41965   4.642   3.562   2.552
10104SOL    HW141966   4.596   3.597   2.471
10104SOL    HW241967   4.735   3.599   2.556
10105SOL     OW41968   7.634   2.882   4.762
10105SOL    HW141969   7.712   2.940   4.742
10105SOL    HW241970   7.549   2.930   4.738
10106SOL     OW41971   9.027   3.750   2.577
10106SOL    HW141972   9.060   3.758   2.671
10106SOL    HW241973   8.932   3.719   2.578
10107SOL     OW41974   1.214   9.767   2.770
10107SOL    HW141975   1.281   9.702   2.737
10107SOL    HW241976   1.126   9.751   2.726
10108SOL     OW41977   5.247   1.662   5.977
10108SOL    HW141978   5.285   1.632   6.065
10108SOL    HW241979   5.202   1.585   5.932
10109SOL     OW41980   3.719   6.935   7.444
10109SOL    HW141981   3.785   6.883   7.498
10109SOL    HW241982   3.628   6.895   7.455
10110SOL     OW41983   4.363   5.635   2.825
10110SOL    HW141984   4.292   5.640   2.895
10110SOL    HW241985   4.446   5.679   2.858
10111SOL     OW41986   9.485   5.631   2.999
10111SOL    HW141987   9.463   5.537   3.024
10111SOL    HW241988   9.562   5.631   2.935
10112SOL     OW41989   3.749   4.344   0.480
10112SOL    HW141990   3.734   4.333   0.578
10112SOL    HW241991   3.846   4.336   0.459
10113SOL     OW41992   4.595   7.358   4.727
10113SOL    HW141993   4.634   7.427   4.788
10113SOL    HW241994   4.497   7.350   4.745
10114SOL     OW41995   8.402   7.951   2.075
10114SOL    HW141996   8.398   8.050   2.088
10114SOL    HW241997   8.323   7.909   2.119
10115SOL     OW41998   9.288   4.874   4.416
10115SOL    HW141999   9.365   4.810   4.409
10115SOL    HW242000   9.280   4.904   4.511
10116SOL     OW42001   1.220   4.353   7.365
10116SOL    HW142002   1.162   4.328   7.443
10116SOL    HW242003   1.163   4.390   7.292
10117SOL     OW42004   8.486   3.678   4.500
10117SOL    HW142005   8.418   3.750   4.516
10117SOL    HW242006   8.501   3.667   4.401
10118SOL     OW42007   8.788   7.729   0.118
10118SOL    HW142008   8.826   7.654   0.171
10118SOL    HW242009   8.838   7.738   0.032
10119SOL     OW42010   8.389   6.364   2.935
10119SOL    HW142011   8.451   6.332   3.006
10119SOL    HW242012   8.355   6.455   2.958
10120SOL     OW42013   3.692   6.031   4.975
10120SOL    HW142014   3.643   6.089   4.910
10120SOL    HW242015   3.761   5.977   4.926
10121SOL     OW42016   4.551   2.234   6.473
10121SOL    HW142017   4.585   2.150   6.431
10121SOL    HW242018   4.460   2.254   6.438
10122SOL     OW42019   5.027   8.297   4.913
10122SOL    HW142020   5.058   8.228   4.848
10122SOL    HW242021   5.020   8.385   4.866
10123SOL     OW42022   4.997   1.603   5.578
10123SOL    HW142023   4.970   1.524   5.632
10123SOL    HW242024   5.021   1.573   5.486
10124SOL     OW42025   0.039   3.408   4.247
10124SOL    HW142026   0.074   3.315   4.235
10124SOL    HW242027   9.998   3.440   4.161
10125SOL     OW42028   8.174   6.227   1.893
10125SOL    HW142029   8.188   6.133   1.862
10125SOL    HW242030   8.173   6.289   1.814
10126SOL     OW42031   1.638   3.506   1.774
10126SOL    HW142032   1.596   3.451   1.701
10126SOL    HW242033   1.737   3.496   1.770
10127SOL     OW42034   3.571   8.566   4.573
10127SOL    HW142035   3.551   8.619   4.490
10127SOL    HW242036   3.654   8.512   4.558
10128SOL     OW42037   8.171   3.128   5.860
10128SOL    HW142038   8.152   3.187   5.781
10128SOL    HW242039   8.225   3.179   5.927
10129SOL     OW42040   2.596   7.196   6.821
10129SOL    HW142041   2.501   7.179   6.794
10129SOL    HW242042   2.608   7.171   6.917
10130SOL     OW42043   7.061   9.351   7.027
10130SOL    HW142044   7.117   9.312   7.100
10130SOL    HW242045   6.985   9.403   7.067
10131SOL     OW42046   8.336   1.328   0.439
10131SOL    HW142047   8.389   1.265   0.383
10131SOL    HW242048   8.386   1.349   0.523
10132SOL     OW42049   1.538   0.555   0.821
10132SOL    HW142050   1.546   0.513   0.731
10132SOL    HW242051   1.618   0.611   0.840
10133SOL     OW42052   2.659   1.702   1.424
10133SOL    HW142053   2.684   1.612   1.462
10133SOL    HW242054   2.736   1.765   1.435
10134SOL     OW42055   9.726   5.193   4.353
10134SOL    HW142056   9.753   5.097   4.350
10134SOL    HW242057   9.635   5.203   4.312
10135SOL     OW42058   5.623   0.979   6.651
10135SOL    HW142059   5.704   0.967   6.593
10135SOL    HW242060   5.651   1.002   6.744
10136SOL     OW42061   1.051   8.896   4.812
10136SOL    HW142062   1.043   8.935   4.904
10136SOL    HW242063   0.980   8.933   4.753
10137SOL     OW42064   4.304   3.379   5.523
10137SOL    HW142065   4.379   3.355   5.462
10137SOL    HW242066   4.223   3.402   5.469
10138SOL     OW42067   3.074   6.773   3.928
10138SOL    HW142068   3.158   6.736   3.968
10138SOL    HW242069   3.009   6.795   4.000
10139SOL     OW42070   0.792   5.186   0.083
10139SOL    HW142071   0.755   5.183  10.072
10139SOL    HW242072   0.837   5.273   0.099
10140SOL     OW42073   2.062   3.127   3.777
10140SOL    HW142074   2.135   3.150   3.712
10140SOL    HW242075   2.040   3.207   3.832
10141SOL     OW42076   9.000   1.197   2.129
10141SOL    HW142077   9.063   1.172   2.055
10141SOL    HW242078   8.986   1.118   2.189
10142SOL     OW42079   5.463   1.100   4.660
10142SOL    HW142080   5.499   1.086   4.752
10142SOL    HW242081   5.513   1.042   4.596
10143SOL     OW42082   1.998   0.238   5.177
10143SOL    HW142083   2.023   0.176   5.102
10143SOL    HW242084   1.918   0.202   5.225
10144SOL     OW42085   0.481   9.456   6.886
10144SOL    HW142086   0.552   9.408   6.834
10144SOL    HW242087   0.433   9.520   6.826
10145SOL     OW42088   4.247   0.325   4.129
10145SOL    HW142089   4.224   0.230   4.106
10145SOL    HW242090   4.177   0.363   4.189
10146SOL     OW42091   1.298   8.494   6.122
10146SOL    HW142092   1.250   8.422   6.172
10146SOL    HW242093   1.342   8.455   6.042
10147SOL     OW42094   7.105   1.160   7.040
10147SOL    HW142095   7.136   1.207   7.122
10147SOL    HW242096   7.145   1.203   6.959
10148SOL     OW42097   0.604   7.579   6.683
10148SOL    HW142098   0.518   7.626   6.665
10148SOL    HW242099   0.663   7.638   6.739
10149SOL     OW42100   6.699   0.407   4.914
10149SOL    HW142101   6.689   0.332   4.979
10149SOL    HW242102   6.785   0.455   4.931
10150SOL     OW42103   4.012   1.979   3.671
10150SOL    HW142104   3.990   1.926   3.589
10150SOL    HW242105   4.039   1.917   3.744
10151SOL     OW42106   1.785   4.559   0.126
10151SOL    HW142107   1.722   4.484   0.104
10151SOL    HW242108   1.859   4.523   0.183
10152SOL     OW42109   3.145   4.822   0.139
10152SOL    HW142110   3.234   4.783   0.115
10152SOL    HW242111   3.152   4.921   0.145
10153SOL     OW42112   8.337   1.298   0.876
10153SOL    HW142113   8.375   1.226   0.934
10153SOL    HW242114   8.397   1.314   0.798
10154SOL     OW42115   1.631   5.300   1.049
10154SOL    HW142116   1.608   5.226   0.987
10154SOL    HW242117   1.550   5.326   1.102
10155SOL     OW42118   0.649   8.750   4.284
10155SOL    HW142119   0.586   8.674   4.268
10155SOL    HW242120   0.606   8.836   4.255
10156SOL     OW42121   2.296   9.099   5.306
10156SOL    HW142122   2.324   9.059   5.219
10156SOL    HW242123   2.300   9.030   5.378
10157SOL     OW42124   3.603   7.812   5.944
10157SOL    HW142125   3.547   7.873   5.888
10157SOL    HW242126   3.682   7.862   5.980
10158SOL     OW42127   8.622   1.192   4.631
10158SOL    HW142128   8.652   1.284   4.653
10158SOL    HW242129   8.530   1.194   4.591
10159SOL     OW42130   4.275   1.156   0.980
10159SOL    HW142131   4.280   1.096   0.901
10159SOL    HW242132   4.184   1.152   1.020
10160SOL     OW42133   1.773   6.906   6.996
10160SOL    HW142134   1.678   6.933   6.987
10160SOL    HW242135   1.821   6.972   7.054
10161SOL     OW42136   9.203   6.311   6.993
10161SOL    HW142137   9.133   6.335   7.060
10161SOL    HW242138   9.293   6.312   7.037
10162SOL     OW42139   1.011   8.322   7.801
10162SOL    HW142140   0.944   8.396   7.803
10162SOL    HW242141   0.965   8.237   7.774
10163SOL     OW42142   7.286   7.003   5.629
10163SOL    HW142143   7.302   7.010   5.530
10163SOL    HW242144   7.187   7.004   5.647
10164SOL     OW42145   8.566   0.528   5.707
10164SOL    HW142146   8.472   0.543   5.738
10164SOL    HW242147   8.568   0.454   5.641
10165SOL     OW42148   8.547   7.814   5.148
10165SOL    HW142149   8.536   7.846   5.243
10165SOL    HW242150   8.641   7.782   5.135
10166SOL     OW42151   4.416   2.082   6.861
10166SOL    HW142152   4.509   2.117   6.855
10166SOL    HW242153   4.352   2.150   6.824
10167SOL     OW42154   8.411   9.253   6.912
10167SOL    HW142155   8.470   9.198   6.970
10167SOL    HW242156   8.390   9.340   6.957
10168SOL     OW42157   8.894   4.169   7.734
10168SOL    HW142158   8.806   4.123   7.748
10168SOL    HW242159   8.883   4.244   7.670
10169SOL     OW42160   6.604   4.266   0.902
10169SOL    HW142161   6.673   4.306   0.962
10169SOL    HW242162   6.532   4.334   0.884
10170SOL     OW42163   9.805   6.425   3.662
10170SOL    HW142164   9.892   6.379   3.647
10170SOL    HW242165   9.798   6.504   3.602
10171SOL     OW42166   4.458   2.843   1.412
10171SOL    HW142167   4.449   2.941   1.432
10171SOL    HW242168   4.466   2.829   1.314
10172SOL     OW42169   0.122   7.581   7.539
10172SOL    HW142170   0.066   7.597   7.458
10172SOL    HW242171   0.165   7.490   7.532
10173SOL     OW42172   1.812   0.515   5.648
10173SOL    HW142173   1.719   0.479   5.659
10173SOL    HW242174   1.822   0.553   5.556
10174SOL     OW42175   8.998   5.088   4.810
10174SOL    HW142176   9.010   5.183   4.782
10174SOL    HW242177   9.066   5.066   4.880
10175SOL     OW42178   3.467   3.972   0.363
10175SOL    HW142179   3.478   3.917   0.280
10175SOL    HW242180   3.458   3.911   0.442
10176SOL     OW42181   8.215   5.102   5.650
10176SOL    HW142182   8.201   5.007   5.677
10176SOL    HW242183   8.174   5.163   5.719
10177SOL     OW42184   8.590   8.239   3.946
10177SOL    HW142185   8.669   8.178   3.950
10177SOL    HW242186   8.511   8.189   3.909
10178SOL     OW42187   9.006   8.074   0.122
10178SOL    HW142188   8.924   8.037   0.165
10178SOL    HW242189   9.027   8.164   0.161
10179SOL     OW42190   9.188   8.644   7.255
10179SOL    HW142191   9.276   8.679   7.224
10179SOL    HW242192   9.167   8.559   7.207
10180SOL     OW42193   0.632   2.508   4.543
10180SOL    HW142194   0.684   2.590   4.568
10180SOL    HW242195   0.575   2.480   4.620
10181SOL     OW42196   2.950   2.545   4.582
10181SOL    HW142197   2.992   2.595   4.658
10181SOL    HW242198   2.857   2.518   4.607
10182SOL     OW42199   4.764   5.887   0.437
10182SOL    HW142200   4.802   5.848   0.521
10182SOL    HW242201   4.775   5.823   0.362
10183SOL     OW42202   0.735   3.883   4.213
10183SOL    HW142203   0.636   3.890   4.222
10183SOL    HW242204   0.779   3.916   4.296
10184SOL     OW42205   3.285   8.905   0.120
10184SOL    HW142206   3.189   8.933   0.115
10184SOL    HW242207   3.318   8.917   0.213
10185SOL     OW42208   4.957   1.769   4.924
10185SOL    HW142209   4.930   1.830   4.849
10185SOL    HW242210   4.933   1.675   4.901
10186SOL     OW42211   4.731   1.838   6.722
10186SOL    HW142212   4.725   1.879   6.813
10186SOL    HW242213   4.815   1.869   6.678
10187SOL     OW42214   3.895   9.696   0.208
10187SOL    HW142215   3.950   9.683   0.126
10187SOL    HW242216   3.803   9.726   0.183
10188SOL     OW42217   9.699   4.644   1.320
10188SOL    HW142218   9.650   4.666   1.236
10188SOL    HW242219   9.782   4.593   1.299
10189SOL     OW42220   0.988   6.700   6.759
10189SOL    HW142221   1.039   6.626   6.802
10189SOL    HW242222   0.998   6.695   6.660
10190SOL     OW42223   5.679   1.450   0.596
10190SOL    HW142224   5.651   1.367   0.644
10190SOL    HW242225   5.742   1.502   0.653
10191SOL     OW42226   2.590   1.668   7.039
10191SOL    HW142227   2.611   1.747   6.981
10191SOL    HW242228   2.653   1.665   7.116
10192SOL     OW42229   2.043   9.354   1.474
10192SOL    HW142230   2.097   9.314   1.400
10192SOL    HW242231   1.947   9.329   1.463
10193SOL     OW42232   9.679   7.349   3.918
10193SOL    HW142233   9.722   7.290   3.850
10193SOL    HW242234   9.716   7.328   4.009
10194SOL     OW42235   1.699   9.418   0.227
10194SOL    HW142236   1.666   9.486   0.161
10194SOL    HW242237   1.731   9.337   0.178
10195SOL     OW42238   2.234   7.360   5.294
10195SOL    HW142239   2.320   7.311   5.279
10195SOL    HW242240   2.253   7.447   5.338
10196SOL     OW42241   1.568   2.727   4.822
10196SOL    HW142242   1.478   2.685   4.807
10196SOL    HW242243   1.639   2.658   4.809
10197SOL     OW42244   9.839   9.203   1.910
10197SOL    HW142245   9.837   9.259   1.993
10197SOL    HW242246   9.912   9.237   1.850
10198SOL     OW42247   3.495   7.947   3.899
10198SOL    HW142248   3.553   7.939   3.818
10198SOL    HW242249   3.522   7.879   3.967
10199SOL     OW42250   4.894   7.640   4.100
10199SOL    HW142251   4.857   7.594   4.019
10199SOL    HW242252   4.926   7.731   4.075
10200SOL     OW42253   9.906   3.273   1.459
10200SOL    HW142254   9.866   3.181   1.469
10200SOL    HW242255   9.855   3.337   1.516
10201SOL     OW42256   4.184   8.750   1.318
10201SOL    HW142257   4.112   8.691   1.355
10201SOL    HW242258   4.229   8.703   1.242
10202SOL     OW42259   6.225   0.445   3.961
10202SOL    HW142260   6.188   0.360   3.998
10202SOL    HW242261   6.156   0.517   3.965
10203SOL     OW42262   1.923   0.547   0.237
10203SOL    HW142263   2.017   0.579   0.225
10203SOL    HW242264   1.902   0.479   0.167
10204SOL     OW42265   7.353   6.793   1.554
10204SOL    HW142266   7.379   6.830   1.465
10204SOL    HW242267   7.309   6.704   1.542
10205SOL     OW42268   6.430   2.806   2.560
10205SOL    HW142269   6.492   2.750   2.505
10205SOL    HW242270   6.338   2.767   2.556
10206SOL     OW42271   2.636   4.586   1.984
10206SOL    HW142272   2.604   4.574   1.890
10206SOL    HW242273   2.678   4.676   1.994
10207SOL     OW42274   4.241   3.155   5.276
10207SOL    HW142275   4.237   3.056   5.283
10207SOL    HW242276   4.330   3.188   5.309
10208SOL     OW42277   5.940   1.448   0.147
10208SOL    HW142278   5.855   1.433   0.096
10208SOL    HW242279   5.918   1.478   0.240
10209SOL     OW42280   7.287   9.968   1.149
10209SOL    HW142281   7.263   0.059   1.182
10209SOL    HW242282   7.370   9.974   1.094
10210SOL     OW42283   2.615   9.698   1.923
10210SOL    HW142284   2.644   9.654   2.008
10210SOL    HW242285   2.638   9.639   1.846
10211SOL     OW42286   8.143   4.744   2.300
10211SOL    HW142287   8.230   4.792   2.292
10211SOL    HW242288   8.103   4.732   2.208
10212SOL     OW42289   0.292   0.930   4.739
10212SOL    HW142290   0.241   0.944   4.824
10212SOL    HW242291   0.259   0.994   4.670
10213SOL     OW42292   8.263   7.743   1.671
10213SOL    HW142293   8.303   7.821   1.718
10213SOL    HW242294   8.235   7.770   1.579
10214SOL     OW42295   8.997   8.206   5.206
10214SOL    HW142296   9.038   8.291   5.173
10214SOL    HW242297   9.017   8.194   5.303
10215SOL     OW42298   3.578   7.048   5.096
10215SOL    HW142299   3.577   7.044   5.196
10215SOL    HW242300   3.673   7.047   5.064
10216SOL     OW42301   8.682   8.518   0.822
10216SOL    HW142302   8.775   8.482   0.824
10216SOL    HW242303   8.678   8.597   0.762
10217SOL     OW42304   0.572   6.886   0.602
10217SOL    HW142305   0.658   6.918   0.640
10217SOL    HW242306   0.499   6.950   0.627
10218SOL     OW42307   7.526   4.488   3.291
10218SOL    HW142308   7.568   4.480   3.201
10218SOL    HW242309   7.530   4.400   3.337
10219SOL     OW42310   3.842   4.465   3.971
10219SOL    HW142311   3.781   4.542   3.952
10219SOL    HW242312   3.871   4.424   3.884
10220SOL     OW42313   3.867   0.877   0.540
10220SOL    HW142314   3.931   0.906   0.469
10220SOL    HW242315   3.913   0.814   0.603
10221SOL     OW42316   2.632   1.074   7.050
10221SOL    HW142317   2.669   1.017   7.123
10221SOL    HW242318   2.656   1.170   7.067
10222SOL     OW42319   8.581   6.462   4.992
10222SOL    HW142320   8.582   6.440   5.090
10222SOL    HW242321   8.565   6.560   4.980
10223SOL     OW42322   6.321   4.147   1.831
10223SOL    HW142323   6.420   4.159   1.820
10223SOL    HW242324   6.274   4.173   1.747
10224SOL     OW42325   9.137   2.439   5.134
10224SOL    HW142326   9.142   2.452   5.233
10224SOL    HW242327   9.045   2.462   5.102
10225SOL     OW42328   2.075   5.461   7.155
10225SOL    HW142329   1.985   5.443   7.114
10225SOL    HW242330   2.117   5.539   7.110
10226SOL     OW42331   7.628   4.483   3.031
10226SOL    HW142332   7.649   4.416   2.960
10226SOL    HW242333   7.573   4.557   2.991
10227SOL     OW42334   3.125   7.088   0.019
10227SOL    HW142335   3.144   7.182   0.045
10227SOL    HW242336   3.028   7.068   0.034
10228SOL     OW42337   7.037   9.319   5.169
10228SOL    HW142338   7.044   9.280   5.077
10228SOL    HW242339   7.025   9.418   5.163
10229SOL     OW42340   7.473   5.387   0.362
10229SOL    HW142341   7.472   5.347   0.271
10229SOL    HW242342   7.514   5.479   0.357
10230SOL     OW42343   1.403   9.290   3.317
10230SOL    HW142344   1.384   9.386   3.297
10230SOL    HW242345   1.471   9.284   3.391
10231SOL     OW42346   3.975   8.373   2.397
10231SOL    HW142347   3.955   8.405   2.490
10231SOL    HW242348   3.982   8.274   2.397
10232SOL     OW42349   8.589   5.627   0.502
10232SOL    HW142350   8.600   5.663   0.595
10232SOL    HW242351   8.650   5.676   0.440
10233SOL     OW42352   5.060   2.748   7.427
10233SOL    HW142353   4.982   2.688   7.406
10233SOL    HW242354   5.079   2.807   7.349
10234SOL     OW42355   9.825   0.408   3.386
10234SOL    HW142356   9.734   0.403   3.428
10234SOL    HW242357   9.818   0.390   3.288
10235SOL     OW42358   6.328   0.314   6.545
10235SOL    HW142359   6.412   0.343   6.498
10235SOL    HW242360   6.252   0.313   6.479
10236SOL     OW42361   8.919   1.769   0.131
10236SOL    HW142362   8.864   1.687   0.142
10236SOL    HW242363   8.894   1.815   0.046
10237SOL     OW42364   2.478   5.526   0.411
10237SOL    HW142365   2.451   5.578   0.492
10237SOL    HW242366   2.568   5.485   0.426
10238SOL     OW42367   2.122   6.902   2.894
10238SOL    HW142368   2.180   6.874   2.818
10238SOL    HW242369   2.115   7.001   2.896
10239SOL     OW42370   1.748   2.232   4.354
10239SOL    HW142371   1.751   2.199   4.260
10239SOL    HW242372   1.663   2.202   4.397
10240SOL     OW42373   7.349   4.023   3.035
10240SOL    HW142374   7.279   4.088   3.004
10240SOL    HW242375   7.354   4.024   3.134
10241SOL     OW42376   2.930   9.097   2.862
10241SOL    HW142377   2.841   9.135   2.888
10241SOL    HW242378   2.998   9.171   2.858
10242SOL     OW42379   0.773   6.276   0.895
10242SOL    HW142380   0.863   6.252   0.933
10242SOL    HW242381   0.701   6.247   0.959
10243SOL     OW42382   9.741   9.612   3.617
10243SOL    HW142383   9.741   9.651   3.525
10243SOL    HW242384   9.667   9.652   3.670
10244SOL     OW42385   8.192   3.511   7.482
10244SOL    HW142386   8.175   3.426   7.533
10244SOL    HW242387   8.255   3.493   7.407
10245SOL     OW42388   1.377   2.363   7.128
10245SOL    HW142389   1.292   2.409   7.102
10245SOL    HW242390   1.359   2.267   7.147
10246SOL     OW42391   5.182   9.731   5.614
10246SOL    HW142392   5.193   9.723   5.514
10246SOL    HW242393   5.136   9.650   5.649
10247SOL     OW42394   0.348   0.308   5.817
10247SOL    HW142395   0.325   0.326   5.913
10247SOL    HW242396   0.349   0.209   5.802
10248SOL     OW42397   7.335   6.291   4.293
10248SOL    HW142398   7.296   6.202   4.312
10248SOL    HW242399   7.270   6.363   4.318
10249SOL     OW42400   3.400   1.332   6.150
10249SOL    HW142401   3.358   1.402   6.208
10249SOL    HW242402   3.362   1.338   6.058
10250SOL     OW42403   6.223   0.949   5.654
10250SOL    HW142404   6.172   0.982   5.574
10250SOL    HW242405   6.185   0.989   5.737
10251SOL     OW42406   1.075   2.491   3.948
10251SOL    HW142407   1.142   2.532   4.009
10251SOL    HW242408   1.028   2.563   3.897
10252SOL     OW42409   5.783   0.619   2.136
10252SOL    HW142410   5.772   0.637   2.038
10252SOL    HW242411   5.696   0.586   2.173
10253SOL     OW42412   5.258   7.593   1.841
10253SOL    HW142413   5.319   7.573   1.918
10253SOL    HW242414   5.223   7.507   1.803
10254SOL     OW42415   9.058   8.880   7.828
10254SOL    HW142416   9.031   8.911   7.737
10254SOL    HW242417   9.108   8.953   7.875
10255SOL     OW42418   5.044   0.857   0.033
10255SOL    HW142419   4.962   0.905   0.065
10255SOL    HW242420   5.017   0.780  10.056
10256SOL     OW42421   6.712   4.822   1.479
10256SOL    HW142422   6.643   4.750   1.472
10256SOL    HW242423   6.790   4.799   1.422
10257SOL     OW42424   8.663   6.539   7.812
10257SOL    HW142425   8.742   6.478   7.817
10257SOL    HW242426   8.630   6.559   7.904
10258SOL     OW42427   9.436   0.855   2.473
10258SOL    HW142428   9.471   0.766   2.504
10258SOL    HW242429   9.509   0.922   2.476
10259SOL     OW42430   8.275   9.652   7.495
10259SOL    HW142431   8.233   9.742   7.500
10259SOL    HW242432   8.358   9.650   7.552
10260SOL     OW42433   9.073   0.510   4.236
10260SOL    HW142434   9.085   0.604   4.204
10260SOL    HW242435   8.990   0.505   4.293
10261SOL     OW42436   1.101   1.593   5.232
10261SOL    HW142437   1.138   1.670   5.181
10261SOL    HW242438   1.062   1.526   5.168
10262SOL     OW42439   9.071   2.296   4.813
10262SOL    HW142440   9.004   2.257   4.750
10262SOL    HW242441   9.053   2.394   4.824
10263SOL     OW42442   9.361   6.844   1.075
10263SOL    HW142443   9.316   6.928   1.045
10263SOL    HW242444   9.294   6.771   1.083
10264SOL     OW42445   0.572   3.901   6.151
10264SOL    HW142446   0.660   3.907   6.197
10264SOL    HW242447   0.517   3.982   6.173
10265SOL     OW42448   0.177   0.449   5.344
10265SOL    HW142449   0.098   0.438   5.284
10265SOL    HW242450   0.154   0.510   5.420
10266SOL     OW42451   3.749   9.119   2.869
10266SOL    HW142452   3.745   9.193   2.936
10266SOL    HW242453   3.657   9.083   2.852
10267SOL     OW42454   7.364   4.827   0.371
10267SOL    HW142455   7.366   4.891   0.448
10267SOL    HW242456   7.399   4.739   0.401
10268SOL     OW42457   6.519   4.627   1.417
10268SOL    HW142458   6.450   4.564   1.453
10268SOL    HW242459   6.478   4.685   1.347
10269SOL     OW42460   9.029   5.128   1.592
10269SOL    HW142461   8.937   5.133   1.631
10269SOL    HW242462   9.083   5.063   1.644
10270SOL     OW42463   8.888   1.633   6.586
10270SOL    HW142464   8.837   1.714   6.613
10270SOL    HW242465   8.937   1.596   6.665
10271SOL     OW42466   2.501   9.252   4.374
10271SOL    HW142467   2.511   9.255   4.274
10271SOL    HW242468   2.537   9.166   4.408
10272SOL     OW42469   0.601   4.974   6.032
10272SOL    HW142470   0.675   4.931   5.980
10272SOL    HW242471   0.539   4.904   6.068
10273SOL     OW42472   9.945   1.279   3.290
10273SOL    HW142473   9.989   1.194   3.316
10273SOL    HW242474   0.007   1.356   3.308
10274SOL     OW42475   5.678   0.170   7.069
10274SOL    HW142476   5.713   0.209   6.984
10274SOL    HW242477   5.605   0.104   7.048
10275SOL     OW42478   2.981   0.494   4.606
10275SOL    HW142479   2.984   0.588   4.572
10275SOL    HW242480   2.943   0.493   4.699
10276SOL     OW42481   2.414   5.269   1.242
10276SOL    HW142482   2.502   5.315   1.232
10276SOL    HW242483   2.425   5.190   1.303
10277SOL     OW42484   7.013   5.169   2.425
10277SOL    HW142485   7.019   5.142   2.521
10277SOL    HW242486   7.030   5.267   2.417
10278SOL     OW42487   1.433   9.518   7.117
10278SOL    HW142488   1.366   9.543   7.047
10278SOL    HW242489   1.434   9.419   7.128
10279SOL     OW42490   2.704   4.231   5.184
10279SOL    HW142491   2.704   4.321   5.228
10279SOL    HW242492   2.698   4.160   5.254
10280SOL     OW42493   9.104   8.295   0.269
10280SOL    HW142494   9.096   8.254   0.360
10280SOL    HW242495   9.193   8.273   0.230
10281SOL     OW42496   2.757   1.333   7.091
10281SOL    HW142497   2.709   1.337   7.178
10281SOL    HW242498   2.760   1.425   7.051
10282SOL     OW42499   7.264   8.043   6.858
10282SOL    HW142500   7.250   8.080   6.766
10282SOL    HW242501   7.340   7.977   6.856
10283SOL     OW42502   1.253   9.153   0.636
10283SOL    HW142503   1.172   9.122   0.687
10283SOL    HW242504   1.302   9.221   0.690
10284SOL     OW42505   7.000   2.756   2.125
10284SOL    HW142506   7.083   2.762   2.070
10284SOL    HW242507   6.997   2.667   2.171
10285SOL     OW42508   1.497   6.121   6.206
10285SOL    HW142509   1.471   6.063   6.283
10285SOL    HW242510   1.589   6.158   6.221
10286SOL     OW42511   9.088   2.990   2.318
10286SOL    HW142512   9.034   3.037   2.388
10286SOL    HW242513   9.035   2.914   2.281
10287SOL     OW42514   1.054   0.168   7.339
10287SOL    HW142515   1.087   0.211   7.255
10287SOL    HW242516   0.975   0.219   7.373
10288SOL     OW42517   0.962   3.169   2.052
10288SOL    HW142518   0.969   3.246   1.988
10288SOL    HW242519   0.908   3.197   2.131
10289SOL     OW42520   3.310   6.469   7.503
10289SOL    HW142521   3.396   6.499   7.463
10289SOL    HW242522   3.286   6.527   7.581
10290SOL     OW42523   6.657   4.560   0.720
10290SOL    HW142524   6.584   4.521   0.776
10290SOL    HW242525   6.692   4.643   0.764
10291SOL     OW42526   7.213   4.749   3.531
10291SOL    HW142527   7.250   4.826   3.583
10291SOL    HW242528   7.114   4.759   3.524
10292SOL     OW42529   8.465   2.906   7.799
10292SOL    HW142530   8.507   2.950   7.719
10292SOL    HW242531   8.386   2.961   7.829
10293SOL     OW42532   1.865   7.312   0.076
10293SOL    HW142533   1.940   7.355   0.026
10293SOL    HW242534   1.893   7.296   0.171
10294SOL     OW42535   9.003   8.801   5.603
10294SOL    HW142536   9.050   8.838   5.684
10294SOL    HW242537   9.044   8.841   5.521
10295SOL     OW42538   9.445   4.421   7.015
10295SOL    HW142539   9.545   4.422   7.014
10295SOL    HW242540   9.413   4.328   6.997
10296SOL     OW42541   0.681   6.962   3.668
10296SOL    HW142542   0.632   6.970   3.754
10296SOL    HW242543   0.619   6.984   3.592
10297SOL     OW42544   1.116   1.504   3.324
10297SOL    HW142545   1.055   1.553   3.386
10297SOL    HW242546   1.184   1.566   3.287
10298SOL     OW42547   7.505   6.004   3.381
10298SOL    HW142548   7.544   5.912   3.379
10298SOL    HW242549   7.470   6.023   3.473
10299SOL     OW42550   1.672   2.364   3.782
10299SOL    HW142551   1.654   2.286   3.842
10299SOL    HW242552   1.634   2.447   3.824
10300SOL     OW42553   2.328   4.547   1.254
10300SOL    HW142554   2.234   4.536   1.287
10300SOL    HW242555   2.381   4.597   1.323
10301SOL     OW42556   2.543   7.752   2.274
10301SOL    HW142557   2.621   7.804   2.240
10301SOL    HW242558   2.574   7.680   2.336
10302SOL     OW42559   2.864   7.780   0.999
10302SOL    HW142560   2.766   7.772   0.978
10302SOL    HW242561   2.907   7.844   0.935
10303SOL     OW42562   9.304   7.947   4.962
10303SOL    HW142563   9.377   7.987   4.906
10303SOL    HW242564   9.225   8.008   4.962
10304SOL     OW42565   1.214   1.775   6.921
10304SOL    HW142566   1.283   1.727   6.975
10304SOL    HW242567   1.245   1.869   6.904
10305SOL     OW42568   2.884   9.805   1.891
10305SOL    HW142569   2.786   9.794   1.881
10305SOL    HW242570   2.917   9.869   1.821
10306SOL     OW42571   0.924   8.756   4.338
10306SOL    HW142572   0.936   8.855   4.337
10306SOL    HW242573   0.827   8.734   4.323
10307SOL     OW42574   2.064   2.913   0.825
10307SOL    HW142575   1.964   2.922   0.821
10307SOL    HW242576   2.088   2.824   0.864
10308SOL     OW42577   9.518   4.929   7.674
10308SOL    HW142578   9.462   5.011   7.666
10308SOL    HW242579   9.614   4.953   7.659
10309SOL     OW42580   0.445   9.225   2.073
10309SOL    HW142581   0.500   9.214   1.990
10309SOL    HW242582   0.474   9.308   2.121
10310SOL     OW42583   5.296   0.169   3.398
10310SOL    HW142584   5.279   0.134   3.306
10310SOL    HW242585   5.392   0.154   3.422
10311SOL     OW42586   4.547   2.573   6.817
10311SOL    HW142587   4.621   2.637   6.833
10311SOL    HW242588   4.497   2.557   6.903
10312SOL     OW42589   7.553   1.433   2.892
10312SOL    HW142590   7.631   1.462   2.948
10312SOL    HW242591   7.586   1.407   2.801
10313SOL     OW42592   1.548   6.806   4.906
10313SOL    HW142593   1.646   6.818   4.893
10313SOL    HW242594   1.505   6.895   4.920
10314SOL     OW42595   0.774   1.512   2.633
10314SOL    HW142596   0.745   1.433   2.580
10314SOL    HW242597   0.872   1.527   2.621
10315SOL     OW42598   6.071   1.083   2.086
10315SOL    HW142599   6.035   1.132   2.007
10315SOL    HW242600   6.036   0.989   2.085
10316SOL     OW42601   9.572   5.122   5.848
10316SOL    HW142602   9.664   5.162   5.852
10316SOL    HW242603   9.562   5.054   5.921
10317SOL     OW42604   1.756   6.340   4.797
10317SOL    HW142605   1.818   6.268   4.766
10317SOL    HW242606   1.791   6.429   4.770
10318SOL     OW42607   3.362   8.687   7.352
10318SOL    HW142608   3.357   8.658   7.257
10318SOL    HW242609   3.317   8.620   7.411
10319SOL     OW42610   4.430   3.809   5.256
10319SOL    HW142611   4.444   3.829   5.159
10319SOL    HW242612   4.342   3.848   5.285
10320SOL     OW42613   2.018   9.756   3.658
10320SOL    HW142614   2.035   9.744   3.755
10320SOL    HW242615   1.950   9.828   3.645
10321SOL     OW42616   4.778   9.757   3.187
10321SOL    HW142617   4.855   9.696   3.169
10321SOL    HW242618   4.751   9.804   3.103
10322SOL     OW42619   3.699   4.485   4.375
10322SOL    HW142620   3.640   4.521   4.302
10322SOL    HW242621   3.644   4.427   4.435
10323SOL     OW42622   4.943   8.299   5.531
10323SOL    HW142623   5.028   8.306   5.582
10323SOL    HW242624   4.882   8.235   5.577
10324SOL     OW42625   0.403   4.618   2.791
10324SOL    HW142626   0.429   4.680   2.717
10324SOL    HW242627   0.304   4.604   2.789
10325SOL     OW42628   2.695   4.484   5.298
10325SOL    HW142629   2.667   4.482   5.394
10325SOL    HW242630   2.777   4.540   5.288
10326SOL     OW42631   4.922   1.053   7.505
10326SOL    HW142632   4.876   1.077   7.591
10326SOL    HW242633   4.992   1.122   7.484
10327SOL     OW42634   4.776   2.232   7.744
10327SOL    HW142635   4.778   2.221   7.844
10327SOL    HW242636   4.836   2.164   7.702
10328SOL     OW42637   1.024   4.072   6.548
10328SOL    HW142638   1.118   4.103   6.561
10328SOL    HW242639   0.981   4.126   6.475
10329SOL     OW42640   9.117   3.434   3.059
10329SOL    HW142641   9.029   3.426   3.013
10329SOL    HW242642   9.154   3.343   3.076
10330SOL     OW42643   2.730   3.155   4.812
10330SOL    HW142644   2.777   3.231   4.858
10330SOL    HW242645   2.796   3.105   4.756
10331SOL     OW42646   1.454   4.785   5.292
10331SOL    HW142647   1.410   4.841   5.222
10331SOL    HW242648   1.553   4.789   5.281
10332SOL     OW42649   8.929   1.327   7.791
10332SOL    HW142650   8.891   1.384   7.719
10332SOL    HW242651   8.860   1.262   7.822
10333SOL     OW42652   5.426   4.886   0.321
10333SOL    HW142653   5.476   4.925   0.245
10333SOL    HW242654   5.426   4.786   0.314
10334SOL     OW42655   3.931   0.208   0.486
10334SOL    HW142656   3.898   0.301   0.471
10334SOL    HW242657   4.030   0.205   0.473
10335SOL     OW42658   7.152   6.335   1.576
10335SOL    HW142659   7.194   6.418   1.539
10335SOL    HW242660   7.109   6.283   1.503
10336SOL     OW42661   7.785   1.802   1.532
10336SOL    HW142662   7.772   1.703   1.526
10336SOL    HW242663   7.697   1.847   1.544
10337SOL     OW42664   2.801   2.357   1.865
10337SOL    HW142665   2.727   2.298   1.832
10337SOL    HW242666   2.880   2.349   1.805
10338SOL     OW42667   4.672   0.356   0.148
10338SOL    HW142668   4.721   0.391   0.068
10338SOL    HW242669   4.638   0.264   0.129
10339SOL     OW42670   4.757   3.549   6.915
10339SOL    HW142671   4.797   3.639   6.931
10339SOL    HW242672   4.790   3.513   6.828
10340SOL     OW42673   7.539   1.643   3.891
10340SOL    HW142674   7.439   1.642   3.892
10340SOL    HW242675   7.574   1.557   3.929
10341SOL     OW42676   0.591   1.527   0.060
10341SOL    HW142677   0.539   1.443   0.079
10341SOL    HW242678   0.687   1.512   0.081
10342SOL     OW42679   2.949   2.496   7.394
10342SOL    HW142680   2.925   2.567   7.328
10342SOL    HW242681   3.026   2.443   7.359
10343SOL     OW42682   2.416   7.034   7.828
10343SOL    HW142683   2.408   7.053   7.926
10343SOL    HW242684   2.328   7.052   7.784
10344SOL     OW42685   8.036   7.403   1.140
10344SOL    HW142686   7.949   7.450   1.159
10344SOL    HW242687   8.087   7.454   1.070
10345SOL     OW42688   1.392   2.459   3.539
10345SOL    HW142689   1.433   2.370   3.557
10345SOL    HW242690   1.376   2.506   3.626
10346SOL     OW42691   7.056   7.209   3.132
10346SOL    HW142692   7.017   7.238   3.219
10346SOL    HW242693   7.155   7.227   3.132
10347SOL     OW42694   9.874   2.258   3.259
10347SOL    HW142695   9.828   2.338   3.298
10347SOL    HW242696   9.921   2.207   3.332
10348SOL     OW42697   3.707   6.759   0.519
10348SOL    HW142698   3.747   6.822   0.586
10348SOL    HW242699   3.753   6.670   0.524
10349SOL     OW42700   2.929   5.922   7.050
10349SOL    HW142701   2.878   6.007   7.032
10349SOL    HW242702   2.864   5.848   7.069
10350SOL     OW42703   2.682   7.978   0.545
10350SOL    HW142704   2.660   8.043   0.618
10350SOL    HW242705   2.617   7.988   0.470
10351SOL     OW42706   1.975   4.570   4.035
10351SOL    HW142707   1.983   4.472   4.052
10351SOL    HW242708   2.026   4.620   4.105
10352SOL     OW42709   2.318   9.844   3.957
10352SOL    HW142710   2.295   9.907   4.031
10352SOL    HW242711   2.239   9.786   3.937
10353SOL     OW42712   4.601   9.120   2.803
10353SOL    HW142713   4.590   9.190   2.733
10353SOL    HW242714   4.670   9.149   2.869
10354SOL     OW42715   2.060   4.064   2.659
10354SOL    HW142716   2.047   4.034   2.754
10354SOL    HW242717   1.981   4.118   2.631
10355SOL     OW42718   8.429   4.217   3.647
10355SOL    HW142719   8.413   4.315   3.644
10355SOL    HW242720   8.429   4.180   3.554
10356SOL     OW42721   3.812   5.996   3.633
10356SOL    HW142722   3.883   6.029   3.695
10356SOL    HW242723   3.815   6.049   3.548
10357SOL     OW42724   3.385   5.616   2.613
10357SOL    HW142725   3.376   5.517   2.600
10357SOL    HW242726   3.374   5.662   2.525
10358SOL     OW42727   2.806   2.759   5.507
10358SOL    HW142728   2.828   2.730   5.600
10358SOL    HW242729   2.815   2.681   5.445
10359SOL     OW42730   0.670   4.394   1.303
10359SOL    HW142731   0.630   4.365   1.215
10359SOL    HW242732   0.602   4.382   1.375
10360SOL     OW42733   4.045   5.492   7.854
10360SOL    HW142734   3.961   5.538   7.884
10360SOL    HW242735   4.023   5.400   7.821
10361SOL     OW42736   4.603   6.840   2.535
10361SOL    HW142737   4.648   6.925   2.562
10361SOL    HW242738   4.671   6.779   2.493
10362SOL     OW42739   7.582   5.314   2.136
10362SOL    HW142740   7.536   5.402   2.126
10362SOL    HW242741   7.681   5.329   2.136
10363SOL     OW42742   9.443   0.047   1.105
10363SOL    HW142743   9.468   0.144   1.105
10363SOL    HW242744   9.525   9.991   1.119
10364SOL     OW42745   9.623   1.570   6.973
10364SOL    HW142746   9.587   1.478   6.993
10364SOL    HW242747   9.712   1.581   7.016
10365SOL     OW42748   2.336   2.397   0.944
10365SOL    HW142749   2.399   2.475   0.947
10365SOL    HW242750   2.386   2.313   0.966
10366SOL     OW42751   6.311   5.875   1.291
10366SOL    HW142752   6.339   5.883   1.195
10366SOL    HW242753   6.372   5.929   1.349
10367SOL     OW42754   0.815   3.955   6.283
10367SOL    HW142755   0.837   4.049   6.310
10367SOL    HW242756   0.825   3.895   6.362
10368SOL     OW42757   8.516   7.525   7.418
10368SOL    HW142758   8.452   7.589   7.377
10368SOL    HW242759   8.606   7.535   7.375
10369SOL     OW42760   8.561   3.041   7.581
10369SOL    HW142761   8.624   2.973   7.542
10369SOL    HW242762   8.597   3.133   7.563
10370SOL     OW42763   7.811   8.567   5.019
10370SOL    HW142764   7.894   8.514   5.033
10370SOL    HW242765   7.834   8.658   4.983
10371SOL     OW42766   6.832   2.006   3.892
10371SOL    HW142767   6.815   1.918   3.937
10371SOL    HW242768   6.762   2.023   3.823
10372SOL     OW42769   7.676   3.828   5.307
10372SOL    HW142770   7.755   3.775   5.337
10372SOL    HW242771   7.656   3.808   5.211
10373SOL     OW42772   9.408   0.229   4.034
10373SOL    HW142773   9.443   0.143   4.068
10373SOL    HW242774   9.344   0.268   4.101
10374SOL     OW42775   7.177   4.709   0.883
10374SOL    HW142776   7.156   4.804   0.907
10374SOL    HW242777   7.129   4.648   0.946
10375SOL     OW42778   7.193   6.138   0.471
10375SOL    HW142779   7.181   6.045   0.434
10375SOL    HW242780   7.117   6.159   0.532
10376SOL     OW42781   0.052   1.560   3.620
10376SOL    HW142782   9.970   1.523   3.663
10376SOL    HW242783   0.102   1.616   3.687
10377SOL     OW42784   0.252   6.094   0.801
10377SOL    HW142785   0.178   6.093   0.734
10377SOL    HW242786   0.267   6.001   0.835
10378SOL     OW42787   2.680   3.254   2.776
10378SOL    HW142788   2.760   3.278   2.831
10378SOL    HW242789   2.657   3.331   2.716
10379SOL     OW42790   5.221   0.465   5.491
10379SOL    HW142791   5.182   0.517   5.568
10379SOL    HW242792   5.148   0.424   5.438
10380SOL     OW42793   8.511   9.857   0.840
10380SOL    HW142794   8.577   9.782   0.842
10380SOL    HW242795   8.499   9.889   0.747
10381SOL     OW42796   2.642   8.181   3.401
10381SOL    HW142797   2.549   8.145   3.409
10381SOL    HW242798   2.644   8.258   3.339
10382SOL     OW42799   0.699   7.168   2.018
10382SOL    HW142800   0.721   7.199   2.111
10382SOL    HW242801   0.661   7.244   1.965
10383SOL     OW42802   9.680   4.970   4.614
10383SOL    HW142803   9.722   5.015   4.692
10383SOL    HW242804   9.615   4.901   4.646
10384SOL     OW42805   8.437   4.445   4.149
10384SOL    HW142806   8.506   4.373   4.153
10384SOL    HW242807   8.346   4.403   4.154
10385SOL     OW42808   4.174   6.060   4.240
10385SOL    HW142809   4.079   6.085   4.254
10385SOL    HW242810   4.179   5.966   4.207
10386SOL     OW42811   1.222   5.067   7.518
10386SOL    HW142812   1.291   5.112   7.574
10386SOL    HW242813   1.251   5.066   7.422
10387SOL     OW42814   2.357   3.661   2.068
10387SOL    HW142815   2.384   3.711   2.150
10387SOL    HW242816   2.359   3.563   2.087
10388SOL     OW42817   5.167   9.386   7.349
10388SOL    HW142818   5.080   9.346   7.321
10388SOL    HW242819   5.240   9.350   7.292
10389SOL     OW42820   1.675   8.179   1.759
10389SOL    HW142821   1.655   8.092   1.714
10389SOL    HW242822   1.606   8.246   1.734
10390SOL     OW42823   0.505   3.206   3.439
10390SOL    HW142824   0.578   3.139   3.453
10390SOL    HW242825   0.516   3.281   3.504
10391SOL     OW42826   2.515   9.654   6.861
10391SOL    HW142827   2.603   9.653   6.909
10391SOL    HW242828   2.447   9.700   6.918
10392SOL     OW42829   3.362   5.662   1.582
10392SOL    HW142830   3.319   5.662   1.672
10392SOL    HW242831   3.378   5.757   1.554
10393SOL     OW42832   8.208   4.782   3.605
10393SOL    HW142833   8.157   4.864   3.631
10393SOL    HW242834   8.229   4.785   3.507
10394SOL     OW42835   4.519   4.753   3.157
10394SOL    HW142836   4.551   4.698   3.080
10394SOL    HW242837   4.419   4.749   3.161
10395SOL     OW42838   3.962   4.063   3.964
10395SOL    HW142839   3.936   4.131   4.033
10395SOL    HW242840   3.903   4.073   3.884
10396SOL     OW42841   4.407   6.141   2.425
10396SOL    HW142842   4.445   6.127   2.516
10396SOL    HW242843   4.381   6.053   2.386
10397SOL     OW42844   7.497   6.335   1.302
10397SOL    HW142845   7.564   6.294   1.239
10397SOL    HW242846   7.545   6.377   1.379
10398SOL     OW42847   6.049   2.665   2.021
10398SOL    HW142848   6.031   2.628   1.929
10398SOL    HW242849   6.124   2.614   2.063
10399SOL     OW42850   8.313   5.735   6.370
10399SOL    HW142851   8.384   5.696   6.312
10399SOL    HW242852   8.351   5.810   6.424
10400SOL     OW42853   4.020   2.757   1.707
10400SOL    HW142854   4.099   2.725   1.654
10400SOL    HW242855   4.003   2.692   1.782
10401SOL     OW42856   6.560   1.049   4.080
10401SOL    HW142857   6.624   1.063   4.157
10401SOL    HW242858   6.488   1.118   4.084
10402SOL     OW42859   1.400   8.184   7.009
10402SOL    HW142860   1.355   8.245   7.074
10402SOL    HW242861   1.360   8.195   6.918
10403SOL     OW42862   5.199   7.849   1.122
10403SOL    HW142863   5.136   7.920   1.091
10403SOL    HW242864   5.207   7.852   1.221
10404SOL     OW42865   7.066   3.781   3.414
10404SOL    HW142866   7.022   3.720   3.480
10404SOL    HW242867   7.111   3.727   3.343
10405SOL     OW42868   0.338   4.839   5.573
10405SOL    HW142869   0.388   4.818   5.489
10405SOL    HW242870   0.355   4.768   5.640
10406SOL     OW42871   7.479   5.582   2.092
10406SOL    HW142872   7.515   5.572   1.999
10406SOL    HW242873   7.532   5.650   2.141
10407SOL     OW42874   4.150   5.096   1.480
10407SOL    HW142875   4.077   5.125   1.419
10407SOL    HW242876   4.155   4.996   1.481
10408SOL     OW42877   7.889   5.105   5.356
10408SOL    HW142878   7.833   5.024   5.377
10408SOL    HW242879   7.877   5.173   5.429
10409SOL     OW42880   4.426   4.619   1.517
10409SOL    HW142881   4.338   4.667   1.510
10409SOL    HW242882   4.417   4.529   1.476
10410SOL     OW42883   7.365   7.338   5.089
10410SOL    HW142884   7.315   7.368   5.170
10410SOL    HW242885   7.456   7.306   5.115
10411SOL     OW42886   6.521   0.591   5.703
10411SOL    HW142887   6.545   0.526   5.631
10411SOL    HW242888   6.546   0.553   5.792
10412SOL     OW42889   2.589   0.050   6.721
10412SOL    HW142890   2.656   9.986   6.760
10412SOL    HW242891   2.503   0.001   6.705
10413SOL     OW42892   0.735   9.827   3.492
10413SOL    HW142893   0.693   9.904   3.540
10413SOL    HW242894   0.664   9.765   3.460
10414SOL     OW42895   7.609   5.619   0.376
10414SOL    HW142896   7.607   5.711   0.415
10414SOL    HW242897   7.677   5.616   0.303
10415SOL     OW42898   1.561   1.496   1.610
10415SOL    HW142899   1.554   1.408   1.563
10415SOL    HW242900   1.600   1.564   1.548
10416SOL     OW42901   4.377   9.280   2.380
10416SOL    HW142902   4.310   9.351   2.396
10416SOL    HW242903   4.331   9.196   2.349
10417SOL     OW42904   8.752   7.091   6.217
10417SOL    HW142905   8.769   7.010   6.273
10417SOL    HW242906   8.783   7.172   6.266
10418SOL     OW42907   2.076   2.907   6.413
10418SOL    HW142908   1.993   2.928   6.362
10418SOL    HW242909   2.137   2.852   6.356
10419SOL     OW42910   8.479   8.882   4.153
10419SOL    HW142911   8.543   8.881   4.076
10419SOL    HW242912   8.449   8.789   4.172
10420SOL     OW42913   1.335   0.194   6.990
10420SOL    HW142914   1.264   0.233   7.049
10420SOL    HW242915   1.302   0.192   6.895
10421SOL     OW42916   2.287   4.438   3.368
10421SOL    HW142917   2.217   4.479   3.309
10421SOL    HW242918   2.374   4.485   3.356
10422SOL     OW42919   1.631   9.491   0.478
10422SOL    HW142920   1.634   9.590   0.467
10422SOL    HW242921   1.643   9.447   0.389
10423SOL     OW42922   6.838   7.453   5.446
10423SOL    HW142923   6.831   7.400   5.361
10423SOL    HW242924   6.836   7.551   5.424
10424SOL     OW42925   8.487   6.227   7.351
10424SOL    HW142926   8.561   6.179   7.397
10424SOL    HW242927   8.423   6.161   7.313
10425SOL     OW42928   9.106   7.274   5.018
10425SOL    HW142929   9.015   7.290   5.054
10425SOL    HW242930   9.099   7.231   4.928
10426SOL     OW42931   1.537   0.101   2.259
10426SOL    HW142932   1.539   0.001   2.263
10426SOL    HW242933   1.576   0.138   2.344
10427SOL     OW42934   1.740   2.166   5.803
10427SOL    HW142935   1.712   2.102   5.874
10427SOL    HW242936   1.833   2.197   5.821
10428SOL     OW42937   2.731   3.747   5.047
10428SOL    HW142938   2.777   3.788   5.126
10428SOL    HW242939   2.789   3.756   4.966
10429SOL     OW42940   9.662   7.831   7.183
10429SOL    HW142941   9.676   7.762   7.111
10429SOL    HW242942   9.578   7.881   7.165
10430SOL     OW42943   7.407   9.612   4.084
10430SOL    HW142944   7.348   9.647   4.012
10430SOL    HW242945   7.442   9.522   4.059
10431SOL     OW42946   1.729   2.402   2.169
10431SOL    HW142947   1.798   2.474   2.174
10431SOL    HW242948   1.772   2.312   2.180
10432SOL     OW42949   7.066   4.704   7.345
10432SOL    HW142950   7.137   4.673   7.409
10432SOL    HW242951   6.979   4.661   7.370
10433SOL     OW42952   8.255   6.554   4.758
10433SOL    HW142953   8.277   6.564   4.661
10433SOL    HW242954   8.295   6.470   4.792
10434SOL     OW42955   4.381   8.204   2.235
10434SOL    HW142956   4.381   8.301   2.209
10434SOL    HW242957   4.308   8.156   2.186
10435SOL     OW42958   8.257   4.980   4.083
10435SOL    HW142959   8.210   4.900   4.047
10435SOL    HW242960   8.203   5.062   4.063
10436SOL     OW42961   4.461   2.075   6.084
10436SOL    HW142962   4.471   1.987   6.038
10436SOL    HW242963   4.365   2.093   6.102
10437SOL     OW42964   9.542   9.897   3.421
10437SOL    HW142965   9.615   9.835   3.393
10437SOL    HW242966   9.582   9.986   3.446
10438SOL     OW42967   0.164   3.173   1.531
10438SOL    HW142968   0.073   3.212   1.517
10438SOL    HW242969   0.186   3.113   1.454
10439SOL     OW42970   8.933   6.230   6.493
10439SOL    HW142971   8.912   6.241   6.396
10439SOL    HW242972   8.865   6.170   6.535
10440SOL     OW42973   1.386   0.339   2.223
10440SOL    HW142974   1.434   0.252   2.237
10440SOL    HW242975   1.367   0.381   2.312
10441SOL     OW42976   7.341   4.140   3.625
10441SOL    HW142977   7.411   4.141   3.696
10441SOL    HW242978   7.261   4.190   3.657
10442SOL     OW42979   9.698   3.935   2.483
10442SOL    HW142980   9.738   4.026   2.474
10442SOL    HW242981   9.750   3.869   2.428
10443SOL     OW42982   2.525   4.562   3.317
10443SOL    HW142983   2.593   4.520   3.378
10443SOL    HW242984   2.554   4.551   3.222
10444SOL     OW42985   6.837   2.866   1.752
10444SOL    HW142986   6.858   2.909   1.840
10444SOL    HW242987   6.772   2.923   1.702
10445SOL     OW42988   0.576   0.712   6.476
10445SOL    HW142989   0.545   0.692   6.383
10445SOL    HW242990   0.571   0.630   6.532
10446SOL     OW42991   2.164   0.970   2.264
10446SOL    HW142992   2.116   0.937   2.182
10446SOL    HW242993   2.154   1.069   2.271
10447SOL     OW42994   1.351   2.334   7.795
10447SOL    HW142995   1.350   2.361   7.699
10447SOL    HW242996   1.282   2.264   7.811
10448SOL     OW42997   8.018   7.640   4.004
10448SOL    HW142998   8.060   7.679   4.086
10448SOL    HW242999   8.022   7.707   3.930
10449SOL     OW43000   4.754   4.142   5.210
10449SOL    HW143001   4.802   4.212   5.263
10449SOL    HW243002   4.705   4.081   5.271
10450SOL     OW43003   3.848   0.566   5.954
10450SOL    HW143004   3.767   0.622   5.971
10450SOL    HW243005   3.914   0.579   6.028
10451SOL     OW43006   5.916   5.792   0.907
10451SOL    HW143007   5.876   5.702   0.892
10451SOL    HW243008   6.014   5.789   0.889
10452SOL     OW43009   0.678   5.039   0.692
10452SOL    HW143010   0.639   5.047   0.784
10452SOL    HW243011   0.636   4.960   0.646
10453SOL     OW43012   9.115   5.025   0.700
10453SOL    HW143013   9.204   5.016   0.744
10453SOL    HW243014   9.119   5.096   0.630
10454SOL     OW43015   2.939   0.877   2.705
10454SOL    HW143016   2.930   0.960   2.650
10454SOL    HW243017   2.871   0.809   2.674
10455SOL     OW43018   4.481   2.036   0.359
10455SOL    HW143019   4.398   1.985   0.338
10455SOL    HW243020   4.458   2.130   0.384
10456SOL     OW43021   3.068   3.789   3.362
10456SOL    HW143022   3.030   3.788   3.454
10456SOL    HW243023   3.136   3.862   3.354
10457SOL     OW43024   3.497   0.152   3.880
10457SOL    HW143025   3.417   0.109   3.839
10457SOL    HW243026   3.515   0.112   3.970
10458SOL     OW43027   1.332   1.229   1.777
10458SOL    HW143028   1.300   1.297   1.712
10458SOL    HW243029   1.394   1.272   1.843
10459SOL     OW43030   8.881   4.370   4.846
10459SOL    HW143031   8.827   4.286   4.848
10459SOL    HW243032   8.821   4.449   4.861
10460SOL     OW43033   2.724   6.194   4.195
10460SOL    HW143034   2.742   6.130   4.120
10460SOL    HW243035   2.647   6.162   4.249
10461SOL     OW43036   3.799   9.862   6.910
10461SOL    HW143037   3.875   9.920   6.881
10461SOL    HW243038   3.808   9.772   6.868
10462SOL     OW43039   0.529   6.651   2.669
10462SOL    HW143040   0.451   6.591   2.650
10462SOL    HW243041   0.532   6.672   2.767
10463SOL     OW43042   0.075   8.869   5.178
10463SOL    HW143043   0.047   8.790   5.124
10463SOL    HW243044   0.033   8.863   5.269
10464SOL     OW43045   3.351   0.097   7.735
10464SOL    HW143046   3.276   0.152   7.699
10464SOL    HW243047   3.314   0.019   7.786
10465SOL     OW43048   7.304   1.921   4.921
10465SOL    HW143049   7.277   1.855   4.991
10465SOL    HW243050   7.277   2.013   4.950
10466SOL     OW43051   9.888   9.877   0.734
10466SOL    HW143052   9.986   9.865   0.753
10466SOL    HW243053   9.867   9.837   0.645
10467SOL     OW43054   0.546   5.326   4.670
10467SOL    HW143055   0.545   5.377   4.585
10467SOL    HW243056   0.482   5.367   4.735
10468SOL     OW43057   3.937   7.155   4.636
10468SOL    HW143058   4.001   7.154   4.559
10468SOL    HW243059   3.861   7.092   4.618
10469SOL     OW43060   9.065   9.644   6.844
10469SOL    HW143061   9.089   9.584   6.920
10469SOL    HW243062   9.124   9.623   6.766
10470SOL     OW43063   2.207   3.573   4.409
10470SOL    HW143064   2.159   3.505   4.353
10470SOL    HW243065   2.272   3.526   4.470
10471SOL     OW43066   5.790   5.164   0.177
10471SOL    HW143067   5.707   5.115   0.150
10471SOL    HW243068   5.832   5.117   0.255
10472SOL     OW43069   9.157   5.217   0.504
10472SOL    HW143070   9.218   5.169   0.440
10472SOL    HW243071   9.085   5.263   0.452
10473SOL     OW43072   7.810   6.900   1.112
10473SOL    HW143073   7.871   6.978   1.110
10473SOL    HW243074   7.763   6.895   1.200
10474SOL     OW43075   0.595   1.468   5.166
10474SOL    HW143076   0.612   1.542   5.100
10474SOL    HW243077   0.666   1.469   5.236
10475SOL     OW43078   8.476   1.150   6.143
10475SOL    HW143079   8.412   1.089   6.190
10475SOL    HW243080   8.530   1.098   6.077
10476SOL     OW43081   0.996   3.939   2.514
10476SOL    HW143082   1.017   3.984   2.600
10476SOL    HW243083   0.983   4.008   2.442
10477SOL     OW43084   1.113   2.073   3.970
10477SOL    HW143085   1.168   2.141   3.921
10477SOL    HW243086   1.137   2.075   4.067
10478SOL     OW43087   8.460   5.185   7.152
10478SOL    HW143088   8.506   5.250   7.090
10478SOL    HW243089   8.520   5.107   7.169
10479SOL     OW43090   8.339   6.247   5.892
10479SOL    HW143091   8.296   6.162   5.921
10479SOL    HW243092   8.382   6.291   5.971
10480SOL     OW43093   0.312   8.391   6.074
10480SOL    HW143094   0.257   8.367   5.994
10480SOL    HW243095   0.408   8.398   6.047
10481SOL     OW43096   9.500   3.820   2.149
10481SOL    HW143097   9.437   3.782   2.081
10481SOL    HW243098   9.555   3.747   2.188
10482SOL     OW43099   4.423   8.146   4.238
10482SOL    HW143100   4.492   8.098   4.292
10482SOL    HW243101   4.359   8.080   4.199
10483SOL     OW43102   0.249   3.665   7.263
10483SOL    HW143103   0.208   3.646   7.353
10483SOL    HW243104   0.201   3.612   7.193
10484SOL     OW43105   8.097   1.357   4.453
10484SOL    HW143106   8.146   1.441   4.429
10484SOL    HW243107   8.096   1.295   4.374
10485SOL     OW43108   4.518   5.672   3.174
10485SOL    HW143109   4.467   5.718   3.246
10485SOL    HW243110   4.476   5.583   3.155
10486SOL     OW43111   3.709   1.855   7.739
10486SOL    HW143112   3.785   1.790   7.741
10486SOL    HW243113   3.647   1.835   7.815
10487SOL     OW43114   0.348   5.528   2.752
10487SOL    HW143115   0.301   5.531   2.663
10487SOL    HW243116   0.302   5.590   2.815
10488SOL     OW43117   7.251   4.495   3.243
10488SOL    HW143118   7.346   4.477   3.268
10488SOL    HW243119   7.235   4.593   3.239
10489SOL     OW43120   6.382   0.141   6.214
10489SOL    HW143121   6.472   0.115   6.250
10489SOL    HW243122   6.369   0.240   6.223
10490SOL     OW43123   2.422   8.104   7.642
10490SOL    HW143124   2.405   8.119   7.740
10490SOL    HW243125   2.520   8.109   7.624
10491SOL     OW43126   0.010   2.067   7.741
10491SOL    HW143127   0.083   2.012   7.701
10491SOL    HW243128   9.936   2.007   7.771
10492SOL     OW43129   2.006   1.631   3.066
10492SOL    HW143130   2.072   1.625   3.141
10492SOL    HW243131   1.924   1.580   3.090
10493SOL     OW43132   0.521   6.531   5.686
10493SOL    HW143133   0.610   6.501   5.652
10493SOL    HW243134   0.500   6.621   5.649
10494SOL     OW43135   8.164   8.983   4.594
10494SOL    HW143136   8.091   8.918   4.613
10494SOL    HW243137   8.127   9.076   4.595
10495SOL     OW43138   8.515   4.917   4.113
10495SOL    HW143139   8.547   4.881   4.025
10495SOL    HW243140   8.419   4.943   4.105
10496SOL     OW43141   9.200   7.897   2.562
10496SOL    HW143142   9.291   7.937   2.558
10496SOL    HW243143   9.188   7.849   2.649
10497SOL     OW43144   5.631   7.930   4.058
10497SOL    HW143145   5.563   8.003   4.049
10497SOL    HW243146   5.625   7.868   3.980
10498SOL     OW43147   9.464   1.482   1.576
10498SOL    HW143148   9.385   1.543   1.573
10498SOL    HW243149   9.434   1.388   1.560
10499SOL     OW43150   9.733   7.930   4.833
10499SOL    HW143151   9.751   7.981   4.917
10499SOL    HW243152   9.722   7.833   4.854
10500SOL     OW43153   6.264   0.495   2.841
10500SOL    HW143154   6.182   0.517   2.788
10500SOL    HW243155   6.253   0.404   2.882
10501SOL     OW43156   5.514   7.669   5.090
10501SOL    HW143157   5.426   7.715   5.087
10501SOL    HW243158   5.553   7.679   5.182
10502SOL     OW43159   7.358   0.072   5.375
10502SOL    HW143160   7.279   0.073   5.436
10502SOL    HW243161   7.439   0.104   5.424
10503SOL     OW43162   2.285   4.972   2.423
10503SOL    HW143163   2.217   4.907   2.390
10503SOL    HW243164   2.364   4.971   2.363
10504SOL     OW43165   0.429   5.436   7.667
10504SOL    HW143166   0.405   5.510   7.604
10504SOL    HW243167   0.504   5.383   7.629
10505SOL     OW43168   9.352   6.104   2.014
10505SOL    HW143169   9.302   6.053   2.084
10505SOL    HW243170   9.352   6.201   2.039
10506SOL     OW43171   4.598   1.329   0.776
10506SOL    HW143172   4.622   1.404   0.716
10506SOL    HW243173   4.571   1.365   0.865
10507SOL     OW43174   7.087   1.150   7.863
10507SOL    HW143175   7.097   1.248   7.875
10507SOL    HW243176   7.177   1.106   7.866
10508SOL     OW43177   0.506   0.091   2.756
10508SOL    HW143178   0.426   0.110   2.813
10508SOL    HW243179   0.537   0.175   2.712
10509SOL     OW43180   7.262   2.679   4.549
10509SOL    HW143181   7.284   2.746   4.479
10509SOL    HW243182   7.343   2.659   4.604
10510SOL     OW43183   3.220   0.554   1.317
10510SOL    HW143184   3.159   0.509   1.382
10510SOL    HW243185   3.166   0.606   1.251
10511SOL     OW43186   8.673   6.383   0.262
10511SOL    HW143187   8.598   6.345   0.315
10511SOL    HW243188   8.748   6.317   0.258
10512SOL     OW43189   3.327   6.226   3.901
10512SOL    HW143190   3.239   6.215   3.947
10512SOL    HW243191   3.393   6.162   3.941
10513SOL     OW43192   1.592   8.024   3.680
10513SOL    HW143193   1.599   7.935   3.637
10513SOL    HW243194   1.608   8.096   3.612
10514SOL     OW43195   0.850   4.217   1.605
10514SOL    HW143196   0.798   4.299   1.629
10514SOL    HW243197   0.853   4.209   1.505
10515SOL     OW43198   8.612   0.072   1.513
10515SOL    HW143199   8.582   0.168   1.516
10515SOL    HW243200   8.581   0.030   1.428
10516SOL     OW43201   9.312   8.938   7.492
10516SOL    HW143202   9.250   8.861   7.503
10516SOL    HW243203   9.311   8.969   7.397
10517SOL     OW43204   4.132   2.939   6.355
10517SOL    HW143205   4.056   3.001   6.373
10517SOL    HW243206   4.101   2.864   6.298
10518SOL     OW43207   9.521   9.745   5.908
10518SOL    HW143208   9.553   9.819   5.968
10518SOL    HW243209   9.441   9.776   5.856
10519SOL     OW43210   2.382   4.485   2.015
10519SOL    HW143211   2.358   4.466   1.920
10519SOL    HW243212   2.474   4.525   2.019
10520SOL     OW43213   3.951   4.425   2.059
10520SOL    HW143214   3.854   4.403   2.045
10520SOL    HW243215   4.007   4.357   2.012
10521SOL     OW43216   8.100   5.113   7.633
10521SOL    HW143217   8.008   5.079   7.652
10521SOL    HW243218   8.145   5.054   7.567
10522SOL     OW43219   4.256   9.677   5.548
10522SOL    HW143220   4.215   9.768   5.541
10522SOL    HW243221   4.355   9.686   5.560
10523SOL     OW43222   8.144   1.388   5.873
10523SOL    HW143223   8.188   1.369   5.960
10523SOL    HW243224   8.156   1.310   5.812
10524SOL     OW43225   0.155   5.747   3.652
10524SOL    HW143226   0.240   5.727   3.701
10524SOL    HW243227   0.090   5.791   3.714
10525SOL     OW43228   0.798   4.255   0.576
10525SOL    HW143229   0.878   4.213   0.619
10525SOL    HW243230   0.764   4.196   0.503
10526SOL     OW43231   8.938   2.778   2.221
10526SOL    HW143232   8.937   2.723   2.137
10526SOL    HW243233   8.858   2.837   2.223
10527SOL     OW43234   8.058   5.406   6.572
10527SOL    HW143235   8.080   5.365   6.483
10527SOL    HW243236   7.984   5.354   6.615
10528SOL     OW43237   9.132   5.582   1.084
10528SOL    HW143238   9.157   5.554   1.177
10528SOL    HW243239   9.055   5.526   1.053
10529SOL     OW43240   6.369   5.880   1.020
10529SOL    HW143241   6.451   5.883   0.962
10529SOL    HW243242   6.295   5.833   0.972
10530SOL     OW43243   5.548   7.482   4.889
10530SOL    HW143244   5.517   7.526   4.973
10530SOL    HW243245   5.605   7.546   4.837
10531SOL     OW43246   6.061   2.427   2.332
10531SOL    HW143247   6.017   2.506   2.375
10531SOL    HW243248   6.097   2.366   2.402
10532SOL     OW43249   1.985   5.283   4.484
10532SOL    HW143250   1.908   5.346   4.489
10532SOL    HW243251   2.058   5.314   4.545
10533SOL     OW43252   4.565   2.745   5.476
10533SOL    HW143253   4.549   2.819   5.542
10533SOL    HW243254   4.486   2.684   5.474
10534SOL     OW43255   0.015   8.022   5.969
10534SOL    HW143256   0.113   8.012   5.990
10534SOL    HW243257   0.004   8.041   5.871
10535SOL     OW43258   7.591   0.413   4.436
10535SOL    HW143259   7.662   0.363   4.485
10535SOL    HW243260   7.545   0.351   4.372
10536SOL     OW43261   6.501   9.662   6.286
10536SOL    HW143262   6.543   9.688   6.200
10536SOL    HW243263   6.490   9.743   6.344
10537SOL     OW43264   0.474   8.998   5.886
10537SOL    HW143265   0.484   8.986   5.985
10537SOL    HW243266   0.446   9.092   5.867
10538SOL     OW43267   2.244   9.043   5.632
10538SOL    HW143268   2.209   8.951   5.613
10538SOL    HW243269   2.226   9.065   5.728
10539SOL     OW43270   8.441   9.109   0.186
10539SOL    HW143271   8.449   9.149   0.278
10539SOL    HW243272   8.411   9.180   0.122
10540SOL     OW43273   7.003   2.739   4.621
10540SOL    HW143274   7.099   2.719   4.602
10540SOL    HW243275   6.945   2.679   4.566
10541SOL     OW43276   7.004   8.748   7.242
10541SOL    HW143277   7.077   8.710   7.185
10541SOL    HW243278   6.918   8.749   7.190
10542SOL     OW43279   5.102   3.663   7.260
10542SOL    HW143280   5.151   3.648   7.175
10542SOL    HW243281   5.049   3.748   7.254
10543SOL     OW43282   8.438   3.968   6.810
10543SOL    HW143283   8.485   3.983   6.897
10543SOL    HW243284   8.442   3.872   6.786
10544SOL     OW43285   9.499   1.901   1.346
10544SOL    HW143286   9.544   1.818   1.382
10544SOL    HW243287   9.492   1.894   1.247
10545SOL     OW43288   4.218   8.848   6.231
10545SOL    HW143289   4.124   8.869   6.202
10545SOL    HW243290   4.277   8.926   6.212
10546SOL     OW43291   3.365   4.308   6.281
10546SOL    HW143292   3.408   4.259   6.356
10546SOL    HW243293   3.305   4.379   6.317
10547SOL     OW43294   1.280   6.267   5.404
10547SOL    HW143295   1.276   6.331   5.327
10547SOL    HW243296   1.367   6.217   5.401
10548SOL     OW43297   4.056   3.459   1.595
10548SOL    HW143298   3.988   3.529   1.572
10548SOL    HW243299   4.143   3.481   1.552
10549SOL     OW43300   1.892   4.138   5.880
10549SOL    HW143301   1.839   4.215   5.915
10549SOL    HW243302   1.860   4.114   5.789
10550SOL     OW43303   3.115   1.814   2.848
10550SOL    HW143304   3.047   1.818   2.775
10550SOL    HW243305   3.204   1.844   2.813
10551SOL     OW43306   2.340   8.603   7.705
10551SOL    HW143307   2.282   8.546   7.764
10551SOL    HW243308   2.385   8.673   7.760
10552SOL     OW43309   9.604   0.181   7.347
10552SOL    HW143310   9.616   0.116   7.272
10552SOL    HW243311   9.636   0.271   7.318
10553SOL     OW43312   6.492   2.694   0.948
10553SOL    HW143313   6.583   2.734   0.962
10553SOL    HW243314   6.451   2.733   0.865
10554SOL     OW43315   9.591   7.840   3.423
10554SOL    HW143316   9.575   7.832   3.521
10554SOL    HW243317   9.548   7.763   3.375
10555SOL     OW43318   9.840   3.587   0.176
10555SOL    HW143319   9.915   3.615   0.116
10555SOL    HW243320   9.774   3.661   0.184
10556SOL     OW43321   0.113   8.015   4.412
10556SOL    HW143322   0.124   7.962   4.327
10556SOL    HW243323   0.061   7.961   4.478
10557SOL     OW43324   9.528   3.918   5.225
10557SOL    HW143325   9.468   3.839   5.237
10557SOL    HW243326   9.500   3.991   5.288
10558SOL     OW43327   6.480   9.289   5.528
10558SOL    HW143328   6.393   9.248   5.502
10558SOL    HW243329   6.477   9.388   5.509
10559SOL     OW43330   9.991   3.105   2.707
10559SOL    HW143331   9.940   3.020   2.693
10559SOL    HW243332   0.088   3.089   2.690
10560SOL     OW43333   4.670   7.483   2.570
10560SOL    HW143334   4.763   7.462   2.539
10560SOL    HW243335   4.668   7.486   2.670
10561SOL     OW43336   9.800   3.228   6.802
10561SOL    HW143337   9.860   3.295   6.847
10561SOL    HW243338   9.754   3.271   6.724
10562SOL     OW43339   9.710   9.115   2.474
10562SOL    HW143340   9.645   9.062   2.528
10562SOL    HW243341   9.791   9.136   2.529
10563SOL     OW43342   0.716   6.931   4.750
10563SOL    HW143343   0.785   6.989   4.794
10563SOL    HW243344   0.742   6.915   4.655
10564SOL     OW43345   3.211   6.841   6.545
10564SOL    HW143346   3.261   6.777   6.605
10564SOL    HW243347   3.259   6.849   6.458
10565SOL     OW43348   0.160   8.849   7.075
10565SOL    HW143349   0.224   8.873   7.002
10565SOL    HW243350   0.211   8.834   7.160
10566SOL     OW43351   5.387   1.603   1.232
10566SOL    HW143352   5.408   1.693   1.271
10566SOL    HW243353   5.289   1.595   1.219
10567SOL     OW43354   2.737   7.858   3.555
10567SOL    HW143355   2.794   7.940   3.546
10567SOL    HW243356   2.756   7.796   3.479
10568SOL     OW43357   7.080   0.668   2.414
10568SOL    HW143358   7.066   0.606   2.338
10568SOL    HW243359   7.114   0.617   2.493
10569SOL     OW43360   8.934   2.385   2.997
10569SOL    HW143361   8.973   2.310   3.052
10569SOL    HW243362   9.001   2.414   2.929
10570SOL     OW43363   4.516   2.154   7.687
10570SOL    HW143364   4.515   2.054   7.691
10570SOL    HW243365   4.609   2.187   7.699
10571SOL     OW43366   3.083   6.578   1.704
10571SOL    HW143367   3.092   6.535   1.794
10571SOL    HW243368   3.016   6.528   1.649
10572SOL     OW43369   1.891   9.790   6.905
10572SOL    HW143370   1.974   9.753   6.948
10572SOL    HW243371   1.811   9.741   6.940
10573SOL     OW43372   3.440   4.776   4.545
10573SOL    HW143373   3.395   4.827   4.618
10573SOL    HW243374   3.484   4.695   4.583
10574SOL     OW43375   1.397   6.000   0.471
10574SOL    HW143376   1.332   6.031   0.401
10574SOL    HW243377   1.425   5.906   0.450
10575SOL     OW43378   7.913   0.569   5.837
10575SOL    HW143379   7.982   0.497   5.843
10575SOL    HW243380   7.941   0.637   5.769
10576SOL     OW43381   2.079   9.890   0.841
10576SOL    HW143382   2.097   9.988   0.837
10576SOL    HW243383   2.011   9.866   0.772
10577SOL     OW43384   9.625   8.915   5.418
10577SOL    HW143385   9.677   8.845   5.368
10577SOL    HW243386   9.688   8.980   5.459
10578SOL     OW43387   3.081   3.954   7.416
10578SOL    HW143388   3.004   3.957   7.352
10578SOL    HW243389   3.152   4.017   7.386
10579SOL     OW43390   7.394   8.457   3.944
10579SOL    HW143391   7.359   8.382   3.887
10579SOL    HW243392   7.327   8.478   4.015
10580SOL     OW43393   2.080   9.422   4.606
10580SOL    HW143394   2.133   9.373   4.537
10580SOL    HW243395   2.112   9.516   4.612
10581SOL     OW43396   0.839   6.366   6.019
10581SOL    HW143397   0.871   6.403   5.931
10581SOL    HW243398   0.917   6.354   6.081
10582SOL     OW43399   9.642   8.003   1.116
10582SOL    HW143400   9.586   8.021   1.197
10582SOL    HW243401   9.665   7.906   1.112
10583SOL     OW43402   6.624   3.029   2.559
10583SOL    HW143403   6.548   2.966   2.545
10583SOL    HW243404   6.667   3.049   2.471
10584SOL     OW43405   1.635   8.396   6.517
10584SOL    HW143406   1.543   8.361   6.499
10584SOL    HW243407   1.686   8.329   6.570
10585SOL     OW43408   3.582   0.046   4.794
10585SOL    HW143409   3.539   0.019   4.708
10585SOL    HW243410   3.512   0.066   4.862
10586SOL     OW43411   6.027   1.198   6.117
10586SOL    HW143412   6.076   1.151   6.191
10586SOL    HW243413   5.962   1.262   6.156
10587SOL     OW43414   5.323   5.862   1.154
10587SOL    HW143415   5.243   5.804   1.165
10587SOL    HW243416   5.375   5.831   1.074
10588SOL     OW43417   3.126   4.824   1.646
10588SOL    HW143418   3.140   4.760   1.571
10588SOL    HW243419   3.159   4.784   1.731
10589SOL     OW43420   1.697   5.576   4.084
10589SOL    HW143421   1.780   5.583   4.139
10589SOL    HW243422   1.624   5.534   4.139
10590SOL     OW43423   2.989   6.670   7.636
10590SOL    HW143424   3.084   6.666   7.664
10590SOL    HW243425   2.961   6.581   7.599
10591SOL     OW43426   2.545   7.882   3.268
10591SOL    HW143427   2.512   7.906   3.176
10591SOL    HW243428   2.642   7.861   3.263
10592SOL     OW43429   0.556   6.907   7.368
10592SOL    HW143430   0.569   6.946   7.459
10592SOL    HW243431   0.479   6.951   7.323
10593SOL     OW43432   9.668   1.769   7.596
10593SOL    HW143433   9.652   1.681   7.642
10593SOL    HW243434   9.716   1.753   7.510
10594SOL     OW43435   4.169   4.801   0.582
10594SOL    HW143436   4.218   4.860   0.517
10594SOL    HW243437   4.195   4.825   0.675
10595SOL     OW43438   5.031   3.061   5.266
10595SOL    HW143439   5.107   3.049   5.203
10595SOL    HW243440   5.064   3.057   5.360
10596SOL     OW43441   1.912   3.135   4.338
10596SOL    HW143442   1.865   3.048   4.324
10596SOL    HW243443   1.953   3.136   4.430
10597SOL     OW43444   3.378   6.812   4.320
10597SOL    HW143445   3.326   6.885   4.277
10597SOL    HW243446   3.329   6.726   4.311
10598SOL     OW43447   4.053   6.775   1.684
10598SOL    HW143448   4.016   6.796   1.594
10598SOL    HW243449   4.110   6.694   1.680
10599SOL     OW43450   7.443   8.089   7.623
10599SOL    HW143451   7.354   8.046   7.606
10599SOL    HW243452   7.451   8.172   7.568
10600SOL     OW43453   8.666   0.755   5.277
10600SOL    HW143454   8.699   0.681   5.217
10600SOL    HW243455   8.734   0.829   5.278
10601SOL     OW43456   1.559   9.110   3.017
10601SOL    HW143457   1.546   9.059   2.933
10601SOL    HW243458   1.495   9.077   3.087
10602SOL     OW43459   5.323   1.327   4.623
10602SOL    HW143460   5.395   1.393   4.645
10602SOL    HW243461   5.359   1.234   4.633
10603SOL     OW43462   7.621   1.308   1.642
10603SOL    HW143463   7.650   1.226   1.594
10603SOL    HW243464   7.524   1.325   1.623
10604SOL     OW43465   8.437   1.938   1.453
10604SOL    HW143466   8.475   1.931   1.361
10604SOL    HW243467   8.342   1.969   1.448
10605SOL     OW43468   0.063   1.317   5.556
10605SOL    HW143469   9.997   1.270   5.498
10605SOL    HW243470   0.016   1.386   5.612
10606SOL     OW43471   2.134   6.661   7.655
10606SOL    HW143472   2.106   6.601   7.580
10606SOL    HW243473   2.119   6.756   7.629
10607SOL     OW43474   8.399   6.653   5.636
10607SOL    HW143475   8.394   6.554   5.628
10607SOL    HW243476   8.307   6.691   5.647
10608SOL     OW43477   3.666   6.298   1.347
10608SOL    HW143478   3.727   6.282   1.424
10608SOL    HW243479   3.591   6.358   1.376
10609SOL     OW43480   1.592   3.764   1.665
10609SOL    HW143481   1.671   3.824   1.677
10609SOL    HW243482   1.613   3.674   1.701
10610SOL     OW43483   1.358   4.252   5.928
10610SOL    HW143484   1.410   4.310   5.990
10610SOL    HW243485   1.304   4.186   5.981
10611SOL     OW43486   3.268   6.125   3.324
10611SOL    HW143487   3.294   6.029   3.331
10611SOL    HW243488   3.239   6.146   3.231
10612SOL     OW43489   6.315   4.468   1.493
10612SOL    HW143490   6.242   4.467   1.425
10612SOL    HW243491   6.278   4.495   1.582
10613SOL     OW43492   6.789   0.280   3.989
10613SOL    HW143493   6.839   0.310   3.908
10613SOL    HW243494   6.847   0.291   4.070
10614SOL     OW43495   4.794   6.115   1.106
10614SOL    HW143496   4.726   6.116   1.179
10614SOL    HW243497   4.876   6.165   1.136
10615SOL     OW43498   7.349   1.349   1.602
10615SOL    HW143499   7.315   1.336   1.509
10615SOL    HW243500   7.273   1.340   1.667
10616SOL     OW43501   9.956   8.793   7.517
10616SOL    HW143502   9.976   8.877   7.467
10616SOL    HW243503   9.923   8.723   7.453
10617SOL     OW43504   7.025   7.530   2.232
10617SOL    HW143505   7.094   7.587   2.276
10617SOL    HW243506   6.972   7.481   2.302
10618SOL     OW43507   9.226   4.967   6.692
10618SOL    HW143508   9.240   4.870   6.676
10618SOL    HW243509   9.311   5.007   6.728
10619SOL     OW43510   9.637   9.440   3.285
10619SOL    HW143511   9.561   9.375   3.277
10619SOL    HW243512   9.694   9.414   3.363
10620SOL     OW43513   9.611   0.952   5.708
10620SOL    HW143514   9.616   0.862   5.750
10620SOL    HW243515   9.544   1.008   5.756
10621SOL     OW43516   4.787   3.378   7.865
10621SOL    HW143517   4.774   3.280   7.876
10621SOL    HW243518   4.885   3.399   7.862
10622SOL     OW43519   0.330   3.298   5.965
10622SOL    HW143520   0.327   3.251   6.053
10622SOL    HW243521   0.273   3.380   5.969
10623SOL     OW43522   8.824   5.305   3.570
10623SOL    HW143523   8.808   5.317   3.472
10623SOL    HW243524   8.922   5.305   3.588
10624SOL     OW43525   9.839   0.895   6.742
10624SOL    HW143526   9.895   0.871   6.664
10624SOL    HW243527   9.801   0.987   6.729
10625SOL     OW43528   5.739   2.803   1.090
10625SOL    HW143529   5.816   2.820   1.152
10625SOL    HW243530   5.727   2.882   1.030
10626SOL     OW43531   8.653   8.186   1.639
10626SOL    HW143532   8.637   8.250   1.564
10626SOL    HW243533   8.718   8.116   1.609
10627SOL     OW43534   9.298   2.091   7.449
10627SOL    HW143535   9.384   2.053   7.483
10627SOL    HW243536   9.309   2.115   7.352
10628SOL     OW43537   6.086   0.482   3.188
10628SOL    HW143538   6.179   0.471   3.152
10628SOL    HW243539   6.024   0.504   3.113
10629SOL     OW43540   8.399   4.383   3.227
10629SOL    HW143541   8.475   4.397   3.291
10629SOL    HW243542   8.415   4.435   3.144
10630SOL     OW43543   2.043   4.689   6.999
10630SOL    HW143544   2.080   4.600   7.024
10630SOL    HW243545   1.998   4.730   7.078
10631SOL     OW43546   4.457   8.335   3.551
10631SOL    HW143547   4.549   8.330   3.591
10631SOL    HW243548   4.392   8.291   3.612
10632SOL     OW43549   3.474   4.182   6.508
10632SOL    HW143550   3.420   4.098   6.512
10632SOL    HW243551   3.464   4.232   6.594
10633SOL     OW43552   7.642   8.518   2.344
10633SOL    HW143553   7.721   8.553   2.394
10633SOL    HW243554   7.673   8.451   2.276
10634SOL     OW43555   1.679   1.992   7.753
10634SOL    HW143556   1.625   1.918   7.793
10634SOL    HW243557   1.652   2.079   7.795
10635SOL     OW43558   2.073   9.779   2.958
10635SOL    HW143559   2.142   9.786   3.030
10635SOL    HW243560   2.101   9.835   2.880
10636SOL     OW43561   3.391   8.232   6.584
10636SOL    HW143562   3.308   8.286   6.599
10636SOL    HW243563   3.468   8.275   6.630
10637SOL     OW43564   3.112   9.663   6.734
10637SOL    HW143565   3.102   9.701   6.826
10637SOL    HW243566   3.064   9.721   6.668
10638SOL     OW43567   9.955   1.139   2.638
10638SOL    HW143568   9.915   1.053   2.608
10638SOL    HW243569   9.932   1.155   2.734
10639SOL     OW43570   3.048   7.617   2.961
10639SOL    HW143571   3.110   7.599   3.037
10639SOL    HW243572   2.954   7.612   2.993
10640SOL     OW43573   9.748   3.573   1.167
10640SOL    HW143574   9.709   3.625   1.091
10640SOL    HW243575   9.798   3.634   1.227
10641SOL     OW43576   1.203   5.934   3.479
10641SOL    HW143577   1.220   5.844   3.440
10641SOL    HW243578   1.237   5.937   3.573
10642SOL     OW43579   2.442   6.759   4.629
10642SOL    HW143580   2.428   6.719   4.720
10642SOL    HW243581   2.524   6.720   4.588
10643SOL     OW43582   0.300   2.003   0.903
10643SOL    HW143583   0.232   2.062   0.859
10643SOL    HW243584   0.338   2.050   0.982
10644SOL     OW43585   6.649   1.945   5.755
10644SOL    HW143586   6.729   1.975   5.807
10644SOL    HW243587   6.593   2.024   5.731
10645SOL     OW43588   0.304   3.724   5.302
10645SOL    HW143589   0.222   3.773   5.270
10645SOL    HW243590   0.290   3.696   5.397
10646SOL     OW43591   4.435   0.505   3.541
10646SOL    HW143592   4.456   0.466   3.631
10646SOL    HW243593   4.415   0.602   3.550
10647SOL     OW43594   9.380   4.429   0.469
10647SOL    HW143595   9.390   4.520   0.428
10647SOL    HW243596   9.299   4.428   0.527
10648SOL     OW43597   3.905   5.649   5.515
10648SOL    HW143598   3.931   5.564   5.469
10648SOL    HW243599   3.952   5.654   5.603
10649SOL     OW43600   9.241   4.442   3.923
10649SOL    HW143601   9.241   4.398   3.834
10649SOL    HW243602   9.262   4.374   3.994
10650SOL     OW43603   3.014   4.030   1.223
10650SOL    HW143604   2.924   4.031   1.265
10650SOL    HW243605   3.005   4.044   1.124
10651SOL     OW43606   0.648   4.905   6.858
10651SOL    HW143607   0.623   4.978   6.922
10651SOL    HW243608   0.642   4.938   6.764
10652SOL     OW43609   2.512   5.848   4.684
10652SOL    HW143610   2.500   5.750   4.669
10652SOL    HW243611   2.570   5.886   4.612
10653SOL     OW43612   9.536   7.372   7.330
10653SOL    HW143613   9.514   7.360   7.427
10653SOL    HW243614   9.472   7.437   7.289
10654SOL     OW43615   4.991   8.159   2.454
10654SOL    HW143616   4.945   8.120   2.375
10654SOL    HW243617   5.087   8.129   2.456
10655SOL     OW43618   3.324   4.428   4.099
10655SOL    HW143619   3.368   4.355   4.048
10655SOL    HW243620   3.243   4.459   4.050
10656SOL     OW43621   7.826   9.276   6.111
10656SOL    HW143622   7.873   9.189   6.105
10656SOL    HW243623   7.892   9.351   6.107
10657SOL     OW43624   0.668   2.632   1.632
10657SOL    HW143625   0.741   2.698   1.651
10657SOL    HW243626   0.702   2.540   1.649
10658SOL     OW43627   0.906   5.432   0.665
10658SOL    HW143628   0.830   5.382   0.625
10658SOL    HW243629   0.886   5.530   0.666
10659SOL     OW43630   6.157   9.561   4.922
10659SOL    HW143631   6.176   9.492   4.993
10659SOL    HW243632   6.078   9.616   4.950
10660SOL     OW43633   3.953   9.729   3.756
10660SOL    HW143634   4.026   9.668   3.787
10660SOL    HW243635   3.908   9.769   3.836
10661SOL     OW43636   1.200   3.413   6.861
10661SOL    HW143637   1.154   3.324   6.858
10661SOL    HW243638   1.290   3.401   6.903
10662SOL     OW43639   2.531   6.998   6.387
10662SOL    HW143640   2.593   7.047   6.449
10662SOL    HW243641   2.437   7.025   6.405
10663SOL     OW43642   9.221   5.957   2.214
10663SOL    HW143643   9.271   5.990   2.294
10663SOL    HW243644   9.231   5.857   2.208
10664SOL     OW43645   1.428   2.891   2.537
10664SOL    HW143646   1.475   2.827   2.477
10664SOL    HW243647   1.453   2.873   2.632
10665SOL     OW43648   3.531   7.851   0.253
10665SOL    HW143649   3.631   7.846   0.254
10665SOL    HW243650   3.494   7.789   0.323
10666SOL     OW43651   7.736   5.942   5.106
10666SOL    HW143652   7.741   5.980   5.199
10666SOL    HW243653   7.690   5.853   5.109
10667SOL     OW43654   1.655   8.095   2.849
10667SOL    HW143655   1.632   8.010   2.801
10667SOL    HW243656   1.664   8.077   2.947
10668SOL     OW43657   6.466   4.882   0.056
10668SOL    HW143658   6.480   4.961  10.078
10668SOL    HW243659   6.532   4.811   0.033
10669SOL     OW43660   6.892   0.642   2.036
10669SOL    HW143661   6.938   0.646   1.947
10669SOL    HW243662   6.940   0.578   2.096
10670SOL     OW43663   4.947   8.443   0.959
10670SOL    HW143664   4.861   8.416   1.001
10670SOL    HW243665   5.021   8.385   0.993
10671SOL     OW43666   8.926   8.752   5.235
10671SOL    HW143667   8.951   8.704   5.151
10671SOL    HW243668   8.855   8.700   5.283
10672SOL     OW43669   2.165   3.781   4.013
10672SOL    HW143670   2.090   3.789   4.078
10672SOL    HW243671   2.231   3.854   4.028
10673SOL     OW43672   1.294   7.275   1.156
10673SOL    HW143673   1.314   7.325   1.072
10673SOL    HW243674   1.331   7.324   1.234
10674SOL     OW43675   6.822   6.452   2.085
10674SOL    HW143676   6.789   6.545   2.101
10674SOL    HW243677   6.765   6.387   2.136
10675SOL     OW43678   0.313   1.819   2.223
10675SOL    HW143679   0.233   1.858   2.267
10675SOL    HW243680   0.396   1.853   2.268
10676SOL     OW43681   7.067   9.340   7.779
10676SOL    HW143682   6.990   9.275   7.777
10676SOL    HW243683   7.152   9.290   7.795
10677SOL     OW43684   3.754   5.388   4.710
10677SOL    HW143685   3.666   5.436   4.712
10677SOL    HW243686   3.747   5.309   4.648
10678SOL     OW43687   7.349   0.442   5.453
10678SOL    HW143688   7.296   0.393   5.522
10678SOL    HW243689   7.294   0.452   5.369
10679SOL     OW43690   7.659   1.861   5.237
10679SOL    HW143691   7.580   1.880   5.294
10679SOL    HW243692   7.698   1.946   5.202
10680SOL     OW43693   7.456   7.798   5.870
10680SOL    HW143694   7.516   7.875   5.895
10680SOL    HW243695   7.499   7.747   5.795
10681SOL     OW43696   7.339   3.796   7.468
10681SOL    HW143697   7.390   3.711   7.455
10681SOL    HW243698   7.394   3.874   7.437
10682SOL     OW43699   3.793   1.084   7.671
10682SOL    HW143700   3.776   1.097   7.769
10682SOL    HW243701   3.774   0.989   7.646
10683SOL     OW43702   7.294   6.283   2.079
10683SOL    HW143703   7.231   6.288   2.157
10683SOL    HW243704   7.242   6.287   1.994
10684SOL     OW43705   4.784   4.341   1.756
10684SOL    HW143706   4.720   4.296   1.694
10684SOL    HW243707   4.732   4.386   1.830
10685SOL     OW43708   9.526   4.252   3.530
10685SOL    HW143709   9.542   4.277   3.626
10685SOL    HW243710   9.568   4.164   3.511
10686SOL     OW43711   3.930   5.622   1.876
10686SOL    HW143712   3.841   5.576   1.866
10686SOL    HW243713   4.003   5.557   1.854
10687SOL     OW43714   9.734   1.280   4.621
10687SOL    HW143715   9.800   1.252   4.691
10687SOL    HW243716   9.722   1.206   4.555
10688SOL     OW43717   0.562   8.344   6.880
10688SOL    HW143718   0.467   8.311   6.879
10688SOL    HW243719   0.568   8.426   6.936
10689SOL     OW43720   6.802   3.490   3.153
10689SOL    HW143721   6.829   3.459   3.244
10689SOL    HW243722   6.749   3.575   3.161
10690SOL     OW43723   8.434   8.522   0.545
10690SOL    HW143724   8.439   8.621   0.539
10690SOL    HW243725   8.514   8.481   0.501
10691SOL     OW43726   0.788   9.132   3.604
10691SOL    HW143727   0.707   9.089   3.564
10691SOL    HW243728   0.769   9.228   3.624
10692SOL     OW43729   6.113   8.659   6.220
10692SOL    HW143730   6.039   8.676   6.155
10692SOL    HW243731   6.084   8.591   6.287
10693SOL     OW43732   9.889   8.949   0.415
10693SOL    HW143733   9.957   8.877   0.429
10693SOL    HW243734   9.887   8.974   0.318
10694SOL     OW43735   4.262   7.890   0.901
10694SOL    HW143736   4.360   7.911   0.890
10694SOL    HW243737   4.220   7.959   0.959
10695SOL     OW43738   3.087   9.008   6.640
10695SOL    HW143739   3.047   9.073   6.576
10695SOL    HW243740   3.106   9.053   6.727
10696SOL     OW43741   1.542   4.900   3.641
10696SOL    HW143742   1.628   4.947   3.624
10696SOL    HW243743   1.547   4.808   3.601
10697SOL     OW43744   4.963   0.194   3.732
10697SOL    HW143745   4.997   0.282   3.763
10697SOL    HW243746   4.992   0.122   3.796
10698SOL     OW43747   2.237   7.415   0.627
10698SOL    HW143748   2.157   7.360   0.654
10698SOL    HW243749   2.313   7.354   0.605
10699SOL     OW43750   3.085   2.039   1.457
10699SOL    HW143751   3.168   2.038   1.402
10699SOL    HW243752   3.110   2.049   1.554
10700SOL     OW43753   2.420   8.045   6.160
10700SOL    HW143754   2.392   8.044   6.256
10700SOL    HW243755   2.343   8.073   6.103
10701SOL     OW43756   4.070   4.449   2.927
10701SOL    HW143757   4.162   4.469   2.960
10701SOL    HW243758   4.066   4.355   2.894
10702SOL     OW43759   7.007   8.703   4.042
10702SOL    HW143760   7.013   8.800   4.066
10702SOL    HW243761   6.950   8.692   3.961
10703SOL     OW43762   1.353   7.347   2.901
10703SOL    HW143763   1.356   7.379   2.806
10703SOL    HW243764   1.276   7.390   2.948
10704SOL     OW43765   0.965   3.361   1.852
10704SOL    HW143766   0.872   3.393   1.832
10704SOL    HW243767   0.992   3.294   1.783
10705SOL     OW43768   1.844   5.593   7.747
10705SOL    HW143769   1.860   5.596   7.648
10705SOL    HW243770   1.776   5.662   7.772
10706SOL     OW43771   2.111   7.047   5.837
10706SOL    HW143772   2.105   7.024   5.935
10706SOL    HW243773   2.207   7.041   5.808
10707SOL     OW43774   8.972   5.002   6.793
10707SOL    HW143775   8.972   5.055   6.878
10707SOL    HW243776   9.066   4.985   6.764
10708SOL     OW43777   1.585   3.795   1.061
10708SOL    HW143778   1.619   3.752   1.144
10708SOL    HW243779   1.536   3.728   1.006
10709SOL     OW43780   9.246   9.940   1.962
10709SOL    HW143781   9.250   9.929   1.863
10709SOL    HW243782   9.163   9.898   1.997
10710SOL     OW43783   0.295   0.755   0.267
10710SOL    HW143784   0.394   0.741   0.272
10710SOL    HW243785   0.275   0.841   0.221
10711SOL     OW43786   8.262   7.963   3.392
10711SOL    HW143787   8.190   7.915   3.442
10711SOL    HW243788   8.301   7.902   3.323
10712SOL     OW43789   8.603   3.326   0.152
10712SOL    HW143790   8.701   3.310   0.143
10712SOL    HW243791   8.553   3.264   0.092
10713SOL     OW43792   9.186   1.767   3.955
10713SOL    HW143793   9.247   1.740   3.880
10713SOL    HW243794   9.125   1.839   3.925
10714SOL     OW43795   8.997   6.376   4.444
10714SOL    HW143796   9.071   6.383   4.512
10714SOL    HW243797   8.983   6.280   4.420
10715SOL     OW43798   3.350   8.431   5.784
10715SOL    HW143799   3.443   8.458   5.760
10715SOL    HW243800   3.324   8.349   5.733
10716SOL     OW43801   4.179   0.354   1.569
10716SOL    HW143802   4.112   0.279   1.576
10716SOL    HW243803   4.169   0.399   1.481
10717SOL     OW43804   8.303   9.726   2.381
10717SOL    HW143805   8.396   9.760   2.368
10717SOL    HW243806   8.243   9.800   2.411
10718SOL     OW43807   4.254   8.545   7.191
10718SOL    HW143808   4.341   8.592   7.178
10718SOL    HW243809   4.225   8.503   7.105
10719SOL     OW43810   1.075   5.134   7.829
10719SOL    HW143811   1.173   5.121   7.840
10719SOL    HW243812   1.040   5.190   7.904
10720SOL     OW43813   3.685   0.653   1.947
10720SOL    HW143814   3.725   0.597   1.874
10720SOL    HW243815   3.586   0.652   1.939
10721SOL     OW43816   7.422   6.793   7.640
10721SOL    HW143817   7.411   6.725   7.712
10721SOL    HW243818   7.385   6.881   7.671
10722SOL     OW43819   5.237   8.509   2.783
10722SOL    HW143820   5.171   8.449   2.829
10722SOL    HW243821   5.204   8.603   2.785
10723SOL     OW43822   3.373   3.973   4.808
10723SOL    HW143823   3.298   4.001   4.748
10723SOL    HW243824   3.390   4.044   4.877
10724SOL     OW43825   0.032   3.991   3.185
10724SOL    HW143826   0.086   4.034   3.113
10724SOL    HW243827   9.957   4.051   3.211
10725SOL     OW43828   0.914   6.007   5.797
10725SOL    HW143829   1.014   6.019   5.797
10725SOL    HW243830   0.872   6.072   5.734
10726SOL     OW43831   9.869   6.565   0.872
10726SOL    HW143832   9.833   6.657   0.860
10726SOL    HW243833   9.836   6.527   0.958
10727SOL     OW43834   1.475   9.320   5.545
10727SOL    HW143835   1.570   9.304   5.570
10727SOL    HW243836   1.438   9.394   5.601
10728SOL     OW43837   8.415   8.691   7.695
10728SOL    HW143838   8.344   8.681   7.764
10728SOL    HW243839   8.376   8.678   7.604
10729SOL     OW43840   5.207   9.290   6.962
10729SOL    HW143841   5.120   9.333   6.988
10729SOL    HW243842   5.267   9.286   7.043
10730SOL     OW43843   7.868   0.200   2.160
10730SOL    HW143844   7.800   0.150   2.106
10730SOL    HW243845   7.944   0.228   2.100
10731SOL     OW43846   6.440   0.479   3.797
10731SOL    HW143847   6.365   0.467   3.862
10731SOL    HW243848   6.488   0.392   3.784
10732SOL     OW43849   2.984   5.700   6.693
10732SOL    HW143850   2.954   5.793   6.712
10732SOL    HW243851   3.018   5.693   6.600
10733SOL     OW43852   8.475   8.360   7.418
10733SOL    HW143853   8.479   8.335   7.515
10733SOL    HW243854   8.565   8.391   7.388
10734SOL     OW43855   3.438   6.597   5.141
10734SOL    HW143856   3.411   6.528   5.208
10734SOL    HW243857   3.435   6.688   5.184
10735SOL     OW43858   7.809   6.932   5.132
10735SOL    HW143859   7.854   6.843   5.142
10735SOL    HW243860   7.760   6.935   5.045
10736SOL     OW43861   2.816   3.212   6.541
10736SOL    HW143862   2.757   3.272   6.487
10736SOL    HW243863   2.792   3.220   6.638
10737SOL     OW43864   7.267   7.780   7.633
10737SOL    HW143865   7.324   7.722   7.574
10737SOL    HW243866   7.235   7.859   7.581
10738SOL     OW43867   7.299   1.488   5.149
10738SOL    HW143868   7.206   1.467   5.180
10738SOL    HW243869   7.312   1.457   5.055
10739SOL     OW43870   0.348   7.009   5.177
10739SOL    HW143871   0.277   6.957   5.130
10739SOL    HW243872   0.306   7.070   5.245
10740SOL     OW43873   6.919   0.325   6.355
10740SOL    HW143874   6.909   0.424   6.342
10740SOL    HW243875   6.987   0.290   6.291
10741SOL     OW43876   4.457   3.197   6.682
10741SOL    HW143877   4.460   3.211   6.781
10741SOL    HW243878   4.477   3.101   6.662
10742SOL     OW43879   4.877   6.608   0.882
10742SOL    HW143880   4.844   6.520   0.917
10742SOL    HW243881   4.852   6.681   0.946
10743SOL     OW43882   8.220   0.295   6.997
10743SOL    HW143883   8.177   0.289   7.088
10743SOL    HW243884   8.312   0.332   7.006
10744SOL     OW43885   8.546   4.378   1.326
10744SOL    HW143886   8.581   4.287   1.303
10744SOL    HW243887   8.584   4.445   1.262
10745SOL     OW43888   8.343   9.235   0.882
10745SOL    HW143889   8.330   9.278   0.971
10745SOL    HW243890   8.441   9.231   0.861
10746SOL     OW43891   0.607   7.514   4.996
10746SOL    HW143892   0.578   7.602   4.958
10746SOL    HW243893   0.698   7.491   4.961
10747SOL     OW43894   7.972   6.935   1.775
10747SOL    HW143895   8.017   6.997   1.839
10747SOL    HW243896   7.888   6.900   1.817
10748SOL     OW43897   6.049   4.796   1.993
10748SOL    HW143898   5.983   4.831   1.926
10748SOL    HW243899   6.140   4.790   1.951
10749SOL     OW43900   4.037   5.591   0.235
10749SOL    HW143901   4.004   5.535   0.311
10749SOL    HW243902   3.959   5.637   0.192
10750SOL     OW43903   9.787   7.246   4.788
10750SOL    HW143904   9.845   7.225   4.867
10750SOL    HW243905   9.692   7.221   4.810
10751SOL     OW43906   6.491   5.651   1.653
10751SOL    HW143907   6.547   5.713   1.597
10751SOL    HW243908   6.552   5.595   1.709
10752SOL     OW43909   8.532   1.561   5.320
10752SOL    HW143910   8.597   1.571   5.395
10752SOL    HW243911   8.508   1.464   5.310
10753SOL     OW43912   4.203   3.102   6.961
10753SOL    HW143913   4.170   3.129   6.870
10753SOL    HW243914   4.134   3.126   7.029
10754SOL     OW43915   4.595   3.368   7.525
10754SOL    HW143916   4.649   3.438   7.571
10754SOL    HW243917   4.652   3.287   7.509
10755SOL     OW43918   5.359   5.404   1.425
10755SOL    HW143919   5.308   5.489   1.411
10755SOL    HW243920   5.337   5.367   1.516
10756SOL     OW43921   1.558   6.149   4.038
10756SOL    HW143922   1.547   6.051   4.020
10756SOL    HW243923   1.537   6.168   4.134
10757SOL     OW43924   0.474   0.176   6.175
10757SOL    HW143925   0.543   0.173   6.104
10757SOL    HW243926   0.517   0.161   6.264
10758SOL     OW43927   4.503   5.457   1.504
10758SOL    HW143928   4.529   5.475   1.599
10758SOL    HW243929   4.492   5.543   1.455
10759SOL     OW43930   4.950   8.999   0.605
10759SOL    HW143931   4.969   8.945   0.523
10759SOL    HW243932   5.001   8.962   0.682
10760SOL     OW43933   8.404   9.319   2.568
10760SOL    HW143934   8.477   9.386   2.585
10760SOL    HW243935   8.445   9.234   2.533
10761SOL     OW43936   9.347   9.929   0.037
10761SOL    HW143937   9.365   9.863   0.110
10761SOL    HW243938   9.394   0.015   0.058
10762SOL     OW43939   6.748   2.130   1.179
10762SOL    HW143940   6.683   2.115   1.254
10762SOL    HW243941   6.718   2.208   1.125
10763SOL     OW43942   2.478   5.665   7.203
10763SOL    HW143943   2.408   5.724   7.243
10763SOL    HW243944   2.502   5.593   7.268
10764SOL     OW43945   4.098   7.702   1.914
10764SOL    HW143946   4.132   7.661   1.999
10764SOL    HW243947   4.060   7.630   1.856
10765SOL     OW43948   9.956   0.194   5.746
10765SOL    HW143949   9.982   0.209   5.841
10765SOL    HW243950   9.985   0.102   5.718
10766SOL     OW43951   3.738   7.296   2.404
10766SOL    HW143952   3.760   7.212   2.354
10766SOL    HW243953   3.737   7.373   2.341
10767SOL     OW43954   3.254   8.595   0.929
10767SOL    HW143955   3.291   8.520   0.874
10767SOL    HW243956   3.154   8.588   0.932
10768SOL     OW43957   8.986   1.281   6.913
10768SOL    HW143958   8.931   1.282   6.996
10768SOL    HW243959   8.956   1.206   6.854
10769SOL     OW43960   2.186   7.096   6.490
10769SOL    HW143961   2.185   6.996   6.480
10769SOL    HW243962   2.173   7.139   6.401
10770SOL     OW43963   6.432   7.807   4.385
10770SOL    HW143964   6.510   7.764   4.430
10770SOL    HW243965   6.407   7.891   4.434
10771SOL     OW43966   7.353   1.065   7.846
10771SOL    HW143967   7.404   1.018   7.775
10771SOL    HW243968   7.392   1.156   7.862
10772SOL     OW43969   1.022   4.747   0.850
10772SOL    HW143970   1.003   4.825   0.790
10772SOL    HW243971   0.954   4.742   0.923
10773SOL     OW43972   1.126   5.414   2.122
10773SOL    HW143973   1.081   5.469   2.052
10773SOL    HW243974   1.140   5.321   2.087
10774SOL     OW43975   0.808   4.736   3.851
10774SOL    HW143976   0.784   4.771   3.941
10774SOL    HW243977   0.874   4.798   3.808
10775SOL     OW43978   2.857   2.665   6.116
10775SOL    HW143979   2.898   2.753   6.142
10775SOL    HW243980   2.768   2.682   6.074
10776SOL     OW43981   0.722   2.385   3.357
10776SOL    HW143982   0.682   2.297   3.333
10776SOL    HW243983   0.789   2.372   3.430
10777SOL     OW43984   1.781   1.473   2.261
10777SOL    HW143985   1.704   1.409   2.261
10777SOL    HW243986   1.754   1.558   2.305
10778SOL     OW43987   0.164   6.876   2.163
10778SOL    HW143988   0.219   6.826   2.097
10778SOL    HW243989   0.201   6.969   2.174
10779SOL     OW43990   3.986   4.183   0.801
10779SOL    HW143991   4.078   4.202   0.837
10779SOL    HW243992   3.993   4.117   0.727
10780SOL     OW43993   1.836   7.127   2.947
10780SOL    HW143994   1.932   7.150   2.931
10780SOL    HW243995   1.787   7.128   2.860
10781SOL     OW43996   1.240   5.293   3.089
10781SOL    HW143997   1.302   5.367   3.113
10781SOL    HW243998   1.256   5.215   3.150
10782SOL     OW43999   8.557   8.748   4.860
10782SOL    HW144000   8.541   8.760   4.958
10782SOL    HW244001   8.474   8.773   4.809
10783SOL     OW44002   7.349   2.516   3.539
10783SOL    HW144003   7.377   2.421   3.556
10783SOL    HW244004   7.249   2.520   3.530
10784SOL     OW44005   3.981   5.513   4.622
10784SOL    HW144006   3.892   5.480   4.655
10784SOL    HW244007   4.025   5.443   4.567
10785SOL     OW44008   2.311   5.931   3.037
10785SOL    HW144009   2.277   6.019   3.069
10785SOL    HW244010   2.246   5.892   2.972
10786SOL     OW44011   3.952   2.322   1.678
10786SOL    HW144012   4.031   2.353   1.625
10786SOL    HW244013   3.976   2.316   1.774
10787SOL     OW44014   3.890   4.746   6.074
10787SOL    HW144015   3.949   4.673   6.038
10787SOL    HW244016   3.801   4.708   6.097
10788SOL     OW44017   6.367   1.774   5.321
10788SOL    HW144018   6.467   1.770   5.321
10788SOL    HW244019   6.338   1.850   5.263
10789SOL     OW44020   5.212   3.732   0.744
10789SOL    HW144021   5.114   3.753   0.745
10789SOL    HW244022   5.228   3.641   0.782
10790SOL     OW44023   9.578   9.627   2.016
10790SOL    HW144024   9.673   9.657   2.006
10790SOL    HW244025   9.525   9.697   2.063
10791SOL     OW44026   7.257   0.310   4.660
10791SOL    HW144027   7.206   0.347   4.737
10791SOL    HW244028   7.296   0.385   4.607
10792SOL     OW44029   9.434   5.594   0.007
10792SOL    HW144030   9.495   5.517   0.027
10792SOL    HW244031   9.352   5.560  10.041
10793SOL     OW44032   4.049   6.809   4.600
10793SOL    HW144033   4.087   6.785   4.690
10793SOL    HW244034   3.962   6.762   4.586
10794SOL     OW44035   7.885   7.343   3.172
10794SOL    HW144036   7.816   7.290   3.220
10794SOL    HW244037   7.927   7.287   3.101
10795SOL     OW44038   3.774   8.960   7.076
10795SOL    HW144039   3.867   8.945   7.044
10795SOL    HW244040   3.710   8.941   7.002
10796SOL     OW44041   3.946   1.491   5.380
10796SOL    HW144042   3.970   1.422   5.311
10796SOL    HW244043   3.901   1.568   5.336
10797SOL     OW44044   8.977   3.989   4.877
10797SOL    HW144045   8.934   4.040   4.952
10797SOL    HW244046   8.951   4.030   4.789
10798SOL     OW44047   9.648   7.044   6.721
10798SOL    HW144048   9.723   7.007   6.775
10798SOL    HW244049   9.617   6.976   6.655
10799SOL     OW44050   1.304   5.917   3.734
10799SOL    HW144051   1.403   5.908   3.723
10799SOL    HW244052   1.285   5.974   3.814
10800SOL     OW44053   2.808   7.570   6.561
10800SOL    HW144054   2.755   7.559   6.476
10800SOL    HW244055   2.745   7.575   6.638
10801SOL     OW44056   3.537   8.270   6.131
10801SOL    HW144057   3.541   8.337   6.204
10801SOL    HW244058   3.516   8.180   6.169
10802SOL     OW44059   7.876   5.538   5.066
10802SOL    HW144060   7.828   5.547   5.153
10802SOL    HW244061   7.829   5.592   4.996
10803SOL     OW44062   4.384   9.665   4.405
10803SOL    HW144063   4.416   9.580   4.447
10803SOL    HW244064   4.461   9.716   4.369
10804SOL     OW44065   3.155   9.759   3.626
10804SOL    HW144066   3.202   9.742   3.712
10804SOL    HW244067   3.223   9.771   3.553
10805SOL     OW44068   1.162   4.820   7.794
10805SOL    HW144069   1.081   4.762   7.797
10805SOL    HW244070   1.134   4.916   7.801
10806SOL     OW44071   3.859   9.608   7.301
10806SOL    HW144072   3.949   9.637   7.269
10806SOL    HW244073   3.806   9.689   7.328
10807SOL     OW44074   2.231   7.361   3.679
10807SOL    HW144075   2.276   7.448   3.699
10807SOL    HW244076   2.266   7.291   3.742
10808SOL     OW44077   5.574   2.051   5.468
10808SOL    HW144078   5.672   2.037   5.481
10808SOL    HW244079   5.549   2.029   5.374
10809SOL     OW44080   8.592   6.838   1.692
10809SOL    HW144081   8.627   6.765   1.751
10809SOL    HW244082   8.513   6.881   1.736
10810SOL     OW44083   6.963   2.725   2.576
10810SOL    HW144084   7.060   2.748   2.582
10810SOL    HW244085   6.911   2.787   2.633
10811SOL     OW44086   4.968   8.605   6.406
10811SOL    HW144087   4.905   8.532   6.381
10811SOL    HW244088   4.981   8.667   6.328
10812SOL     OW44089   3.105   0.756   1.715
10812SOL    HW144090   3.114   0.758   1.815
10812SOL    HW244091   3.181   0.805   1.674
10813SOL     OW44092   8.260   8.933   7.371
10813SOL    HW144093   8.246   8.995   7.448
10813SOL    HW244094   8.207   8.966   7.292
10814SOL     OW44095   4.083   8.346   1.158
10814SOL    HW144096   4.102   8.426   1.102
10814SOL    HW244097   3.993   8.356   1.202
10815SOL     OW44098   3.117   5.494   5.715
10815SOL    HW144099   3.018   5.504   5.729
10815SOL    HW244100   3.148   5.566   5.653
10816SOL     OW44101   8.143   4.849   5.764
10816SOL    HW144102   8.225   4.858   5.820
10816SOL    HW244103   8.120   4.752   5.753
10817SOL     OW44104   3.712   3.428   3.045
10817SOL    HW144105   3.729   3.524   3.070
10817SOL    HW244106   3.785   3.396   2.986
10818SOL     OW44107   2.946   3.075   3.880
10818SOL    HW144108   2.973   2.980   3.896
10818SOL    HW244109   2.938   3.092   3.782
10819SOL     OW44110   2.354   5.213   1.749
10819SOL    HW144111   2.363   5.291   1.811
10819SOL    HW244112   2.274   5.225   1.692
10820SOL     OW44113   4.066   2.199   6.971
10820SOL    HW144114   4.125   2.226   6.896
10820SOL    HW244115   4.023   2.280   7.012
10821SOL     OW44116   0.412   6.619   6.590
10821SOL    HW144117   0.354   6.698   6.610
10821SOL    HW244118   0.492   6.621   6.649
10822SOL     OW44119   7.233   7.497   2.712
10822SOL    HW144120   7.178   7.558   2.655
10822SOL    HW244121   7.220   7.403   2.683
10823SOL     OW44122   3.554   9.344   1.865
10823SOL    HW144123   3.626   9.412   1.854
10823SOL    HW244124   3.474   9.372   1.813
10824SOL     OW44125   4.756   9.615   0.776
10824SOL    HW144126   4.852   9.631   0.756
10824SOL    HW244127   4.748   9.565   0.862
10825SOL     OW44128   0.854   2.301   2.089
10825SOL    HW144129   0.878   2.223   2.031
10825SOL    HW244130   0.920   2.308   2.164
10826SOL     OW44131   1.706   4.915   4.184
10826SOL    HW144132   1.714   5.009   4.150
10826SOL    HW244133   1.728   4.851   4.110
10827SOL     OW44134   4.122   3.877   6.509
10827SOL    HW144135   4.140   3.812   6.434
10827SOL    HW244136   4.065   3.952   6.475
10828SOL     OW44137   9.794   2.134   2.335
10828SOL    HW144138   9.740   2.216   2.314
10828SOL    HW244139   9.855   2.153   2.412
10829SOL     OW44140   1.236   2.287   3.855
10829SOL    HW144141   1.182   2.370   3.870
10829SOL    HW244142   1.313   2.286   3.918
10830SOL     OW44143   2.563   8.369   1.722
10830SOL    HW144144   2.578   8.465   1.746
10830SOL    HW244145   2.630   8.340   1.654
10831SOL     OW44146   7.865   0.042   7.780
10831SOL    HW144147   7.798   0.112   7.758
10831SOL    HW244148   7.819   9.959   7.810
10832SOL     OW44149   8.905   6.564   4.893
10832SOL    HW144150   8.871   6.600   4.979
10832SOL    HW244151   8.846   6.594   4.818
10833SOL     OW44152   3.025   2.555   6.951
10833SOL    HW144153   3.102   2.560   6.888
10833SOL    HW244154   3.015   2.643   6.998
10834SOL     OW44155   2.500   7.499   7.773
10834SOL    HW144156   2.557   7.417   7.767
10834SOL    HW244157   2.415   7.485   7.723
10835SOL     OW44158   7.713   6.966   7.869
10835SOL    HW144159   7.722   7.053   7.821
10835SOL    HW244160   7.797   6.913   7.860
10836SOL     OW44161   9.225   6.419   4.601
10836SOL    HW144162   9.201   6.452   4.692
10836SOL    HW244163   9.246   6.497   4.542
10837SOL     OW44164   5.926   9.110   4.388
10837SOL    HW144165   5.969   9.194   4.422
10837SOL    HW244166   5.920   9.114   4.288
10838SOL     OW44167   1.875   1.768   3.366
10838SOL    HW144168   1.885   1.848   3.307
10838SOL    HW244169   1.778   1.744   3.373
10839SOL     OW44170   4.249   5.642   1.018
10839SOL    HW144171   4.283   5.606   0.931
10839SOL    HW244172   4.217   5.566   1.075
10840SOL     OW44173   1.841   4.952   1.329
10840SOL    HW144174   1.874   4.889   1.259
10840SOL    HW244175   1.830   5.043   1.290
10841SOL     OW44176   2.355   9.792   7.038
10841SOL    HW144177   2.326   9.881   7.001
10841SOL    HW244178   2.391   9.805   7.130
10842SOL     OW44179   4.755   8.712   2.017
10842SOL    HW144180   4.764   8.751   1.925
10842SOL    HW244181   4.717   8.782   2.078
10843SOL     OW44182   2.864   1.221   5.054
10843SOL    HW144183   2.859   1.311   5.096
10843SOL    HW244184   2.807   1.157   5.106
10844SOL     OW44185   2.445   9.748   5.003
10844SOL    HW144186   2.544   9.741   5.011
10844SOL    HW244187   2.403   9.659   5.025
10845SOL     OW44188   4.024   2.300   5.125
10845SOL    HW144189   4.053   2.394   5.141
10845SOL    HW244190   4.072   2.239   5.189
10846SOL     OW44191   6.748   1.234   5.917
10846SOL    HW144192   6.744   1.134   5.924
10846SOL    HW244193   6.788   1.272   6.000
10847SOL     OW44194   8.159   3.460   1.518
10847SOL    HW144195   8.258   3.474   1.524
10847SOL    HW244196   8.141   3.365   1.495
10848SOL     OW44197   8.864   1.087   6.119
10848SOL    HW144198   8.931   1.014   6.105
10848SOL    HW244199   8.787   1.074   6.057
10849SOL     OW44200   6.334   4.026   0.395
10849SOL    HW144201   6.395   3.998   0.321
10849SOL    HW244202   6.380   4.010   0.483
10850SOL     OW44203   1.160   5.093   5.684
10850SOL    HW144204   1.077   5.115   5.632
10850SOL    HW244205   1.142   5.015   5.744
10851SOL     OW44206   2.122   0.992   4.622
10851SOL    HW144207   2.071   1.013   4.705
10851SOL    HW244208   2.212   0.955   4.647
10852SOL     OW44209   2.681   7.240   3.291
10852SOL    HW144210   2.740   7.162   3.269
10852SOL    HW244211   2.699   7.314   3.226
10853SOL     OW44212   7.663   1.792   3.674
10853SOL    HW144213   7.606   1.737   3.736
10853SOL    HW244214   7.746   1.820   3.722
10854SOL     OW44215   2.177   6.759   2.055
10854SOL    HW144216   2.097   6.758   1.995
10854SOL    HW244217   2.239   6.832   2.027
10855SOL     OW44218   2.770   4.206   4.601
10855SOL    HW144219   2.721   4.290   4.623
10855SOL    HW244220   2.736   4.169   4.515
10856SOL     OW44221   1.741   8.678   0.362
10856SOL    HW144222   1.769   8.587   0.390
10856SOL    HW244223   1.721   8.679   0.264
10857SOL     OW44224   2.303   9.424   1.101
10857SOL    HW144225   2.244   9.371   1.161
10857SOL    HW244226   2.397   9.391   1.108
10858SOL     OW44227   0.260   9.897   2.447
10858SOL    HW144228   0.204   9.848   2.380
10858SOL    HW244229   0.311   9.832   2.502
10859SOL     OW44230   4.610   0.145   6.341
10859SOL    HW144231   4.643   0.072   6.400
10859SOL    HW244232   4.622   0.118   6.245
10860SOL     OW44233   4.398   8.517   0.313
10860SOL    HW144234   4.300   8.510   0.295
10860SOL    HW244235   4.448   8.520   0.227
10861SOL     OW44236   4.901   3.129   4.859
10861SOL    HW144237   4.997   3.125   4.832
10861SOL    HW244238   4.894   3.170   4.950
10862SOL     OW44239   8.606   3.691   3.388
10862SOL    HW144240   8.582   3.697   3.290
10862SOL    HW244241   8.551   3.619   3.431
10863SOL     OW44242   9.154   8.821   3.920
10863SOL    HW144243   9.132   8.916   3.896
10863SOL    HW244244   9.084   8.785   3.981
10864SOL     OW44245   9.579   0.598   5.056
10864SOL    HW144246   9.559   0.622   4.961
10864SOL    HW244247   9.505   0.633   5.115
10865SOL     OW44248   1.017   8.031   1.079
10865SOL    HW144249   1.104   8.078   1.088
10865SOL    HW244250   1.029   7.948   1.025
10866SOL     OW44251   4.816   7.897   5.236
10866SOL    HW144252   4.783   7.971   5.177
10866SOL    HW244253   4.789   7.915   5.330
10867SOL     OW44254   2.302   6.431   0.915
10867SOL    HW144255   2.293   6.382   0.828
10867SOL    HW244256   2.380   6.395   0.966
10868SOL     OW44257   0.780   1.498   2.025
10868SOL    HW144258   0.734   1.523   2.111
10868SOL    HW244259   0.714   1.501   1.950
10869SOL     OW44260   1.394   2.907   1.764
10869SOL    HW144261   1.433   2.875   1.678
10869SOL    HW244262   1.368   3.004   1.755
10870SOL     OW44263   3.687   5.149   7.090
10870SOL    HW144264   3.735   5.063   7.105
10870SOL    HW244265   3.601   5.149   7.141
10871SOL     OW44266   2.737   9.412   5.228
10871SOL    HW144267   2.739   9.342   5.157
10871SOL    HW244268   2.711   9.371   5.315
10872SOL     OW44269   1.227   3.612   1.094
10872SOL    HW144270   1.175   3.529   1.112
10872SOL    HW244271   1.261   3.649   1.181
10873SOL     OW44272   1.280   9.810   3.280
10873SOL    HW144273   1.250   9.905   3.272
10873SOL    HW244274   1.233   9.755   3.211
10874SOL     OW44275   9.293   2.264   1.223
10874SOL    HW144276   9.225   2.325   1.181
10874SOL    HW244277   9.310   2.186   1.164
10875SOL     OW44278   5.320   9.184   5.087
10875SOL    HW144279   5.253   9.201   5.160
10875SOL    HW244280   5.350   9.089   5.091
10876SOL     OW44281   2.489   0.415   7.647
10876SOL    HW144282   2.477   0.506   7.686
10876SOL    HW244283   2.506   0.349   7.721
10877SOL     OW44284   5.929   4.758   0.426
10877SOL    HW144285   5.903   4.765   0.329
10877SOL    HW244286   5.973   4.669   0.442
10878SOL     OW44287   0.882   0.061   6.270
10878SOL    HW144288   0.945   0.116   6.325
10878SOL    HW244289   0.908   0.066   6.174
10879SOL     OW44290   3.632   0.775   0.436
10879SOL    HW144291   3.634   0.681   0.401
10879SOL    HW244292   3.721   0.797   0.476
10880SOL     OW44293   3.698   3.882   3.320
10880SOL    HW144294   3.754   3.912   3.397
10880SOL    HW244295   3.625   3.822   3.353
10881SOL     OW44296   4.785   9.282   6.875
10881SOL    HW144297   4.823   9.189   6.866
10881SOL    HW244298   4.772   9.321   6.784
10882SOL     OW44299   5.133   3.697   1.556
10882SOL    HW144300   5.060   3.649   1.605
10882SOL    HW244301   5.189   3.749   1.621
10883SOL     OW44302   7.913   6.646   4.420
10883SOL    HW144303   7.954   6.599   4.341
10883SOL    HW244304   7.984   6.699   4.467
10884SOL     OW44305   2.090   3.911   1.270
10884SOL    HW144306   2.044   3.891   1.357
10884SOL    HW244307   2.155   3.986   1.284
10885SOL     OW44308   1.031   3.805   5.296
10885SOL    HW144309   0.958   3.766   5.240
10885SOL    HW244310   1.048   3.899   5.266
10886SOL     OW44311   4.904   2.513   7.354
10886SOL    HW144312   4.895   2.491   7.452
10886SOL    HW244313   4.814   2.518   7.312
10887SOL     OW44314   1.526   1.279   7.185
10887SOL    HW144315   1.448   1.337   7.162
10887SOL    HW244316   1.605   1.337   7.206
10888SOL     OW44317   8.393   0.725   6.740
10888SOL    HW144318   8.322   0.747   6.807
10888SOL    HW244319   8.425   0.631   6.755
10889SOL     OW44320   0.787   5.062   5.689
10889SOL    HW144321   0.844   5.121   5.631
10889SOL    HW244322   0.715   5.116   5.731
10890SOL     OW44323   3.853   3.690   2.567
10890SOL    HW144324   3.894   3.602   2.590
10890SOL    HW244325   3.807   3.728   2.647
10891SOL     OW44326   3.055   5.325   6.097
10891SOL    HW144327   2.965   5.366   6.082
10891SOL    HW244328   3.125   5.384   6.057
10892SOL     OW44329   7.288   2.597   3.949
10892SOL    HW144330   7.294   2.498   3.937
10892SOL    HW244331   7.341   2.642   3.877
10893SOL     OW44332   2.986   9.029   7.452
10893SOL    HW144333   3.035   9.105   7.408
10893SOL    HW244334   2.928   8.984   7.384
10894SOL     OW44335   2.037   0.403   2.664
10894SOL    HW144336   2.082   0.479   2.709
10894SOL    HW244337   2.103   0.331   2.644
10895SOL     OW44338   0.437   3.370   2.282
10895SOL    HW144339   0.394   3.434   2.218
10895SOL    HW244340   0.495   3.421   2.346
10896SOL     OW44341   3.040   6.980   1.166
10896SOL    HW144342   2.994   6.934   1.090
10896SOL    HW244343   3.088   7.060   1.131
10897SOL     OW44344   8.007   6.244   2.311
10897SOL    HW144345   7.932   6.281   2.366
10897SOL    HW244346   7.985   6.252   2.214
10898SOL     OW44347   1.678   7.529   7.164
10898SOL    HW144348   1.632   7.512   7.077
10898SOL    HW244349   1.672   7.626   7.187
10899SOL     OW44350   2.312   2.308   4.881
10899SOL    HW144351   2.260   2.245   4.939
10899SOL    HW244352   2.355   2.378   4.938
10900SOL     OW44353   7.095   6.414   5.065
10900SOL    HW144354   7.004   6.426   5.105
10900SOL    HW244355   7.085   6.392   4.967
10901SOL     OW44356   9.821   1.456   3.733
10901SOL    HW144357   9.725   1.470   3.756
10901SOL    HW244358   9.830   1.384   3.664
10902SOL     OW44359   1.591   6.023   7.759
10902SOL    HW144360   1.649   6.044   7.838
10902SOL    HW244361   1.495   6.024   7.786
10903SOL     OW44362   2.050   5.863   5.510
10903SOL    HW144363   2.026   5.775   5.469
10903SOL    HW244364   1.974   5.895   5.567
10904SOL     OW44365   3.222   0.840   4.552
10904SOL    HW144366   3.292   0.769   4.560
10904SOL    HW244367   3.136   0.799   4.521
10905SOL     OW44368   0.449   5.506   1.521
10905SOL    HW144369   0.452   5.580   1.588
10905SOL    HW244370   0.445   5.418   1.569
10906SOL     OW44371   2.597   1.574   5.072
10906SOL    HW144372   2.602   1.623   4.985
10906SOL    HW244373   2.519   1.512   5.071
10907SOL     OW44374   2.677   7.148   6.558
10907SOL    HW144375   2.759   7.200   6.537
10907SOL    HW244376   2.655   7.158   6.655
10908SOL     OW44377   9.124   3.389   0.830
10908SOL    HW144378   9.076   3.465   0.785
10908SOL    HW244379   9.123   3.404   0.929
10909SOL     OW44380   9.683   8.109   5.599
10909SOL    HW144381   9.653   8.182   5.660
10909SOL    HW244382   9.633   8.115   5.513
10910SOL     OW44383   2.509   5.416   4.424
10910SOL    HW144384   2.475   5.326   4.451
10910SOL    HW244385   2.514   5.422   4.325
10911SOL     OW44386   0.157   5.574   4.748
10911SOL    HW144387   0.154   5.673   4.765
10911SOL    HW244388   0.121   5.554   4.657
10912SOL     OW44389   9.444   5.513   6.456
10912SOL    HW144390   9.528   5.476   6.495
10912SOL    HW244391   9.462   5.547   6.364
10913SOL     OW44392   1.108   7.630   3.596
10913SOL    HW144393   1.155   7.610   3.510
10913SOL    HW244394   1.129   7.723   3.626
10914SOL     OW44395   2.032   7.711   4.427
10914SOL    HW144396   1.976   7.721   4.345
10914SOL    HW244397   2.129   7.710   4.402
10915SOL     OW44398   6.432   1.620   0.076
10915SOL    HW144399   6.342   1.577   0.061
10915SOL    HW244400   6.475   1.579   0.157
10916SOL     OW44401   4.023   3.964   6.168
10916SOL    HW144402   4.093   3.918   6.114
10916SOL    HW244403   4.063   4.044   6.214
10917SOL     OW44404   2.939   5.463   3.449
10917SOL    HW144405   3.022   5.413   3.472
10917SOL    HW244406   2.917   5.451   3.352
10918SOL     OW44407   9.249   7.072   6.524
10918SOL    HW144408   9.194   7.126   6.461
10918SOL    HW244409   9.328   7.125   6.554
10919SOL     OW44410   8.477   0.889   3.861
10919SOL    HW144411   8.443   0.980   3.884
10919SOL    HW244412   8.551   0.864   3.924
10920SOL     OW44413   4.621   7.322   3.041
10920SOL    HW144414   4.657   7.383   2.971
10920SOL    HW244415   4.696   7.288   3.098
10921SOL     OW44416   0.352   4.204   0.384
10921SOL    HW144417   0.276   4.264   0.411
10921SOL    HW244418   0.438   4.248   0.406
10922SOL     OW44419   2.517   9.263   0.715
10922SOL    HW144420   2.433   9.216   0.744
10922SOL    HW244421   2.499   9.312   0.630
10923SOL     OW44422   2.545   8.168   6.725
10923SOL    HW144423   2.555   8.089   6.663
10923SOL    HW244424   2.635   8.204   6.748
10924SOL     OW44425   4.188   5.167   2.420
10924SOL    HW144426   4.168   5.264   2.409
10924SOL    HW244427   4.280   5.148   2.385
10925SOL     OW44428   3.019   8.982   0.167
10925SOL    HW144429   3.032   9.051   0.238
10925SOL    HW244430   2.922   8.978   0.142
10926SOL     OW44431   0.714   7.823   3.444
10926SOL    HW144432   0.715   7.899   3.509
10926SOL    HW244433   0.759   7.743   3.485
10927SOL     OW44434   3.405   5.310   6.197
10927SOL    HW144435   3.503   5.313   6.178
10927SOL    HW244436   3.372   5.215   6.193
10928SOL     OW44437   7.134   7.533   5.720
10928SOL    HW144438   7.099   7.458   5.663
10928SOL    HW244439   7.232   7.520   5.734
10929SOL     OW44440   6.096   0.162   5.082
10929SOL    HW144441   6.112   0.076   5.035
10929SOL    HW244442   6.049   0.225   5.020
10930SOL     OW44443   2.399   6.313   1.505
10930SOL    HW144444   2.407   6.413   1.503
10930SOL    HW244445   2.306   6.287   1.478
10931SOL     OW44446   0.265   2.961   4.075
10931SOL    HW144447   0.230   3.034   4.134
10931SOL    HW244448   0.193   2.931   4.013
10932SOL     OW44449   0.208   5.230   6.425
10932SOL    HW144450   0.275   5.271   6.487
10932SOL    HW244451   0.121   5.218   6.474
10933SOL     OW44452   9.241   7.918   3.340
10933SOL    HW144453   9.310   7.983   3.372
10933SOL    HW244454   9.158   7.928   3.393
10934SOL     OW44455   3.055   9.152   0.384
10934SOL    HW144456   3.053   9.239   0.336
10934SOL    HW244457   3.077   9.166   0.480
10935SOL     OW44458   8.135   5.189   4.696
10935SOL    HW144459   8.096   5.280   4.706
10935SOL    HW244460   8.192   5.168   4.775
10936SOL     OW44461   0.236   2.795   6.147
10936SOL    HW144462   0.328   2.773   6.178
10936SOL    HW244463   0.170   2.736   6.194
10937SOL     OW44464   0.767   3.975   7.073
10937SOL    HW144465   0.815   3.990   6.986
10937SOL    HW244466   0.830   3.992   7.149
10938SOL     OW44467   6.020   9.143   7.329
10938SOL    HW144468   5.947   9.080   7.306
10938SOL    HW244469   6.098   9.127   7.268
10939SOL     OW44470   1.567   5.182   3.357
10939SOL    HW144471   1.488   5.161   3.299
10939SOL    HW244472   1.536   5.215   3.446
10940SOL     OW44473   0.771   6.231   1.263
10940SOL    HW144474   0.764   6.331   1.261
10940SOL    HW244475   0.717   6.192   1.189
10941SOL     OW44476   2.880   7.504   4.845
10941SOL    HW144477   2.965   7.519   4.794
10941SOL    HW244478   2.805   7.553   4.800
10942SOL     OW44479   2.232   4.323   4.887
10942SOL    HW144480   2.217   4.239   4.835
10942SOL    HW244481   2.314   4.313   4.944
10943SOL     OW44482   7.956   2.391   4.603
10943SOL    HW144483   7.948   2.402   4.504
10943SOL    HW244484   7.866   2.369   4.641
10944SOL     OW44485   4.852   1.188   5.545
10944SOL    HW144486   4.912   1.193   5.465
10944SOL    HW244487   4.764   1.149   5.518
10945SOL     OW44488   6.600   3.273   1.031
10945SOL    HW144489   6.543   3.223   1.096
10945SOL    HW244490   6.557   3.362   1.011
10946SOL     OW44491   9.365   5.864   0.572
10946SOL    HW144492   9.352   5.836   0.477
10946SOL    HW244493   9.326   5.795   0.633
10947SOL     OW44494   0.696   4.603   3.640
10947SOL    HW144495   0.733   4.660   3.713
10947SOL    HW244496   0.753   4.522   3.628
10948SOL     OW44497   0.436   9.508   4.163
10948SOL    HW144498   0.404   9.516   4.069
10948SOL    HW244499   0.373   9.451   4.215
10949SOL     OW44500   0.566   6.997   2.507
10949SOL    HW144501   0.570   6.976   2.605
10949SOL    HW244502   0.513   6.926   2.460
10950SOL     OW44503   4.645   6.449   2.215
10950SOL    HW144504   4.592   6.368   2.190
10950SOL    HW244505   4.630   6.471   2.311
10951SOL     OW44506   9.463   3.456   6.729
10951SOL    HW144507   9.431   3.547   6.705
10951SOL    HW244508   9.385   3.398   6.752
10952SOL     OW44509   2.266   4.387   5.331
10952SOL    HW144510   2.335   4.425   5.269
10952SOL    HW244511   2.245   4.454   5.402
10953SOL     OW44512   0.655   5.653   7.574
10953SOL    HW144513   0.721   5.580   7.595
10953SOL    HW244514   0.705   5.736   7.550
10954SOL     OW44515   4.191   9.518   1.852
10954SOL    HW144516   4.276   9.569   1.836
10954SOL    HW244517   4.141   9.509   1.766
10955SOL     OW44518   9.377   6.884   2.866
10955SOL    HW144519   9.284   6.915   2.847
10955SOL    HW244520   9.410   6.829   2.789
10956SOL     OW44521   0.259   3.634   6.735
10956SOL    HW144522   0.270   3.696   6.657
10956SOL    HW244523   0.349   3.599   6.762
10957SOL     OW44524   8.117   3.900   4.117
10957SOL    HW144525   8.150   3.828   4.178
10957SOL    HW244526   8.083   3.859   4.032
10958SOL     OW44527   0.713   4.032   7.915
10958SOL    HW144528   0.695   4.039   8.014
10958SOL    HW244529   0.739   4.121   7.879
10959SOL     OW44530   7.847   5.230   7.827
10959SOL    HW144531   7.837   5.143   7.780
10959SOL    HW244532   7.910   5.220   7.904
10960SOL     OW44533   2.510   1.778   7.445
10960SOL    HW144534   2.427   1.724   7.457
10960SOL    HW244535   2.486   1.868   7.409
10961SOL     OW44536   8.901   6.531   0.504
10961SOL    HW144537   8.820   6.584   0.480
10961SOL    HW244538   8.875   6.455   0.564
10962SOL     OW44539   0.244   0.709   0.936
10962SOL    HW144540   0.223   0.804   0.912
10962SOL    HW244541   0.159   0.658   0.946
10963SOL     OW44542   6.402   0.409   6.263
10963SOL    HW144543   6.356   0.486   6.219
10963SOL    HW244544   6.501   0.416   6.250
10964SOL     OW44545   1.702   3.987   7.534
10964SOL    HW144546   1.695   4.050   7.611
10964SOL    HW244547   1.743   3.901   7.564
10965SOL     OW44548   8.348   7.713   7.313
10965SOL    HW144549   8.377   7.729   7.219
10965SOL    HW244550   8.253   7.681   7.314
10966SOL     OW44551   8.527   3.654   1.090
10966SOL    HW144552   8.464   3.614   1.023
10966SOL    HW244553   8.548   3.585   1.160
10967SOL     OW44554   0.700   3.421   1.794
10967SOL    HW144555   0.636   3.346   1.811
10967SOL    HW244556   0.650   3.502   1.764
10968SOL     OW44557   2.812   7.430   0.866
10968SOL    HW144558   2.910   7.422   0.852
10968SOL    HW244559   2.792   7.437   0.964
10969SOL     OW44560   4.925   3.376   0.638
10969SOL    HW144561   4.981   3.296   0.617
10969SOL    HW244562   4.952   3.452   0.579
10970SOL     OW44563   4.606   4.267   6.009
10970SOL    HW144564   4.595   4.298   6.104
10970SOL    HW244565   4.656   4.181   6.009
10971SOL     OW44566   3.907   8.324   7.008
10971SOL    HW144567   3.992   8.375   7.008
10971SOL    HW244568   3.833   8.382   7.042
10972SOL     OW44569   4.784   5.769   1.483
10972SOL    HW144570   4.785   5.725   1.394
10972SOL    HW244571   4.692   5.765   1.522
10973SOL     OW44572   8.117   0.286   7.250
10973SOL    HW144573   8.027   0.258   7.282
10973SOL    HW244574   8.177   0.300   7.329
10974SOL     OW44575   6.930   3.131   2.829
10974SOL    HW144576   6.881   3.175   2.905
10974SOL    HW244577   6.976   3.200   2.774
10975SOL     OW44578   7.983   1.750   4.659
10975SOL    HW144579   7.982   1.650   4.669
10975SOL    HW244580   8.065   1.787   4.702
10976SOL     OW44581   9.822   2.751   1.413
10976SOL    HW144582   9.751   2.717   1.351
10976SOL    HW244583   9.813   2.704   1.501
10977SOL     OW44584   0.114   3.043   6.132
10977SOL    HW144585   0.153   2.950   6.129
10977SOL    HW244586   0.183   3.107   6.166
10978SOL     OW44587   5.242   4.641   6.949
10978SOL    HW144588   5.282   4.673   6.863
10978SOL    HW244589   5.208   4.719   7.001
10979SOL     OW44590   0.616   1.652   0.640
10979SOL    HW144591   0.517   1.647   0.633
10979SOL    HW244592   0.641   1.735   0.691
10980SOL     OW44593   8.891   0.635   3.423
10980SOL    HW144594   8.920   0.562   3.361
10980SOL    HW244595   8.898   0.724   3.377
10981SOL     OW44596   6.736   1.119   3.251
10981SOL    HW144597   6.788   1.047   3.205
10981SOL    HW244598   6.784   1.147   3.334
10982SOL     OW44599   9.049   3.423   5.325
10982SOL    HW144600   8.994   3.434   5.242
10982SOL    HW244601   9.105   3.340   5.317
10983SOL     OW44602   2.965   0.841   0.138
10983SOL    HW144603   3.047   0.899   0.138
10983SOL    HW244604   2.987   0.752   0.100
10984SOL     OW44605   8.555   7.595   6.383
10984SOL    HW144606   8.549   7.664   6.455
10984SOL    HW244607   8.574   7.506   6.424
10985SOL     OW44608   8.482   2.653   5.645
10985SOL    HW144609   8.466   2.567   5.596
10985SOL    HW244610   8.405   2.715   5.628
10986SOL     OW44611   7.784   1.182   2.310
10986SOL    HW144612   7.816   1.226   2.226
10986SOL    HW244613   7.745   1.093   2.289
10987SOL     OW44614   1.164   1.118   1.965
10987SOL    HW144615   1.221   1.154   1.891
10987SOL    HW244616   1.084   1.073   1.926
10988SOL     OW44617   2.459   2.349   5.524
10988SOL    HW144618   2.420   2.302   5.603
10988SOL    HW244619   2.447   2.448   5.536
10989SOL     OW44620   1.379   7.627   4.264
10989SOL    HW144621   1.430   7.672   4.338
10989SOL    HW244622   1.437   7.558   4.221
10990SOL     OW44623   6.964   7.703   6.332
10990SOL    HW144624   6.881   7.647   6.328
10990SOL    HW244625   6.973   7.743   6.422
10991SOL     OW44626   9.060   9.327   6.566
10991SOL    HW144627   8.978   9.305   6.512
10991SOL    HW244628   9.040   9.314   6.663
10992SOL     OW44629   4.661   0.049   0.760
10992SOL    HW144630   4.738   0.106   0.729
10992SOL    HW244631   4.596   0.106   0.809
10993SOL     OW44632   3.995   2.160   5.509
10993SOL    HW144633   3.936   2.241   5.505
10993SOL    HW244634   3.944   2.085   5.551
10994SOL     OW44635   1.411   7.969   1.242
10994SOL    HW144636   1.401   7.931   1.334
10994SOL    HW244637   1.401   7.895   1.175
10995SOL     OW44638   7.690   1.600   5.171
10995SOL    HW144639   7.629   1.550   5.233
10995SOL    HW244640   7.686   1.698   5.193
10996SOL     OW44641   4.499   0.033   2.727
10996SOL    HW144642   4.499   0.065   2.822
10996SOL    HW244643   4.481   0.110   2.666
10997SOL     OW44644   3.206   1.555   3.492
10997SOL    HW144645   3.132   1.613   3.457
10997SOL    HW244646   3.294   1.600   3.475
10998SOL     OW44647   9.381   6.524   7.436
10998SOL    HW144648   9.320   6.596   7.469
10998SOL    HW244649   9.346   6.435   7.465
10999SOL     OW44650   7.823   3.540   2.869
10999SOL    HW144651   7.731   3.580   2.860
10999SOL    HW244652   7.845   3.488   2.787
11000SOL     OW44653   4.467   6.514   3.565
11000SOL    HW144654   4.474   6.598   3.619
11000SOL    HW244655   4.551   6.499   3.514
11001SOL     OW44656   5.049   7.735   2.151
11001SOL    HW144657   5.114   7.780   2.211
11001SOL    HW244658   5.060   7.768   2.057
11002SOL     OW44659   8.891   4.251   6.464
11002SOL    HW144660   8.957   4.317   6.427
11002SOL    HW244661   8.833   4.297   6.532
11003SOL     OW44662   0.266   1.197   1.057
11003SOL    HW144663   0.309   1.245   0.980
11003SOL    HW244664   0.275   1.251   1.140
11004SOL     OW44665   6.273   8.880   2.178
11004SOL    HW144666   6.216   8.880   2.260
11004SOL    HW244667   6.215   8.863   2.098
11005SOL     OW44668   7.512   4.249   3.425
11005SOL    HW144669   7.460   4.220   3.506
11005SOL    HW244670   7.608   4.223   3.435
11006SOL     OW44671   0.993   3.927   6.067
11006SOL    HW144672   1.022   3.832   6.054
11006SOL    HW244673   0.927   3.931   6.142
11007SOL     OW44674   1.231   4.437   7.752
11007SOL    HW144675   1.177   4.464   7.831
11007SOL    HW244676   1.176   4.378   7.693
11008SOL     OW44677   6.710   7.694   2.302
11008SOL    HW144678   6.792   7.717   2.353
11008SOL    HW244679   6.691   7.596   2.312
11009SOL     OW44680   1.974   1.202   4.521
11009SOL    HW144681   1.881   1.172   4.542
11009SOL    HW244682   2.038   1.128   4.544
11010SOL     OW44683   7.234   7.233   2.604
11010SOL    HW144684   7.160   7.166   2.594
11010SOL    HW244685   7.304   7.195   2.665
11011SOL     OW44686   8.693   5.977   0.177
11011SOL    HW144687   8.682   6.003   0.081
11011SOL    HW244688   8.604   5.978   0.222
11012SOL     OW44689   7.480   3.891   0.253
11012SOL    HW144690   7.399   3.869   0.198
11012SOL    HW244691   7.560   3.846   0.214
11013SOL     OW44692   5.984   5.328   1.343
11013SOL    HW144693   6.012   5.389   1.417
11013SOL    HW244694   5.988   5.377   1.256
11014SOL     OW44695   2.483   6.903   2.207
11014SOL    HW144696   2.474   6.982   2.268
11014SOL    HW244697   2.434   6.922   2.122
11015SOL     OW44698   6.390   1.080   0.676
11015SOL    HW144699   6.427   1.018   0.745
11015SOL    HW244700   6.401   1.175   0.707
11016SOL     OW44701   7.245   9.758   5.859
11016SOL    HW144702   7.257   9.663   5.889
11016SOL    HW244703   7.314   9.780   5.790
11017SOL     OW44704   9.257   8.599   4.744
11017SOL    HW144705   9.248   8.510   4.789
11017SOL    HW244706   9.248   8.588   4.645
11018SOL     OW44707   3.099   1.478   0.763
11018SOL    HW144708   3.104   1.410   0.836
11018SOL    HW244709   3.104   1.432   0.674
11019SOL     OW44710   5.570   8.048   6.563
11019SOL    HW144711   5.647   7.985   6.569
11019SOL    HW244712   5.531   8.045   6.470
11020SOL     OW44713   5.614   1.262   6.128
11020SOL    HW144714   5.523   1.243   6.090
11020SOL    HW244715   5.633   1.197   6.202
11021SOL     OW44716   1.898   9.935   0.418
11021SOL    HW144717   1.953   0.015   0.444
11021SOL    HW244718   1.922   9.907   0.324
11022SOL     OW44719   5.724   0.039   2.851
11022SOL    HW144720   5.667   0.101   2.905
11022SOL    HW244721   5.670   0.003   2.775
11023SOL     OW44722   7.936   7.209   2.605
11023SOL    HW144723   7.974   7.294   2.567
11023SOL    HW244724   7.847   7.229   2.645
11024SOL     OW44725   4.775   3.751   7.412
11024SOL    HW144726   4.773   3.818   7.486
11024SOL    HW244727   4.827   3.671   7.440
11025SOL     OW44728   4.355   6.821   1.129
11025SOL    HW144729   4.391   6.768   1.206
11025SOL    HW244730   4.372   6.771   1.044
11026SOL     OW44731   0.604   3.341   0.623
11026SOL    HW144732   0.675   3.410   0.633
11026SOL    HW244733   0.518   3.376   0.658
11027SOL     OW44734   0.768   0.309   0.905
11027SOL    HW144735   0.753   0.316   1.004
11027SOL    HW244736   0.768   0.213   0.877
11028SOL     OW44737   7.258   2.748   2.877
11028SOL    HW144738   7.167   2.774   2.911
11028SOL    HW244739   7.318   2.727   2.954
11029SOL     OW44740   4.035   8.868   7.048
11029SOL    HW144741   4.025   8.865   7.148
11029SOL    HW244742   4.131   8.885   7.025
11030SOL     OW44743   8.118   4.090   3.502
11030SOL    HW144744   8.022   4.064   3.491
11030SOL    HW244745   8.140   4.097   3.599
11031SOL     OW44746   3.158   5.572   2.949
11031SOL    HW144747   3.212   5.645   2.907
11031SOL    HW244748   3.100   5.610   3.020
11032SOL     OW44749   8.519   0.478   2.939
11032SOL    HW144750   8.493   0.507   3.031
11032SOL    HW244751   8.436   0.461   2.886
11033SOL     OW44752   9.406   9.228   7.324
11033SOL    HW144753   9.491   9.204   7.278
11033SOL    HW244754   9.422   9.234   7.423
11034SOL     OW44755   0.888   9.947   2.791
11034SOL    HW144756   0.964   9.972   2.730
11034SOL    HW244757   0.918   9.877   2.855
11035SOL     OW44758   3.689   9.489   7.494
11035SOL    HW144759   3.618   9.556   7.513
11035SOL    HW244760   3.751   9.525   7.423
11036SOL     OW44761   4.075   9.264   5.535
11036SOL    HW144762   4.084   9.344   5.593
11036SOL    HW244763   4.126   9.187   5.575
11037SOL     OW44764   8.531   5.577   6.580
11037SOL    HW144765   8.604   5.539   6.523
11037SOL    HW244766   8.455   5.607   6.522
11038SOL     OW44767   0.520   1.856   0.829
11038SOL    HW144768   0.442   1.912   0.856
11038SOL    HW244769   0.605   1.900   0.859
11039SOL     OW44770   3.431   4.086   1.673
11039SOL    HW144771   3.381   4.034   1.604
11039SOL    HW244772   3.527   4.096   1.645
11040SOL     OW44773   8.244   3.492   3.101
11040SOL    HW144774   8.282   3.567   3.156
11040SOL    HW244775   8.146   3.508   3.087
11041SOL     OW44776   1.226   5.581   4.481
11041SOL    HW144777   1.146   5.566   4.422
11041SOL    HW244778   1.211   5.537   4.569
11042SOL     OW44779   3.152   5.596   4.475
11042SOL    HW144780   3.189   5.589   4.568
11042SOL    HW244781   3.162   5.691   4.443
11043SOL     OW44782   0.928   2.600   0.247
11043SOL    HW144783   1.014   2.558   0.276
11043SOL    HW244784   0.869   2.531   0.206
11044SOL     OW44785   4.472   4.553   5.417
11044SOL    HW144786   4.486   4.504   5.503
11044SOL    HW244787   4.555   4.603   5.392
11045SOL     OW44788   3.284   1.539   6.304
11045SOL    HW144789   3.195   1.577   6.332
11045SOL    HW244790   3.327   1.496   6.384
11046SOL     OW44791   8.125   6.862   6.300
11046SOL    HW144792   8.181   6.941   6.326
11046SOL    HW244793   8.076   6.883   6.215
11047SOL     OW44794   7.387   3.290   3.398
11047SOL    HW144795   7.460   3.323   3.338
11047SOL    HW244796   7.307   3.266   3.343
11048SOL     OW44797   9.039   8.426   4.228
11048SOL    HW144798   9.065   8.409   4.133
11048SOL    HW244799   8.958   8.484   4.231
11049SOL     OW44800   8.304   2.606   1.522
11049SOL    HW144801   8.262   2.648   1.602
11049SOL    HW244802   8.313   2.674   1.449
11050SOL     OW44803   2.950   9.908   2.628
11050SOL    HW144804   3.013   9.898   2.706
11050SOL    HW244805   2.960  10.000   2.589
11051SOL     OW44806   3.212   0.807   2.639
11051SOL    HW144807   3.264   0.875   2.691
11051SOL    HW244808   3.114   0.825   2.649
11052SOL     OW44809   3.702   4.171   6.340
11052SOL    HW144810   3.631   4.179   6.409
11052SOL    HW244811   3.666   4.123   6.260
11053SOL     OW44812   4.596   3.036   1.703
11053SOL    HW144813   4.623   2.948   1.664
11053SOL    HW244814   4.518   3.023   1.764
11054SOL     OW44815   1.459   7.346   3.679
11054SOL    HW144816   1.405   7.353   3.595
11054SOL    HW244817   1.423   7.272   3.736
11055SOL     OW44818   9.393   0.443   1.341
11055SOL    HW144819   9.418   0.539   1.357
11055SOL    HW244820   9.308   0.422   1.388
11056SOL     OW44821   7.213   0.669   5.821
11056SOL    HW144822   7.135   0.726   5.847
11056SOL    HW244823   7.254   0.629   5.902
11057SOL     OW44824   1.286   5.235   2.821
11057SOL    HW144825   1.351   5.296   2.776
11057SOL    HW244826   1.274   5.264   2.916
11058SOL     OW44827   7.433   9.823   5.669
11058SOL    HW144828   7.430   9.847   5.572
11058SOL    HW244829   7.492   9.887   5.718
11059SOL     OW44830   3.058   9.200   3.730
11059SOL    HW144831   3.134   9.265   3.729
11059SOL    HW244832   3.043   9.164   3.638
11060SOL     OW44833   9.462   9.823   3.948
11060SOL    HW144834   9.497   9.895   4.009
11060SOL    HW244835   9.496   9.839   3.856
11061SOL     OW44836   8.847   5.783   5.470
11061SOL    HW144837   8.937   5.824   5.483
11061SOL    HW244838   8.856   5.693   5.428
11062SOL     OW44839   8.624   1.804   3.236
11062SOL    HW144840   8.558   1.817   3.162
11062SOL    HW244841   8.672   1.717   3.224
11063SOL     OW44842   1.679   4.811   7.010
11063SOL    HW144843   1.655   4.779   7.102
11063SOL    HW244844   1.637   4.751   6.942
11064SOL     OW44845   6.146   5.345   7.827
11064SOL    HW144846   6.175   5.427   7.876
11064SOL    HW244847   6.181   5.348   7.733
11065SOL     OW44848   8.766   1.571   3.186
11065SOL    HW144849   8.751   1.488   3.132
11065SOL    HW244850   8.843   1.622   3.149
11066SOL     OW44851   0.010   2.154   0.319
11066SOL    HW144852   9.919   2.135   0.356
11066SOL    HW244853   0.077   2.157   0.393
11067SOL     OW44854   3.667   1.775   0.117
11067SOL    HW144855   3.749   1.756   0.062
11067SOL    HW244856   3.621   1.689   0.140
11068SOL     OW44857   1.928   5.514   6.566
11068SOL    HW144858   1.922   5.422   6.527
11068SOL    HW244859   1.840   5.538   6.607
11069SOL     OW44860   4.497   1.752   4.739
11069SOL    HW144861   4.490   1.833   4.797
11069SOL    HW244862   4.406   1.715   4.722
11070SOL     OW44863   2.441   7.104   2.393
11070SOL    HW144864   2.474   7.045   2.468
11070SOL    HW244865   2.344   7.122   2.406
11071SOL     OW44866   2.313   7.200   2.007
11071SOL    HW144867   2.224   7.243   2.019
11071SOL    HW244868   2.384   7.259   2.047
11072SOL     OW44869   9.107   9.975   5.842
11072SOL    HW144870   9.171   9.903   5.816
11072SOL    HW244871   9.147   0.030   5.916
11073SOL     OW44872   0.435   5.086   2.880
11073SOL    HW144873   0.378   5.027   2.937
11073SOL    HW244874   0.507   5.031   2.838
11074SOL     OW44875   7.575   2.138   3.891
11074SOL    HW144876   7.638   2.102   3.960
11074SOL    HW244877   7.605   2.110   3.800
11075SOL     OW44878   0.057   4.672   5.766
11075SOL    HW144879   0.071   4.761   5.809
11075SOL    HW244880   0.055   4.683   5.667
11076SOL     OW44881   2.303   8.655   5.690
11076SOL    HW144882   2.366   8.724   5.725
11076SOL    HW244883   2.229   8.700   5.641
11077SOL     OW44884   5.682   8.975   3.307
11077SOL    HW144885   5.736   8.904   3.352
11077SOL    HW244886   5.710   9.065   3.343
11078SOL     OW44887   0.837   6.596   2.891
11078SOL    HW144888   0.753   6.649   2.906
11078SOL    HW244889   0.916   6.652   2.916
11079SOL     OW44890   1.467   0.515   6.423
11079SOL    HW144891   1.399   0.493   6.493
11079SOL    HW244892   1.558   0.516   6.464
11080SOL     OW44893   0.963   8.019   5.862
11080SOL    HW144894   0.897   8.003   5.935
11080SOL    HW244895   1.038   8.075   5.896
11081SOL     OW44896   2.913   2.427   0.464
11081SOL    HW144897   3.002   2.405   0.424
11081SOL    HW244898   2.927   2.480   0.547
11082SOL     OW44899   4.798   5.453   4.094
11082SOL    HW144900   4.837   5.421   4.007
11082SOL    HW244901   4.754   5.376   4.140
11083SOL     OW44902   0.231   6.206   5.180
11083SOL    HW144903   0.268   6.191   5.088
11083SOL    HW244904   0.304   6.234   5.242
11084SOL     OW44905   4.399   1.651   1.401
11084SOL    HW144906   4.462   1.704   1.457
11084SOL    HW244907   4.316   1.704   1.384
11085SOL     OW44908   7.482   9.368   2.548
11085SOL    HW144909   7.424   9.434   2.501
11085SOL    HW244910   7.432   9.282   2.559
11086SOL     OW44911   5.103   5.701   1.179
11086SOL    HW144912   5.082   5.612   1.140
11086SOL    HW244913   5.037   5.769   1.147
11087SOL     OW44914   6.815   2.910   2.719
11087SOL    HW144915   6.747   2.950   2.657
11087SOL    HW244916   6.868   2.983   2.762
11088SOL     OW44917   8.023   8.854   2.455
11088SOL    HW144918   8.078   8.818   2.530
11088SOL    HW244919   8.073   8.846   2.369
11089SOL     OW44920   1.593   4.958   1.119
11089SOL    HW144921   1.502   4.987   1.150
11089SOL    HW244922   1.648   4.929   1.197
11090SOL     OW44923   1.961   6.051   6.317
11090SOL    HW144924   1.885   6.109   6.290
11090SOL    HW244925   2.047   6.095   6.292
11091SOL     OW44926   5.696   1.148   4.999
11091SOL    HW144927   5.720   1.192   5.085
11091SOL    HW244928   5.770   1.161   4.933
11092SOL     OW44929   2.265   5.355   7.776
11092SOL    HW144930   2.335   5.426   7.778
11092SOL    HW244931   2.183   5.387   7.823
11093SOL     OW44932   0.524   5.507   2.430
11093SOL    HW144933   0.448   5.551   2.477
11093SOL    HW244934   0.492   5.471   2.342
11094SOL     OW44935   3.100   7.194   3.185
11094SOL    HW144936   3.150   7.190   3.272
11094SOL    HW244937   3.162   7.221   3.112
11095SOL     OW44938   9.684   8.409   4.307
11095SOL    HW144939   9.649   8.480   4.245
11095SOL    HW244940   9.784   8.413   4.308
11096SOL     OW44941   1.943   2.521   5.969
11096SOL    HW144942   1.954   2.583   6.047
11096SOL    HW244943   1.910   2.573   5.891
11097SOL     OW44944   8.545   9.079   2.509
11097SOL    HW144945   8.534   9.083   2.409
11097SOL    HW244946   8.507   8.994   2.543
11098SOL     OW44947   1.729   3.995   4.360
11098SOL    HW144948   1.712   3.958   4.451
11098SOL    HW244949   1.661   3.959   4.296
11099SOL     OW44950   7.694   1.369   2.663
11099SOL    HW144951   7.752   1.290   2.644
11099SOL    HW244952   7.747   1.453   2.649
11100SOL     OW44953   1.342   4.245   2.473
11100SOL    HW144954   1.286   4.328   2.479
11100SOL    HW244955   1.328   4.191   2.556
11101SOL     OW44956   2.337   9.928   6.683
11101SOL    HW144957   2.322   9.835   6.649
11101SOL    HW244958   2.319   9.994   6.610
11102SOL     OW44959   4.224   3.335   2.674
11102SOL    HW144960   4.303   3.387   2.705
11102SOL    HW244961   4.226   3.243   2.714
11103SOL     OW44962   9.978   3.349   4.515
11103SOL    HW144963   9.941   3.256   4.509
11103SOL    HW244964   9.999   3.382   4.423
11104SOL     OW44965   1.288   6.319   7.361
11104SOL    HW144966   1.197   6.282   7.344
11104SOL    HW244967   1.293   6.412   7.324
11105SOL     OW44968   0.360   9.536   3.898
11105SOL    HW144969   0.390   9.628   3.873
11105SOL    HW244970   0.397   9.471   3.831
11106SOL     OW44971   1.049   4.084   2.742
11106SOL    HW144972   1.014   4.080   2.836
11106SOL    HW244973   1.016   4.167   2.698
11107SOL     OW44974   3.192   6.158   4.953
11107SOL    HW144975   3.258   6.132   5.023
11107SOL    HW244976   3.103   6.174   4.996
11108SOL     OW44977   5.558   3.736   0.968
11108SOL    HW144978   5.521   3.764   0.879
11108SOL    HW244979   5.490   3.755   1.039
11109SOL     OW44980   1.812   5.266   6.820
11109SOL    HW144981   1.812   5.172   6.855
11109SOL    HW244982   1.733   5.280   6.761
11110SOL     OW44983   1.492   0.080   7.821
11110SOL    HW144984   1.416   0.030   7.780
11110SOL    HW244985   1.553   0.015   7.869
11111SOL     OW44986   4.621   5.467   3.759
11111SOL    HW144987   4.634   5.559   3.796
11111SOL    HW244988   4.624   5.470   3.659
11112SOL     OW44989   1.091   5.706   7.423
11112SOL    HW144990   1.128   5.796   7.446
11112SOL    HW244991   1.073   5.655   7.507
11113SOL     OW44992   3.212   6.473   1.051
11113SOL    HW144993   3.229   6.374   1.054
11113SOL    HW244994   3.220   6.512   1.143
11114SOL     OW44995   9.097   4.149   6.838
11114SOL    HW144996   9.024   4.214   6.859
11114SOL    HW244997   9.175   4.165   6.898
11115SOL     OW44998   8.557   5.318   4.388
11115SOL    HW144999   8.642   5.371   4.382
11115SOL    HW245000   8.518   5.329   4.480
11116SOL     OW45001   2.911   5.958   6.742
11116SOL    HW145002   2.839   5.998   6.684
11116SOL    HW245003   2.895   5.983   6.837
11117SOL     OW45004   9.441   9.002   6.044
11117SOL    HW145005   9.391   9.031   5.962
11117SOL    HW245006   9.417   9.063   6.120
11118SOL     OW45007   2.222   6.388   5.146
11118SOL    HW145008   2.279   6.350   5.219
11118SOL    HW245009   2.203   6.484   5.165
11119SOL     OW45010   5.670   3.625   0.046
11119SOL    HW145011   5.735   3.699   0.064
11119SOL    HW245012   5.647   3.579   0.132
11120SOL     OW45013   4.966   0.901   4.709
11120SOL    HW145014   4.900   0.918   4.636
11120SOL    HW245015   5.043   0.847   4.673
11121SOL     OW45016   9.790   1.992   5.212
11121SOL    HW145017   9.706   1.967   5.262
11121SOL    HW245018   9.778   1.971   5.115
11122SOL     OW45019   6.214   8.347   1.975
11122SOL    HW145020   6.187   8.271   1.915
11122SOL    HW245021   6.282   8.315   2.041
11123SOL     OW45022   9.866   8.351   2.525
11123SOL    HW145023   9.778   8.336   2.570
11123SOL    HW245024   9.915   8.424   2.573
11124SOL     OW45025   2.938   5.779   2.615
11124SOL    HW145026   3.003   5.788   2.539
11124SOL    HW245027   2.944   5.687   2.653
11125SOL     OW45028   0.526   1.367   1.538
11125SOL    HW145029   0.601   1.317   1.581
11125SOL    HW245030   0.544   1.375   1.440
11126SOL     OW45031   3.340   9.081   3.554
11126SOL    HW145032   3.299   9.165   3.520
11126SOL    HW245033   3.419   9.057   3.496
11127SOL     OW45034   9.127   7.201   2.895
11127SOL    HW145035   9.227   7.208   2.905
11127SOL    HW245036   9.084   7.210   2.984
11128SOL     OW45037   7.900   3.913   5.543
11128SOL    HW145038   7.899   3.826   5.494
11128SOL    HW245039   7.892   3.988   5.478
11129SOL     OW45040   4.105   5.403   0.697
11129SOL    HW145041   4.060   5.426   0.610
11129SOL    HW245042   4.035   5.389   0.767
11130SOL     OW45043   8.959   6.137   7.923
11130SOL    HW145044   8.955   6.068   7.850
11130SOL    HW245045   9.025   6.108   7.992
11131SOL     OW45046   8.976   6.100   4.360
11131SOL    HW145047   8.930   6.078   4.446
11131SOL    HW245048   9.053   6.038   4.346
11132SOL     OW45049   8.873   5.481   7.682
11132SOL    HW145050   8.969   5.486   7.710
11132SOL    HW245051   8.822   5.424   7.747
11133SOL     OW45052   0.146   0.819   1.660
11133SOL    HW145053   0.115   0.726   1.643
11133SOL    HW245054   0.141   0.872   1.575
11134SOL     OW45055   3.869   3.419   7.010
11134SOL    HW145056   3.811   3.342   6.984
11134SOL    HW245057   3.945   3.428   6.946
11135SOL     OW45058   0.303   0.454   4.197
11135SOL    HW145059   0.361   0.477   4.275
11135SOL    HW245060   0.354   0.396   4.134
11136SOL     OW45061   3.006   5.065   5.736
11136SOL    HW145062   3.047   4.987   5.689
11136SOL    HW245063   3.027   5.059   5.834
11137SOL     OW45064   2.667   7.511   6.314
11137SOL    HW145065   2.644   7.424   6.270
11137SOL    HW245066   2.746   7.552   6.268
11138SOL     OW45067   4.513   2.938   5.676
11138SOL    HW145068   4.463   2.879   5.739
11138SOL    HW245069   4.457   3.017   5.651
11139SOL     OW45070   1.659   8.745   0.764
11139SOL    HW145071   1.732   8.801   0.725
11139SOL    HW245072   1.570   8.778   0.730
11140SOL     OW45073   1.787   9.334   6.715
11140SOL    HW145074   1.806   9.284   6.799
11140SOL    HW245075   1.872   9.350   6.665
11141SOL     OW45076   0.574   3.412   6.037
11141SOL    HW145077   0.614   3.476   5.970
11141SOL    HW245078   0.494   3.367   5.997
11142SOL     OW45079   8.158   6.806   4.824
11142SOL    HW145080   8.224   6.870   4.864
11142SOL    HW245081   8.203   6.718   4.809
11143SOL     OW45082   0.332   5.170   7.302
11143SOL    HW145083   0.280   5.135   7.225
11143SOL    HW245084   0.350   5.096   7.368
11144SOL     OW45085   0.218   5.716   2.921
11144SOL    HW145086   0.197   5.654   2.997
11144SOL    HW245087   0.154   5.792   2.921
11145SOL     OW45088   6.734   9.063   6.298
11145SOL    HW145089   6.781   9.129   6.239
11145SOL    HW245090   6.690   9.111   6.373
11146SOL     OW45091   1.577   2.815   2.764
11146SOL    HW145092   1.577   2.816   2.864
11146SOL    HW245093   1.615   2.728   2.732
11147SOL     OW45094   6.323   7.862   7.191
11147SOL    HW145095   6.408   7.896   7.151
11147SOL    HW245096   6.325   7.875   7.290
11148SOL     OW45097   8.806   9.701   4.785
11148SOL    HW145098   8.773   9.643   4.710
11148SOL    HW245099   8.901   9.725   4.769
11149SOL     OW45100   6.330   1.060   1.556
11149SOL    HW145101   6.265   1.043   1.630
11149SOL    HW245102   6.412   1.102   1.594
11150SOL     OW45103   9.528   1.042   6.920
11150SOL    HW145104   9.561   0.976   6.988
11150SOL    HW245105   9.441   1.010   6.882
11151SOL     OW45106   3.940   9.745   1.487
11151SOL    HW145107   3.999   9.795   1.424
11151SOL    HW245108   3.852   9.727   1.444
11152SOL     OW45109   7.877   1.512   3.332
11152SOL    HW145110   7.938   1.560   3.269
11152SOL    HW245111   7.812   1.578   3.371
11153SOL     OW45112   8.034   5.879   7.232
11153SOL    HW145113   8.080   5.880   7.321
11153SOL    HW245114   8.022   5.785   7.201
11154SOL     OW45115   3.584   1.627   6.559
11154SOL    HW145116   3.528   1.709   6.570
11154SOL    HW245117   3.527   1.550   6.530
11155SOL     OW45118   0.961   1.842   3.257
11155SOL    HW145119   0.943   1.759   3.309
11155SOL    HW245120   0.993   1.914   3.319
11156SOL     OW45121   5.404   7.421   3.473
11156SOL    HW145122   5.445   7.496   3.421
11156SOL    HW245123   5.392   7.341   3.413
11157SOL     OW45124   8.345   5.936   6.569
11157SOL    HW145125   8.249   5.917   6.592
11157SOL    HW245126   8.398   5.945   6.652
11158SOL     OW45127   3.046   1.745   3.357
11158SOL    HW145128   3.116   1.798   3.309
11158SOL    HW245129   2.990   1.695   3.291
11159SOL     OW45130   2.178   0.379   7.253
11159SOL    HW145131   2.203   0.440   7.328
11159SOL    HW245132   2.126   0.301   7.289
11160SOL     OW45133   7.680   0.507   0.514
11160SOL    HW145134   7.598   0.469   0.471
11160SOL    HW245135   7.659   0.532   0.609
11161SOL     OW45136   5.891   4.292   2.151
11161SOL    HW145137   5.874   4.324   2.245
11161SOL    HW245138   5.962   4.221   2.152
11162SOL     OW45139   9.090   6.177   2.726
11162SOL    HW145140   9.120   6.088   2.690
11162SOL    HW245141   9.022   6.217   2.665
11163SOL     OW45142   2.423   2.497   5.054
11163SOL    HW145143   2.463   2.441   5.127
11163SOL    HW245144   2.366   2.569   5.095
11164SOL     OW45145   0.944   6.708   4.722
11164SOL    HW145146   0.861   6.689   4.774
11164SOL    HW245147   1.006   6.763   4.778
11165SOL     OW45148   8.981   4.538   3.911
11165SOL    HW145149   9.075   4.508   3.927
11165SOL    HW245150   8.963   4.621   3.965
11166SOL     OW45151   8.441   7.050   5.845
11166SOL    HW145152   8.529   7.004   5.833
11166SOL    HW245153   8.374   6.985   5.882
11167SOL     OW45154   2.985   9.650   1.039
11167SOL    HW145155   2.887   9.668   1.029
11167SOL    HW245156   3.005   9.557   1.011
11168SOL     OW45157   1.881   3.818   6.714
11168SOL    HW145158   1.973   3.852   6.694
11168SOL    HW245159   1.863   3.735   6.662
11169SOL     OW45160   0.290   7.765   5.641
11169SOL    HW145161   0.357   7.792   5.710
11169SOL    HW245162   0.335   7.706   5.573
11170SOL     OW45163   9.542   4.500   2.190
11170SOL    HW145164   9.474   4.500   2.264
11170SOL    HW245165   9.498   4.527   2.105
11171SOL     OW45166   2.941   5.434   7.378
11171SOL    HW145167   2.963   5.506   7.444
11171SOL    HW245168   2.924   5.348   7.427
11172SOL     OW45169   6.541   8.050   5.987
11172SOL    HW145170   6.529   8.150   5.987
11172SOL    HW245171   6.525   8.016   5.894
11173SOL     OW45172   6.121   9.479   7.652
11173SOL    HW145173   6.212   9.516   7.669
11173SOL    HW245174   6.111   9.391   7.697
11174SOL     OW45175   3.673   1.050   2.925
11174SOL    HW145176   3.604   1.031   2.995
11174SOL    HW245177   3.657   0.991   2.846
11175SOL     OW45178   8.906   3.795   5.330
11175SOL    HW145179   8.994   3.760   5.361
11175SOL    HW245180   8.888   3.884   5.372
11176SOL     OW45181   2.951   0.404   6.829
11176SOL    HW145182   2.978   0.318   6.785
11176SOL    HW245183   3.030   0.466   6.831
11177SOL     OW45184   2.536   1.453   0.202
11177SOL    HW145185   2.571   1.383   0.139
11177SOL    HW245186   2.541   1.543   0.158
11178SOL     OW45187   4.083   4.901   4.543
11178SOL    HW145188   4.148   4.829   4.519
11178SOL    HW245189   4.133   4.980   4.578
11179SOL     OW45190   0.166   9.169   0.776
11179SOL    HW145191   0.101   9.244   0.789
11179SOL    HW245192   0.259   9.206   0.770
11180SOL     OW45193   2.443   1.268   6.734
11180SOL    HW145194   2.345   1.261   6.752
11180SOL    HW245195   2.478   1.350   6.778
11181SOL     OW45196   4.697   2.434   0.474
11181SOL    HW145197   4.618   2.471   0.426
11181SOL    HW245198   4.734   2.503   0.536
11182SOL     OW45199   7.652   9.394   5.464
11182SOL    HW145200   7.574   9.344   5.501
11182SOL    HW245201   7.621   9.450   5.387
11183SOL     OW45202   3.573   0.323   3.193
11183SOL    HW145203   3.572   0.333   3.293
11183SOL    HW245204   3.613   0.235   3.169
11184SOL     OW45205   9.673   0.273   2.469
11184SOL    HW145206   9.708   0.365   2.453
11184SOL    HW245207   9.652   0.262   2.566
11185SOL     OW45208   0.422   6.210   4.664
11185SOL    HW145209   0.355   6.259   4.609
11185SOL    HW245210   0.470   6.143   4.606
11186SOL     OW45211   6.711   5.503   1.377
11186SOL    HW145212   6.676   5.585   1.331
11186SOL    HW245213   6.778   5.457   1.319
11187SOL     OW45214   2.658   4.714   7.317
11187SOL    HW145215   2.673   4.637   7.378
11187SOL    HW245216   2.728   4.783   7.333
11188SOL     OW45217   4.437   0.253   1.536
11188SOL    HW145218   4.343   0.275   1.565
11188SOL    HW245219   4.474   0.181   1.595
11189SOL     OW45220   4.361   3.593   1.214
11189SOL    HW145221   4.360   3.691   1.194
11189SOL    HW245222   4.286   3.548   1.164
11190SOL     OW45223   3.025   4.912   5.091
11190SOL    HW145224   3.016   4.967   5.175
11190SOL    HW245225   2.947   4.930   5.032
11191SOL     OW45226   2.678   2.604   4.412
11191SOL    HW145227   2.676   2.699   4.442
11191SOL    HW245228   2.681   2.544   4.492
11192SOL     OW45229   7.273   7.712   2.238
11192SOL    HW145230   7.336   7.638   2.213
11192SOL    HW245231   7.325   7.795   2.257
11193SOL     OW45232   3.326   9.366   4.962
11193SOL    HW145233   3.296   9.380   5.057
11193SOL    HW245234   3.294   9.277   4.931
11194SOL     OW45235   8.386   4.653   0.449
11194SOL    HW145236   8.441   4.696   0.520
11194SOL    HW245237   8.408   4.556   0.444
11195SOL     OW45238   2.380   2.001   7.732
11195SOL    HW145239   2.391   2.093   7.771
11195SOL    HW245240   2.286   1.990   7.700
11196SOL     OW45241   0.335   7.228   7.689
11196SOL    HW145242   0.420   7.280   7.692
11196SOL    HW245243   0.281   7.257   7.610
11197SOL     OW45244   4.070   4.679   5.022
11197SOL    HW145245   4.085   4.778   5.026
11197SOL    HW245246   4.035   4.655   4.932
11198SOL     OW45247   3.763   9.331   3.504
11198SOL    HW145248   3.785   9.422   3.540
11198SOL    HW245249   3.667   9.329   3.477
11199SOL     OW45250   0.686   7.246   6.413
11199SOL    HW145251   0.642   7.188   6.482
11199SOL    HW245252   0.738   7.190   6.349
11200SOL     OW45253   0.759   4.452   7.753
11200SOL    HW145254   0.771   4.354   7.734
11200SOL    HW245255   0.663   4.477   7.739
11201SOL     OW45256   6.959   8.140   7.581
11201SOL    HW145257   6.996   8.218   7.630
11201SOL    HW245258   6.865   8.160   7.552
11202SOL     OW45259   1.259   9.393   7.502
11202SOL    HW145260   1.269   9.474   7.444
11202SOL    HW245261   1.243   9.313   7.445
11203SOL     OW45262   0.463   4.406   5.169
11203SOL    HW145263   0.366   4.386   5.153
11203SOL    HW245264   0.519   4.343   5.117
11204SOL     OW45265   1.600   0.396   3.259
11204SOL    HW145266   1.620   0.485   3.219
11204SOL    HW245267   1.686   0.350   3.283
11205SOL     OW45268   6.635   0.559   5.260
11205SOL    HW145269   6.576   0.552   5.179
11205SOL    HW245270   6.650   0.655   5.282
11206SOL     OW45271   3.097   3.963   3.887
11206SOL    HW145272   3.010   3.934   3.849
11206SOL    HW245273   3.108   4.062   3.874
11207SOL     OW45274   4.145   4.940   5.324
11207SOL    HW145275   4.181   4.856   5.363
11207SOL    HW245276   4.051   4.954   5.357
11208SOL     OW45277   2.695   5.990   6.014
11208SOL    HW145278   2.755   5.979   6.093
11208SOL    HW245279   2.691   5.905   5.962
11209SOL     OW45280   0.179   9.389   0.068
11209SOL    HW145281   0.102   9.396   0.131
11209SOL    HW245282   0.224   9.478   0.060
11210SOL     OW45283   3.073   2.592   1.771
11210SOL    HW145284   3.121   2.506   1.786
11210SOL    HW245285   3.063   2.640   1.859
11211SOL     OW45286   1.685   9.913   5.944
11211SOL    HW145287   1.741   9.830   5.944
11211SOL    HW245288   1.719   9.976   5.874
11212SOL     OW45289   8.381   0.669   2.019
11212SOL    HW145290   8.401   0.730   1.942
11212SOL    HW245291   8.329   0.719   2.088
11213SOL     OW45292   2.815   6.512   4.004
11213SOL    HW145293   2.798   6.573   3.927
11213SOL    HW245294   2.841   6.421   3.971
11214SOL     OW45295   4.210   7.565   5.332
11214SOL    HW145296   4.277   7.576   5.406
11214SOL    HW245297   4.251   7.511   5.258
11215SOL     OW45298   2.662   8.381   5.486
11215SOL    HW145299   2.719   8.304   5.515
11215SOL    HW245300   2.706   8.429   5.410
11216SOL     OW45301   4.072   1.900   7.695
11216SOL    HW145302   4.006   1.831   7.725
11216SOL    HW245303   4.074   1.975   7.760
11217SOL     OW45304   0.985   9.417   1.840
11217SOL    HW145305   0.894   9.378   1.852
11217SOL    HW245306   1.046   9.349   1.799
11218SOL     OW45307   5.355   0.940   6.122
11218SOL    HW145308   5.350   1.039   6.108
11218SOL    HW245309   5.366   0.895   6.033
11219SOL     OW45310   9.874   2.047   0.718
11219SOL    HW145311   9.849   2.041   0.621
11219SOL    HW245312   9.791   2.039   0.774
11220SOL     OW45313   4.121   0.607   5.302
11220SOL    HW145314   4.033   0.562   5.285
11220SOL    HW245315   4.192   0.565   5.245
11221SOL     OW45316   7.571   3.270   1.708
11221SOL    HW145317   7.489   3.215   1.718
11221SOL    HW245318   7.652   3.211   1.712
11222SOL     OW45319   2.855   3.586   2.604
11222SOL    HW145320   2.857   3.642   2.686
11222SOL    HW245321   2.859   3.645   2.523
11223SOL     OW45322   2.646   5.172   4.727
11223SOL    HW145323   2.607   5.256   4.763
11223SOL    HW245324   2.710   5.193   4.653
11224SOL     OW45325   2.430   1.449   1.652
11224SOL    HW145326   2.478   1.391   1.587
11224SOL    HW245327   2.495   1.488   1.717
11225SOL     OW45328   2.248   2.362   3.430
11225SOL    HW145329   2.301   2.447   3.429
11225SOL    HW245330   2.281   2.302   3.358
11226SOL     OW45331   9.487   4.492   0.759
11226SOL    HW145332   9.482   4.423   0.687
11226SOL    HW245333   9.576   4.485   0.805
11227SOL     OW45334   8.947   8.142   6.501
11227SOL    HW145335   8.952   8.048   6.467
11227SOL    HW245336   8.901   8.199   6.434
11228SOL     OW45337   5.241   4.382   7.052
11228SOL    HW145338   5.267   4.475   7.026
11228SOL    HW245339   5.174   4.347   6.987
11229SOL     OW45340   6.408   4.575   2.366
11229SOL    HW145341   6.381   4.510   2.437
11229SOL    HW245342   6.507   4.579   2.360
11230SOL     OW45343   1.750   1.071   6.085
11230SOL    HW145344   1.652   1.057   6.098
11230SOL    HW245345   1.796   0.982   6.080
11231SOL     OW45346   7.176   1.667   0.969
11231SOL    HW145347   7.186   1.714   0.881
11231SOL    HW245348   7.239   1.706   1.036
11232SOL     OW45349   3.220   6.958   5.289
11232SOL    HW145350   3.211   7.030   5.220
11232SOL    HW245351   3.137   6.904   5.293
11233SOL     OW45352   3.817   6.918   4.271
11233SOL    HW145353   3.916   6.909   4.278
11233SOL    HW245354   3.795   6.997   4.214
11234SOL     OW45355   3.535   1.011   3.166
11234SOL    HW145356   3.599   1.045   3.235
11234SOL    HW245357   3.461   0.960   3.212
11235SOL     OW45358   2.326   0.598   5.624
11235SOL    HW145359   2.329   0.507   5.665
11235SOL    HW245360   2.250   0.604   5.559
11236SOL     OW45361   0.006   6.055   5.202
11236SOL    HW145362   0.025   5.978   5.264
11236SOL    HW245363   0.089   6.109   5.190
11237SOL     OW45364   8.826   0.414   6.261
11237SOL    HW145365   8.844   0.502   6.217
11237SOL    HW245366   8.727   0.397   6.262
11238SOL     OW45367   3.340   3.118   5.466
11238SOL    HW145368   3.385   3.037   5.428
11238SOL    HW245369   3.277   3.156   5.398
11239SOL     OW45370   2.189   7.765   6.915
11239SOL    HW145371   2.220   7.859   6.927
11239SOL    HW245372   2.093   7.765   6.888
11240SOL     OW45373   8.571   2.494   6.451
11240SOL    HW145374   8.668   2.474   6.441
11240SOL    HW245375   8.559   2.585   6.491
11241SOL     OW45376   6.948   9.183   4.315
11241SOL    HW145377   6.993   9.162   4.402
11241SOL    HW245378   6.850   9.189   4.329
11242SOL     OW45379   9.520   1.461   1.901
11242SOL    HW145380   9.495   1.415   1.986
11242SOL    HW245381   9.572   1.398   1.843
11243SOL     OW45382   1.019   0.597   5.294
11243SOL    HW145383   0.933   0.646   5.309
11243SOL    HW245384   1.088   0.631   5.358
11244SOL     OW45385   3.964   3.623   3.392
11244SOL    HW145386   3.866   3.608   3.402
11244SOL    HW245387   4.008   3.618   3.481
11245SOL     OW45388   5.148   7.693   1.608
11245SOL    HW145389   5.197   7.669   1.692
11245SOL    HW245390   5.154   7.617   1.543
11246SOL     OW45391   4.292   8.899   7.169
11246SOL    HW145392   4.348   8.818   7.183
11246SOL    HW245393   4.216   8.899   7.234
11247SOL     OW45394   1.438   6.491   4.295
11247SOL    HW145395   1.391   6.404   4.309
11247SOL    HW245396   1.530   6.486   4.333
11248SOL     OW45397   2.522   2.325   1.399
11248SOL    HW145398   2.495   2.395   1.334
11248SOL    HW245399   2.478   2.238   1.375
11249SOL     OW45400   2.955   1.620   5.593
11249SOL    HW145401   3.016   1.576   5.527
11249SOL    HW245402   2.977   1.718   5.598
11250SOL     OW45403   9.216   9.050   1.349
11250SOL    HW145404   9.253   9.134   1.388
11250SOL    HW245405   9.284   8.977   1.358
11251SOL     OW45406   5.053   1.191   0.436
11251SOL    HW145407   4.979   1.244   0.394
11251SOL    HW245408   5.034   1.093   0.425
11252SOL     OW45409   0.741   2.569   3.677
11252SOL    HW145410   0.800   2.505   3.629
11252SOL    HW245411   0.661   2.521   3.713
11253SOL     OW45412   5.762   1.796   0.396
11253SOL    HW145413   5.781   1.811   0.299
11253SOL    HW245414   5.670   1.829   0.417
11254SOL     OW45415   2.825   6.137   2.517
11254SOL    HW145416   2.769   6.203   2.565
11254SOL    HW245417   2.916   6.176   2.501
11255SOL     OW45418   3.295   5.228   2.811
11255SOL    HW145419   3.297   5.271   2.720
11255SOL    HW245420   3.201   5.211   2.837
11256SOL     OW45421   1.836   7.790   6.219
11256SOL    HW145422   1.929   7.825   6.204
11256SOL    HW245423   1.806   7.815   6.312
11257SOL     OW45424   9.658   5.608   3.616
11257SOL    HW145425   9.659   5.595   3.516
11257SOL    HW245426   9.686   5.523   3.660
11258SOL     OW45427   2.290   9.123   2.401
11258SOL    HW145428   2.262   9.185   2.328
11258SOL    HW245429   2.364   9.064   2.369
11259SOL     OW45430   8.297   5.003   2.664
11259SOL    HW145431   8.387   4.995   2.707
11259SOL    HW245432   8.307   5.035   2.570
11260SOL     OW45433   1.786   7.691   6.593
11260SOL    HW145434   1.738   7.688   6.681
11260SOL    HW245435   1.755   7.770   6.540
11261SOL     OW45436   3.880   9.650   2.715
11261SOL    HW145437   3.851   9.718   2.648
11261SOL    HW245438   3.910   9.567   2.668
11262SOL     OW45439   3.836   4.085   6.716
11262SOL    HW145440   3.864   4.070   6.811
11262SOL    HW245441   3.826   4.183   6.700
11263SOL     OW45442   8.644   6.528   7.395
11263SOL    HW145443   8.573   6.467   7.430
11263SOL    HW245444   8.684   6.579   7.471
11264SOL     OW45445   2.967   3.102   0.360
11264SOL    HW145446   2.892   3.153   0.318
11264SOL    HW245447   2.963   3.007   0.330
11265SOL     OW45448   1.243   5.193   0.117
11265SOL    HW145449   1.229   5.291   0.104
11265SOL    HW245450   1.268   5.150   0.030
11266SOL     OW45451   5.468   9.999   7.000
11266SOL    HW145452   5.384   0.053   7.001
11266SOL    HW245453   5.462   9.927   7.069
11267SOL     OW45454   4.486   1.257   4.752
11267SOL    HW145455   4.530   1.239   4.664
11267SOL    HW245456   4.528   1.338   4.794
11268SOL     OW45457   8.101   0.201   1.138
11268SOL    HW145458   8.083   0.179   1.042
11268SOL    HW245459   8.082   0.298   1.154
11269SOL     OW45460   3.703   7.709   4.546
11269SOL    HW145461   3.685   7.652   4.627
11269SOL    HW245462   3.775   7.667   4.492
11270SOL     OW45463   1.521   1.594   5.032
11270SOL    HW145464   1.550   1.665   5.095
11270SOL    HW245465   1.601   1.549   4.993
11271SOL     OW45466   9.731   6.409   5.215
11271SOL    HW145467   9.744   6.487   5.153
11271SOL    HW245468   9.819   6.377   5.248
11272SOL     OW45469   2.709   1.998   0.361
11272SOL    HW145470   2.740   2.068   0.426
11272SOL    HW245471   2.620   1.963   0.390
11273SOL     OW45472   8.013   3.007   0.306
11273SOL    HW145473   7.925   3.046   0.276
11273SOL    HW245474   8.066   3.076   0.354
11274SOL     OW45475   7.379   9.233   5.950
11274SOL    HW145476   7.364   9.224   6.048
11274SOL    HW245477   7.476   9.222   5.930
11275SOL     OW45478   2.333   8.438   3.532
11275SOL    HW145479   2.251   8.410   3.483
11275SOL    HW245480   2.326   8.412   3.628
11276SOL     OW45481   9.113   5.250   5.866
11276SOL    HW145482   9.133   5.272   5.961
11276SOL    HW245483   9.199   5.233   5.817
11277SOL     OW45484   2.954   0.472   5.098
11277SOL    HW145485   2.889   0.517   5.160
11277SOL    HW245486   2.921   0.479   5.004
11278SOL     OW45487   0.818   8.338   7.269
11278SOL    HW145488   0.725   8.339   7.308
11278SOL    HW245489   0.852   8.432   7.264
11279SOL     OW45490   8.933   9.207   0.695
11279SOL    HW145491   9.030   9.204   0.670
11279SOL    HW245492   8.906   9.301   0.713
11280SOL     OW45493   0.671   3.069   7.546
11280SOL    HW145494   0.736   3.026   7.484
11280SOL    HW245495   0.654   3.163   7.517
11281SOL     OW45496   3.600   5.802   4.755
11281SOL    HW145497   3.539   5.814   4.833
11281SOL    HW245498   3.693   5.826   4.781
11282SOL     OW45499   0.931   0.975   5.261
11282SOL    HW145500   0.877   0.899   5.297
11282SOL    HW245501   0.870   1.053   5.243
11283SOL     OW45502   4.397   9.877   0.950
11283SOL    HW145503   4.449   9.837   0.875
11283SOL    HW245504   4.351   9.960   0.918
11284SOL     OW45505   8.364   1.554   2.604
11284SOL    HW145506   8.295   1.621   2.577
11284SOL    HW245507   8.335   1.463   2.576
11285SOL     OW45508   9.098   2.272   1.721
11285SOL    HW145509   9.161   2.240   1.651
11285SOL    HW245510   9.004   2.271   1.685
11286SOL     OW45511   6.654   3.033   0.049
11286SOL    HW145512   6.611   3.116   0.082
11286SOL    HW245513   6.621   3.012  10.039
11287SOL     OW45514   8.161   1.348   1.715
11287SOL    HW145515   8.255   1.348   1.681
11287SOL    HW245516   8.115   1.264   1.685
11288SOL     OW45517   7.850   6.955   4.045
11288SOL    HW145518   7.794   6.902   3.982
11288SOL    HW245519   7.800   7.037   4.074
11289SOL     OW45520   2.715   0.698   0.960
11289SOL    HW145521   2.733   0.732   1.052
11289SOL    HW245522   2.763   0.755   0.894
11290SOL     OW45523   1.943   7.547   4.632
11290SOL    HW145524   2.028   7.524   4.679
11290SOL    HW245525   1.964   7.598   4.548
11291SOL     OW45526   9.754   4.090   2.888
11291SOL    HW145527   9.690   4.097   2.812
11291SOL    HW245528   9.704   4.100   2.974
11292SOL     OW45529   5.427   0.383   3.847
11292SOL    HW145530   5.380   0.378   3.759
11292SOL    HW245531   5.522   0.353   3.837
11293SOL     OW45532   4.292   3.033   1.629
11293SOL    HW145533   4.212   3.012   1.574
11293SOL    HW245534   4.361   3.077   1.572
11294SOL     OW45535   3.775   2.392   5.197
11294SOL    HW145536   3.750   2.337   5.277
11294SOL    HW245537   3.860   2.358   5.159
11295SOL     OW45538   7.800   3.246   1.443
11295SOL    HW145539   7.751   3.333   1.443
11295SOL    HW245540   7.735   3.171   1.438
11296SOL     OW45541   6.887   3.590   2.276
11296SOL    HW145542   6.856   3.508   2.324
11296SOL    HW245543   6.891   3.572   2.178
11297SOL     OW45544   9.176   6.640   5.885
11297SOL    HW145545   9.182   6.567   5.817
11297SOL    HW245546   9.172   6.600   5.977
11298SOL     OW45547   7.425   9.912   4.894
11298SOL    HW145548   7.444   0.009   4.875
11298SOL    HW245549   7.418   9.898   4.993
11299SOL     OW45550   1.763   1.425   7.230
11299SOL    HW145551   1.811   1.369   7.298
11299SOL    HW245552   1.806   1.516   7.226
11300SOL     OW45553   7.919   2.472   1.570
11300SOL    HW145554   7.823   2.442   1.571
11300SOL    HW245555   7.923   2.571   1.578
11301SOL     OW45556   2.478   8.969   2.281
11301SOL    HW145557   2.523   8.978   2.192
11301SOL    HW245558   2.422   8.886   2.281
11302SOL     OW45559   0.880   2.806   1.651
11302SOL    HW145560   0.903   2.870   1.725
11302SOL    HW245561   0.879   2.856   1.564
11303SOL     OW45562   1.707   2.659   4.139
11303SOL    HW145563   1.715   2.750   4.100
11303SOL    HW245564   1.784   2.642   4.201
11304SOL     OW45565   2.230   0.033   7.224
11304SOL    HW145566   2.319   0.076   7.240
11304SOL    HW245567   2.218   0.017   7.126
11305SOL     OW45568   0.438   6.145   6.017
11305SOL    HW145569   0.413   6.186   6.105
11305SOL    HW245570   0.538   6.136   6.012
11306SOL     OW45571   8.656   0.159   6.552
11306SOL    HW145572   8.587   0.119   6.611
11306SOL    HW245573   8.740   0.105   6.558
11307SOL     OW45574   0.617   5.856   0.678
11307SOL    HW145575   0.557   5.862   0.598
11307SOL    HW245576   0.674   5.938   0.682
11308SOL     OW45577   0.573   0.992   6.878
11308SOL    HW145578   0.600   0.923   6.945
11308SOL    HW245579   0.526   1.067   6.924
11309SOL     OW45580   7.102   2.258   3.553
11309SOL    HW145581   7.177   2.244   3.488
11309SOL    HW245582   7.085   2.356   3.564
11310SOL     OW45583   4.827   6.708   2.439
11310SOL    HW145584   4.851   6.611   2.448
11310SOL    HW245585   4.844   6.738   2.345
11311SOL     OW45586   2.247   4.046   7.301
11311SOL    HW145587   2.307   4.126   7.293
11311SOL    HW245588   2.199   4.050   7.389
11312SOL     OW45589   4.205   9.134   0.587
11312SOL    HW145590   4.286   9.081   0.610
11312SOL    HW245591   4.127   9.099   0.640
11313SOL     OW45592   5.728   3.110   1.973
11313SOL    HW145593   5.630   3.104   1.991
11313SOL    HW245594   5.770   3.021   1.990
11314SOL     OW45595   8.101   0.167   1.925
11314SOL    HW145596   8.165   0.108   1.875
11314SOL    HW245597   8.109   0.260   1.890
11315SOL     OW45598   8.302   7.516   5.868
11315SOL    HW145599   8.363   7.561   5.803
11315SOL    HW245600   8.208   7.519   5.833
11316SOL     OW45601   5.108   8.799   5.496
11316SOL    HW145602   5.063   8.710   5.498
11316SOL    HW245603   5.124   8.831   5.589
11317SOL     OW45604   7.835   9.553   6.344
11317SOL    HW145605   7.889   9.622   6.296
11317SOL    HW245606   7.741   9.555   6.311
11318SOL     OW45607   2.008   4.455   4.992
11318SOL    HW145608   2.084   4.403   4.952
11318SOL    HW245609   1.999   4.543   4.947
11319SOL     OW45610   1.671   4.397   3.901
11319SOL    HW145611   1.618   4.355   3.974
11319SOL    HW245612   1.751   4.340   3.882
11320SOL     OW45613   8.964   2.736   4.234
11320SOL    HW145614   9.010   2.723   4.322
11320SOL    HW245615   8.909   2.655   4.213
11321SOL     OW45616   3.288   0.979   3.526
11321SOL    HW145617   3.309   0.938   3.437
11321SOL    HW245618   3.210   1.041   3.517
11322SOL     OW45619   3.248   5.685   5.569
11322SOL    HW145620   3.274   5.719   5.659
11322SOL    HW245621   3.307   5.725   5.499
11323SOL     OW45622   1.934   7.248   2.277
11323SOL    HW145623   1.860   7.299   2.321
11323SOL    HW245624   2.009   7.235   2.342
11324SOL     OW45625   1.397   8.316   5.925
11324SOL    HW145626   1.491   8.282   5.932
11324SOL    HW245627   1.382   8.352   5.833
11325SOL     OW45628   3.118   6.555   6.830
11325SOL    HW145629   3.053   6.574   6.904
11325SOL    HW245630   3.169   6.472   6.851
11326SOL     OW45631   6.251   1.716   6.529
11326SOL    HW145632   6.327   1.747   6.586
11326SOL    HW245633   6.271   1.736   6.433
11327SOL     OW45634   3.722   6.314   4.589
11327SOL    HW145635   3.671   6.375   4.528
11327SOL    HW245636   3.798   6.364   4.630
11328SOL     OW45637   3.737   1.762   1.965
11328SOL    HW145638   3.685   1.764   1.880
11328SOL    HW245639   3.686   1.810   2.036
11329SOL     OW45640   2.924   9.844   5.512
11329SOL    HW145641   2.899   9.826   5.417
11329SOL    HW245642   2.950   9.759   5.557
11330SOL     OW45643   6.008   4.687   1.414
11330SOL    HW145644   5.945   4.693   1.492
11330SOL    HW245645   6.088   4.745   1.432
11331SOL     OW45646   0.894   5.927   1.137
11331SOL    HW145647   0.887   5.868   1.056
11331SOL    HW245648   0.819   5.907   1.200
11332SOL     OW45649   0.863   7.451   4.906
11332SOL    HW145650   0.865   7.398   4.821
11332SOL    HW245651   0.920   7.407   4.975
11333SOL     OW45652   0.643   0.879   3.095
11333SOL    HW145653   0.712   0.938   3.052
11333SOL    HW245654   0.678   0.785   3.098
11334SOL     OW45655   9.017   8.400   2.583
11334SOL    HW145656   8.917   8.412   2.581
11334SOL    HW245657   9.038   8.302   2.577
11335SOL     OW45658   0.587   3.753   0.036
11335SOL    HW145659   0.499   3.797   0.054
11335SOL    HW245660   0.634   3.801  10.044
11336SOL     OW45661   7.207   3.687   0.548
11336SOL    HW145662   7.198   3.720   0.642
11336SOL    HW245663   7.125   3.636   0.523
11337SOL     OW45664   7.454   2.992   4.150
11337SOL    HW145665   7.527   3.060   4.150
11337SOL    HW245666   7.380   3.023   4.091
11338SOL     OW45667   2.675   3.982   7.439
11338SOL    HW145668   2.680   4.022   7.530
11338SOL    HW245669   2.591   3.927   7.432
11339SOL     OW45670   4.373   9.664   3.174
11339SOL    HW145671   4.328   9.684   3.261
11339SOL    HW245672   4.345   9.731   3.106
11340SOL     OW45673   0.097   6.455   5.526
11340SOL    HW145674   0.033   6.430   5.599
11340SOL    HW245675   0.057   6.428   5.437
11341SOL     OW45676   4.614   8.751   3.893
11341SOL    HW145677   4.609   8.754   3.993
11341SOL    HW245678   4.683   8.817   3.861
11342SOL     OW45679   7.992   9.374   5.765
11342SOL    HW145680   7.997   9.285   5.811
11342SOL    HW245681   8.075   9.389   5.712
11343SOL     OW45682   4.018   7.093   4.078
11343SOL    HW145683   3.926   7.128   4.095
11343SOL    HW245684   4.085   7.156   4.115
11344SOL     OW45685   2.819   5.275   2.220
11344SOL    HW145686   2.787   5.214   2.147
11344SOL    HW245687   2.917   5.291   2.210
11345SOL     OW45688   3.271   0.603   7.394
11345SOL    HW145689   3.357   0.620   7.346
11345SOL    HW245690   3.195   0.623   7.333
11346SOL     OW45691   8.102   7.090   1.965
11346SOL    HW145692   8.052   7.094   2.051
11346SOL    HW245693   8.192   7.132   1.976
11347SOL     OW45694   2.809   6.203   5.882
11347SOL    HW145695   2.761   6.134   5.936
11347SOL    HW245696   2.843   6.161   5.797
11348SOL     OW45697   3.863   2.506   7.850
11348SOL    HW145698   3.902   2.431   7.797
11348SOL    HW245699   3.769   2.522   7.822
11349SOL     OW45700   3.447   7.667   4.742
11349SOL    HW145701   3.521   7.708   4.796
11349SOL    HW245702   3.465   7.570   4.729
11350SOL     OW45703   1.510   5.107   6.206
11350SOL    HW145704   1.545   5.197   6.235
11350SOL    HW245705   1.410   5.109   6.208
11351SOL     OW45706   2.632   2.475   6.362
11351SOL    HW145707   2.581   2.558   6.383
11351SOL    HW245708   2.577   2.416   6.302
11352SOL     OW45709   3.495   6.858   1.674
11352SOL    HW145710   3.530   6.867   1.767
11352SOL    HW245711   3.567   6.880   1.609
11353SOL     OW45712   9.836   7.959   3.385
11353SOL    HW145713   9.753   7.907   3.403
11353SOL    HW245714   9.875   7.930   3.298
11354SOL     OW45715   4.727   1.466   0.074
11354SOL    HW145716   4.691   1.526   0.002
11354SOL    HW245717   4.821   1.492   0.096
11355SOL     OW45718   6.502   9.534   5.864
11355SOL    HW145719   6.402   9.523   5.859
11355SOL    HW245720   6.546   9.448   5.837
11356SOL     OW45721   6.459   3.710   0.467
11356SOL    HW145722   6.462   3.798   0.515
11356SOL    HW245723   6.372   3.701   0.419
11357SOL     OW45724   4.208   3.757   0.182
11357SOL    HW145725   4.160   3.828   0.131
11357SOL    HW245726   4.284   3.799   0.233
11358SOL     OW45727   3.864   0.466   4.926
11358SOL    HW145728   3.836   0.382   4.878
11358SOL    HW245729   3.823   0.545   4.880
11359SOL     OW45730   2.100   5.727   6.623
11359SOL    HW145731   2.050   5.648   6.588
11359SOL    HW245732   2.037   5.789   6.670
11360SOL     OW45733   3.065   6.866   6.959
11360SOL    HW145734   3.051   6.909   6.870
11360SOL    HW245735   3.012   6.781   6.963
11361SOL     OW45736   8.412   9.892   2.061
11361SOL    HW145737   8.323   9.929   2.088
11361SOL    HW245738   8.470   9.883   2.142
11362SOL     OW45739   1.257   8.437   0.633
11362SOL    HW145740   1.276   8.490   0.715
11362SOL    HW245741   1.343   8.417   0.585
11363SOL     OW45742   3.501   6.867   0.781
11363SOL    HW145743   3.579   6.836   0.726
11363SOL    HW245744   3.447   6.788   0.809
11364SOL     OW45745   5.006   1.453   3.871
11364SOL    HW145746   4.943   1.409   3.935
11364SOL    HW245747   5.006   1.403   3.784
11365SOL     OW45748   7.263   0.330   6.791
11365SOL    HW145749   7.350   0.375   6.769
11365SOL    HW245750   7.238   0.268   6.716
11366SOL     OW45751   2.902   5.930   2.838
11366SOL    HW145752   2.819   5.985   2.828
11366SOL    HW245753   2.918   5.878   2.754
11367SOL     OW45754   7.661   1.355   1.140
11367SOL    HW145755   7.739   1.385   1.086
11367SOL    HW245756   7.632   1.429   1.201
11368SOL     OW45757   6.937   4.279   2.029
11368SOL    HW145758   6.907   4.344   1.959
11368SOL    HW245759   7.021   4.234   1.999
11369SOL     OW45760   2.972   5.588   3.708
11369SOL    HW145761   3.023   5.669   3.681
11369SOL    HW245762   2.943   5.538   3.626
11370SOL     OW45763   6.408   2.118   0.511
11370SOL    HW145764   6.367   2.095   0.599
11370SOL    HW245765   6.500   2.155   0.526
11371SOL     OW45766   0.198   7.685   7.130
11371SOL    HW145767   0.276   7.653   7.183
11371SOL    HW245768   0.194   7.785   7.134
11372SOL     OW45769   0.062   4.668   4.936
11372SOL    HW145770   0.102   4.656   4.845
11372SOL    HW245771   0.130   4.710   4.996
11373SOL     OW45772   6.579   1.230   2.861
11373SOL    HW145773   6.613   1.270   2.946
11373SOL    HW245774   6.526   1.148   2.882
11374SOL     OW45775   4.389   1.988   4.900
11374SOL    HW145776   4.370   2.064   4.961
11374SOL    HW245777   4.320   1.984   4.828
11375SOL     OW45778   3.398   1.001   4.407
11375SOL    HW145779   3.344   1.078   4.372
11375SOL    HW245780   3.340   0.943   4.465
11376SOL     OW45781   1.521   2.747   1.132
11376SOL    HW145782   1.598   2.685   1.115
11376SOL    HW245783   1.453   2.701   1.189
11377SOL     OW45784   3.661   9.680   5.688
11377SOL    HW145785   3.755   9.675   5.721
11377SOL    HW245786   3.627   9.773   5.697
11378SOL     OW45787   5.079   7.575   5.963
11378SOL    HW145788   5.114   7.634   5.890
11378SOL    HW245789   5.072   7.628   6.048
11379SOL     OW45790   1.946   3.356   5.338
11379SOL    HW145791   1.855   3.396   5.336
11379SOL    HW245792   1.939   3.257   5.334
11380SOL     OW45793   5.409   0.553   5.118
11380SOL    HW145794   5.429   0.584   5.211
11380SOL    HW245795   5.369   0.461   5.121
11381SOL     OW45796   5.295   4.725   1.388
11381SOL    HW145797   5.341   4.794   1.332
11381SOL    HW245798   5.205   4.758   1.416
11382SOL     OW45799   7.363   7.274   1.677
11382SOL    HW145800   7.368   7.175   1.685
11382SOL    HW245801   7.404   7.303   1.591
11383SOL     OW45802   4.820   8.901   5.045
11383SOL    HW145803   4.767   8.850   5.113
11383SOL    HW245804   4.895   8.844   5.012
11384SOL     OW45805   1.489   7.225   6.583
11384SOL    HW145806   1.433   7.285   6.525
11384SOL    HW245807   1.573   7.202   6.536
11385SOL     OW45808   6.130   8.566   3.557
11385SOL    HW145809   6.062   8.510   3.510
11385SOL    HW245810   6.207   8.582   3.496
11386SOL     OW45811   9.195   0.664   7.890
11386SOL    HW145812   9.181   0.612   7.974
11386SOL    HW245813   9.111   0.662   7.835
11387SOL     OW45814   6.792   3.293   0.228
11387SOL    HW145815   6.810   3.253   0.318
11387SOL    HW245816   6.696   3.275   0.203
11388SOL     OW45817   2.073   8.782   0.906
11388SOL    HW145818   2.015   8.712   0.863
11388SOL    HW245819   2.043   8.873   0.875
11389SOL     OW45820   7.113   0.052   1.797
11389SOL    HW145821   7.143   0.138   1.754
11389SOL    HW245822   7.032   0.018   1.749
11390SOL     OW45823   3.950   5.456   7.515
11390SOL    HW145824   4.002   5.541   7.510
11390SOL    HW245825   3.918   5.430   7.424
11391SOL     OW45826   5.057   8.228   4.511
11391SOL    HW145827   5.103   8.310   4.477
11391SOL    HW245828   5.095   8.201   4.599
11392SOL     OW45829   3.099   7.788   7.943
11392SOL    HW145830   3.054   7.776   8.031
11392SOL    HW245831   3.059   7.866   7.895
11393SOL     OW45832   8.754   1.736   2.008
11393SOL    HW145833   8.796   1.646   1.992
11393SOL    HW245834   8.656   1.726   2.019
11394SOL     OW45835   1.943   9.554   2.550
11394SOL    HW145836   1.851   9.592   2.561
11394SOL    HW245837   1.987   9.545   2.639
11395SOL     OW45838   9.289   3.210   3.885
11395SOL    HW145839   9.264   3.148   3.959
11395SOL    HW245840   9.246   3.299   3.899
11396SOL     OW45841   5.261   7.355   4.214
11396SOL    HW145842   5.317   7.354   4.297
11396SOL    HW245843   5.189   7.423   4.224
11397SOL     OW45844   8.862   2.122   7.871
11397SOL    HW145845   8.902   2.034   7.846
11397SOL    HW245846   8.785   2.107   7.933
11398SOL     OW45847   1.686   7.998   3.103
11398SOL    HW145848   1.718   8.037   3.190
11398SOL    HW245849   1.640   7.911   3.120
11399SOL     OW45850   8.095   4.539   0.706
11399SOL    HW145851   8.159   4.464   0.689
11399SOL    HW245852   8.133   4.624   0.669
11400SOL     OW45853   0.973   1.541   7.410
11400SOL    HW145854   1.015   1.469   7.356
11400SOL    HW245855   0.991   1.526   7.507
11401SOL     OW45856   7.716   5.197   0.238
11401SOL    HW145857   7.632   5.207   0.183
11401SOL    HW245858   7.693   5.199   0.335
11402SOL     OW45859   6.461   4.953   0.327
11402SOL    HW145860   6.477   4.927   0.232
11402SOL    HW245861   6.548   4.957   0.376
11403SOL     OW45862   6.380   4.851   2.367
11403SOL    HW145863   6.373   4.752   2.366
11403SOL    HW245864   6.366   4.884   2.461
11404SOL     OW45865   3.113   0.287   5.761
11404SOL    HW145866   3.029   0.312   5.713
11404SOL    HW245867   3.090   0.258   5.854
11405SOL     OW45868   8.806   2.600   4.479
11405SOL    HW145869   8.800   2.553   4.391
11405SOL    HW245870   8.798   2.533   4.553
11406SOL     OW45871   5.722   8.315   4.217
11406SOL    HW145872   5.668   8.247   4.265
11406SOL    HW245873   5.677   8.404   4.224
11407SOL     OW45874   6.646   7.206   5.028
11407SOL    HW145875   6.616   7.265   4.953
11407SOL    HW245876   6.733   7.164   5.005
11408SOL     OW45877   2.227   8.340   0.763
11408SOL    HW145878   2.290   8.405   0.806
11408SOL    HW245879   2.247   8.334   0.666
11409SOL     OW45880   1.503   2.173   2.805
11409SOL    HW145881   1.524   2.157   2.709
11409SOL    HW245882   1.413   2.136   2.827
11410SOL     OW45883   7.961   5.245   3.153
11410SOL    HW145884   7.984   5.150   3.130
11410SOL    HW245885   8.017   5.307   3.099
11411SOL     OW45886   1.086   3.250   4.614
11411SOL    HW145887   0.992   3.282   4.606
11411SOL    HW245888   1.090   3.152   4.595
11412SOL     OW45889   9.394   0.672   5.248
11412SOL    HW145890   9.473   0.718   5.287
11412SOL    HW245891   9.350   0.615   5.317
11413SOL     OW45892   3.515   8.842   3.167
11413SOL    HW145893   3.520   8.753   3.212
11413SOL    HW245894   3.604   8.865   3.129
11414SOL     OW45895   8.419   0.861   5.215
11414SOL    HW145896   8.397   0.906   5.302
11414SOL    HW245897   8.504   0.810   5.226
11415SOL     OW45898   8.329   1.195   3.544
11415SOL    HW145899   8.288   1.106   3.564
11415SOL    HW245900   8.405   1.211   3.606
11416SOL     OW45901   7.492   9.511   3.255
11416SOL    HW145902   7.513   9.435   3.316
11416SOL    HW245903   7.393   9.526   3.253
11417SOL     OW45904   5.387   8.556   5.429
11417SOL    HW145905   5.381   8.655   5.412
11417SOL    HW245906   5.373   8.538   5.526
11418SOL     OW45907   2.626   0.046   0.650
11418SOL    HW145908   2.617   9.946   0.647
11418SOL    HW245909   2.546   0.085   0.696
11419SOL     OW45910   2.113   8.556   6.274
11419SOL    HW145911   2.031   8.511   6.309
11419SOL    HW245912   2.174   8.488   6.234
11420SOL     OW45913   4.364   0.000   2.201
11420SOL    HW145914   4.447   0.035   2.245
11420SOL    HW245915   4.363   9.900   2.207
11421SOL     OW45916   9.121   1.118   1.464
11421SOL    HW145917   9.088   1.105   1.371
11421SOL    HW245918   9.046   1.106   1.529
11422SOL     OW45919   3.994   9.050   0.743
11422SOL    HW145920   3.934   9.115   0.790
11422SOL    HW245921   3.942   9.002   0.672
11423SOL     OW45922   6.323   0.612   6.086
11423SOL    HW145923   6.227   0.627   6.062
11423SOL    HW245924   6.366   0.554   6.017
11424SOL     OW45925   0.238   8.240   2.261
11424SOL    HW145926   0.176   8.226   2.339
11424SOL    HW245927   0.199   8.309   2.200
11425SOL     OW45928   4.592   1.624   6.837
11425SOL    HW145929   4.586   1.636   6.936
11425SOL    HW245930   4.650   1.697   6.798
11426SOL     OW45931   2.664   9.543   0.783
11426SOL    HW145932   2.684   9.594   0.867
11426SOL    HW245933   2.606   9.465   0.806
11427SOL     OW45934   1.422   2.017   3.619
11427SOL    HW145935   1.358   1.947   3.651
11427SOL    HW245936   1.509   2.007   3.667
11428SOL     OW45937   5.502   8.160   2.467
11428SOL    HW145938   5.478   8.239   2.522
11428SOL    HW245939   5.544   8.090   2.525
11429SOL     OW45940   1.059   3.600   7.004
11429SOL    HW145941   1.114   3.653   7.068
11429SOL    HW245942   1.118   3.543   6.948
11430SOL     OW45943   0.131   7.868   4.182
11430SOL    HW145944   0.225   7.866   4.148
11430SOL    HW245945   0.094   7.775   4.184
11431SOL     OW45946   7.889   5.164   6.959
11431SOL    HW145947   7.793   5.143   6.981
11431SOL    HW245948   7.894   5.202   6.867
11432SOL     OW45949   4.741   2.753   6.889
11432SOL    HW145950   4.832   2.714   6.898
11432SOL    HW245951   4.724   2.818   6.964
11433SOL     OW45952   4.978   7.889   4.446
11433SOL    HW145953   5.069   7.927   4.430
11433SOL    HW245954   4.970   7.862   4.542
11434SOL     OW45955   7.003   0.662   1.783
11434SOL    HW145956   6.933   0.726   1.750
11434SOL    HW245957   6.985   0.571   1.748
11435SOL     OW45958   8.160   5.437   1.446
11435SOL    HW145959   8.073   5.438   1.397
11435SOL    HW245960   8.186   5.531   1.470
11436SOL     OW45961   3.632   0.775   6.242
11436SOL    HW145962   3.658   0.681   6.264
11436SOL    HW245963   3.629   0.786   6.142
11437SOL     OW45964   8.993   8.553   0.260
11437SOL    HW145965   9.019   8.457   0.264
11437SOL    HW245966   9.076   8.610   0.260
11438SOL     OW45967   6.960   9.249   2.230
11438SOL    HW145968   6.984   9.154   2.215
11438SOL    HW245969   6.922   9.261   2.322
11439SOL     OW45970   9.505   5.106   6.489
11439SOL    HW145971   9.599   5.115   6.455
11439SOL    HW245972   9.448   5.177   6.447
11440SOL     OW45973   0.607   0.299   6.858
11440SOL    HW145974   0.543   0.241   6.908
11440SOL    HW245975   0.665   0.348   6.922
11441SOL     OW45976   5.783   0.776   4.263
11441SOL    HW145977   5.860   0.808   4.208
11441SOL    HW245978   5.702   0.830   4.241
11442SOL     OW45979   9.315   9.258   6.496
11442SOL    HW145980   9.217   9.271   6.512
11442SOL    HW245981   9.367   9.319   6.555
11443SOL     OW45982   8.053   0.432   4.038
11443SOL    HW145983   8.013   0.395   4.122
11443SOL    HW245984   8.142   0.473   4.059
11444SOL     OW45985   0.459   8.810   5.699
11444SOL    HW145986   0.467   8.879   5.771
11444SOL    HW245987   0.362   8.789   5.684
11445SOL     OW45988   1.854   0.324   4.532
11445SOL    HW145989   1.763   0.363   4.546
11445SOL    HW245990   1.917   0.362   4.598
11446SOL     OW45991   1.500   1.428   6.774
11446SOL    HW145992   1.406   1.411   6.801
11446SOL    HW245993   1.561   1.368   6.825
11447SOL     OW45994   9.307   2.092   6.066
11447SOL    HW145995   9.346   2.048   5.985
11447SOL    HW245996   9.280   2.186   6.043
11448SOL     OW45997   8.977   9.146   1.695
11448SOL    HW145998   9.072   9.117   1.707
11448SOL    HW245999   8.973   9.220   1.628
11449SOL     OW46000   8.767   1.997   1.439
11449SOL    HW146001   8.719   2.015   1.353
11449SOL    HW246002   8.713   2.031   1.516
11450SOL     OW46003   0.095   0.033   2.631
11450SOL    HW146004   0.166   9.984   2.580
11450SOL    HW246005   0.008   9.985   2.621
11451SOL     OW46006   3.468   4.553   5.076
11451SOL    HW146007   3.425   4.559   5.166
11451SOL    HW246008   3.407   4.503   5.013
11452SOL     OW46009   0.455   7.623   5.456
11452SOL    HW146010   0.496   7.562   5.388
11452SOL    HW246011   0.525   7.685   5.492
11453SOL     OW46012   3.742   1.993   1.052
11453SOL    HW146013   3.812   2.044   1.003
11453SOL    HW246014   3.687   1.940   0.987
11454SOL     OW46015   3.354   5.163   4.769
11454SOL    HW146016   3.285   5.115   4.716
11454SOL    HW246017   3.394   5.100   4.836
11455SOL     OW46018   1.643   8.761   4.594
11455SOL    HW146019   1.674   8.764   4.499
11455SOL    HW246020   1.556   8.711   4.599
11456SOL     OW46021   0.456   6.180   6.694
11456SOL    HW146022   0.434   6.086   6.670
11456SOL    HW246023   0.441   6.194   6.792
11457SOL     OW46024   8.065   1.201   7.764
11457SOL    HW146025   8.159   1.205   7.796
11457SOL    HW246026   8.019   1.288   7.781
11458SOL     OW46027   2.358   9.561   5.453
11458SOL    HW146028   2.259   9.576   5.452
11458SOL    HW246029   2.381   9.481   5.398
11459SOL     OW46030   3.111   4.125   3.157
11459SOL    HW146031   3.100   4.213   3.112
11459SOL    HW246032   3.035   4.065   3.133
11460SOL     OW46033   8.800   3.150   2.404
11460SOL    HW146034   8.820   3.208   2.326
11460SOL    HW246035   8.742   3.199   2.469
11461SOL     OW46036   6.311   7.357   6.245
11461SOL    HW146037   6.295   7.398   6.155
11461SOL    HW246038   6.231   7.303   6.272
11462SOL     OW46039   8.557   3.711   3.119
11462SOL    HW146040   8.643   3.666   3.096
11462SOL    HW246041   8.549   3.796   3.068
11463SOL     OW46042   3.172   1.671   1.676
11463SOL    HW146043   3.100   1.644   1.613
11463SOL    HW246044   3.232   1.738   1.633
11464SOL     OW46045   5.016   8.779   6.194
11464SOL    HW146046   5.022   8.868   6.239
11464SOL    HW246047   4.948   8.784   6.120
11465SOL     OW46048   5.337   4.366   0.766
11465SOL    HW146049   5.306   4.274   0.790
11465SOL    HW246050   5.266   4.413   0.715
11466SOL     OW46051   3.013   9.393   0.257
11466SOL    HW146052   2.928   9.364   0.213
11466SOL    HW246053   2.996   9.475   0.311
11467SOL     OW46054   3.297   7.267   3.012
11467SOL    HW146055   3.367   7.199   2.988
11467SOL    HW246056   3.323   7.356   2.972
11468SOL     OW46057   2.933   1.818   6.177
11468SOL    HW146058   2.883   1.762   6.110
11468SOL    HW246059   2.875   1.893   6.207
11469SOL     OW46060   5.526   0.820   6.894
11469SOL    HW146061   5.556   0.768   6.814
11469SOL    HW246062   5.592   0.893   6.912
11470SOL     OW46063   6.973   1.938   4.434
11470SOL    HW146064   6.952   1.910   4.527
11470SOL    HW246065   6.889   1.971   4.389
11471SOL     OW46066   4.240   8.931   3.748
11471SOL    HW146067   4.300   8.863   3.705
11471SOL    HW246068   4.266   9.022   3.717
11472SOL     OW46069   1.140   1.593   0.959
11472SOL    HW146070   1.221   1.632   0.915
11472SOL    HW246071   1.094   1.662   1.014
11473SOL     OW46072   6.750   7.515   6.334
11473SOL    HW146073   6.823   7.450   6.314
11473SOL    HW246074   6.737   7.521   6.433
11474SOL     OW46075   9.496   7.119   4.259
11474SOL    HW146076   9.584   7.093   4.300
11474SOL    HW246077   9.422   7.087   4.318
11475SOL     OW46078   1.247   0.993   1.441
11475SOL    HW146079   1.243   0.899   1.406
11475SOL    HW246080   1.316   0.998   1.513
11476SOL     OW46081   0.804   8.377   2.600
11476SOL    HW146082   0.707   8.365   2.579
11476SOL    HW246083   0.856   8.305   2.555
11477SOL     OW46084   2.836   8.013   1.183
11477SOL    HW146085   2.878   8.052   1.266
11477SOL    HW246086   2.891   7.936   1.151
11478SOL     OW46087   2.460   9.785   7.296
11478SOL    HW146088   2.426   9.691   7.299
11478SOL    HW246089   2.560   9.785   7.295
11479SOL     OW46090   1.660   3.261   6.019
11479SOL    HW146091   1.578   3.218   5.981
11479SOL    HW246092   1.733   3.194   6.028
11480SOL     OW46093   5.370   2.813   7.086
11480SOL    HW146094   5.382   2.911   7.067
11480SOL    HW246095   5.440   2.761   7.037
11481SOL     OW46096   0.594   3.488   2.472
11481SOL    HW146097   0.656   3.423   2.517
11481SOL    HW246098   0.584   3.570   2.529
11482SOL     OW46099   1.767   4.297   1.191
11482SOL    HW146100   1.740   4.222   1.251
11482SOL    HW246101   1.755   4.385   1.238
11483SOL     OW46102   1.589   7.855   2.730
11483SOL    HW146103   1.492   7.846   2.709
11483SOL    HW246104   1.625   7.767   2.762
11484SOL     OW46105   5.437   0.464   4.781
11484SOL    HW146106   5.495   0.535   4.820
11484SOL    HW246107   5.492   0.382   4.765
11485SOL     OW46108   7.492   5.722   1.195
11485SOL    HW146109   7.585   5.689   1.209
11485SOL    HW246110   7.492   5.822   1.199
11486SOL     OW46111   4.712   1.124   0.921
11486SOL    HW146112   4.687   1.199   0.860
11486SOL    HW246113   4.643   1.113   0.992
11487SOL     OW46114   6.949   7.794   4.578
11487SOL    HW146115   6.925   7.714   4.524
11487SOL    HW246116   7.046   7.817   4.562
11488SOL     OW46117   9.055   9.468   7.063
11488SOL    HW146118   8.978   9.526   7.088
11488SOL    HW246119   9.093   9.426   7.146
11489SOL     OW46120   3.830   4.233   4.708
11489SOL    HW146121   3.869   4.284   4.632
11489SOL    HW246122   3.831   4.135   4.686
11490SOL     OW46123   8.789   7.970   0.248
11490SOL    HW146124   8.787   7.879   0.205
11490SOL    HW246125   8.706   7.983   0.302
11491SOL     OW46126   9.397   2.023   5.813
11491SOL    HW146127   9.428   1.949   5.754
11491SOL    HW246128   9.379   2.104   5.757
11492SOL     OW46129   9.679   3.327   3.242
11492SOL    HW146130   9.755   3.264   3.255
11492SOL    HW246131   9.644   3.356   3.331
11493SOL     OW46132   9.784   7.766   2.419
11493SOL    HW146133   9.701   7.737   2.371
11493SOL    HW246134   9.859   7.704   2.397
11494SOL     OW46135   7.336   1.023   5.084
11494SOL    HW146136   7.263   0.975   5.131
11494SOL    HW246137   7.413   1.036   5.147
11495SOL     OW46138   3.352   7.710   5.208
11495SOL    HW146139   3.383   7.620   5.180
11495SOL    HW246140   3.313   7.706   5.300
11496SOL     OW46141   1.679   5.038   2.600
11496SOL    HW146142   1.595   5.077   2.561
11496SOL    HW246143   1.679   5.052   2.699
11497SOL     OW46144   9.910   4.903   3.877
11497SOL    HW146145   9.899   4.898   3.977
11497SOL    HW246146   0.004   4.883   3.853
11498SOL     OW46147   0.867   6.319   3.946
11498SOL    HW146148   0.838   6.410   3.915
11498SOL    HW246149   0.948   6.291   3.896
11499SOL     OW46150   1.851   5.006   0.482
11499SOL    HW146151   1.860   4.921   0.430
11499SOL    HW246152   1.876   5.083   0.423
11500SOL     OW46153   5.302   0.342   4.093
11500SOL    HW146154   5.354   0.344   4.008
11500SOL    HW246155   5.223   0.403   4.085
11501SOL     OW46156   4.499   6.221   2.174
11501SOL    HW146157   4.459   6.206   2.264
11501SOL    HW246158   4.542   6.136   2.143
11502SOL     OW46159   5.094   3.395   5.113
11502SOL    HW146160   5.017   3.332   5.113
11502SOL    HW246161   5.080   3.465   5.043
11503SOL     OW46162   3.148   2.153   5.522
11503SOL    HW146163   3.156   2.252   5.505
11503SOL    HW246164   3.183   2.132   5.613
11504SOL     OW46165   0.448   8.055   0.900
11504SOL    HW146166   0.350   8.034   0.896
11504SOL    HW246167   0.463   8.150   0.872
11505SOL     OW46168   9.741   7.721   3.092
11505SOL    HW146169   9.784   7.630   3.096
11505SOL    HW246170   9.811   7.791   3.105
11506SOL     OW46171   6.347   8.974   5.258
11506SOL    HW146172   6.313   8.881   5.269
11506SOL    HW246173   6.299   9.035   5.320
11507SOL     OW46174   0.401   2.116   1.130
11507SOL    HW146175   0.430   2.208   1.103
11507SOL    HW246176   0.351   2.120   1.216
11508SOL     OW46177   2.051   0.418   5.803
11508SOL    HW146178   2.000   0.345   5.849
11508SOL    HW246179   1.989   0.470   5.744
11509SOL     OW46180   4.806   3.646   0.939
11509SOL    HW146181   4.827   3.700   1.021
11509SOL    HW246182   4.872   3.571   0.930
11510SOL     OW46183   1.183   6.029   1.998
11510SOL    HW146184   1.181   5.985   2.088
11510SOL    HW246185   1.204   5.960   1.928
11511SOL     OW46186   7.601   3.757   3.539
11511SOL    HW146187   7.691   3.736   3.578
11511SOL    HW246188   7.608   3.759   3.440
11512SOL     OW46189   8.643   8.513   2.162
11512SOL    HW146190   8.738   8.507   2.191
11512SOL    HW246191   8.639   8.518   2.062
11513SOL     OW46192   8.141   5.912   6.214
11513SOL    HW146193   8.134   6.001   6.260
11513SOL    HW246194   8.197   5.851   6.270
11514SOL     OW46195   9.858   9.904   2.577
11514SOL    HW146196   9.851   9.964   2.497
11514SOL    HW246197   9.843   9.809   2.548
11515SOL     OW46198   4.489   7.823   4.818
11515SOL    HW146199   4.452   7.838   4.909
11515SOL    HW246200   4.589   7.817   4.823
11516SOL     OW46201   1.546   0.399   7.369
11516SOL    HW146202   1.634   0.443   7.351
11516SOL    HW246203   1.541   0.313   7.317
11517SOL     OW46204   3.408   3.282   3.339
11517SOL    HW146205   3.366   3.191   3.346
11517SOL    HW246206   3.470   3.283   3.261
11518SOL     OW46207   2.046   7.024   1.895
11518SOL    HW146208   2.017   7.041   1.989
11518SOL    HW246209   2.027   6.929   1.871
11519SOL     OW46210   8.080   8.679   2.018
11519SOL    HW146211   8.058   8.767   1.976
11519SOL    HW246212   8.024   8.607   1.976
11520SOL     OW46213   0.185   0.180   6.525
11520SOL    HW146214   0.211   0.129   6.608
11520SOL    HW246215   0.093   0.153   6.497
11521SOL     OW46216   8.852   9.525   6.704
11521SOL    HW146217   8.922   9.564   6.764
11521SOL    HW246218   8.812   9.445   6.749
11522SOL     OW46219   1.832   5.934   5.667
11522SOL    HW146220   1.777   5.850   5.661
11522SOL    HW246221   1.842   5.961   5.763
11523SOL     OW46222   8.020   9.228   7.871
11523SOL    HW146223   8.002   9.170   7.791
11523SOL    HW246224   8.112   9.208   7.906
11524SOL     OW46225   2.658   6.438   5.865
11524SOL    HW146226   2.712   6.485   5.795
11524SOL    HW246227   2.705   6.354   5.892
11525SOL     OW46228   9.441   1.654   6.306
11525SOL    HW146229   9.382   1.700   6.373
11525SOL    HW246230   9.534   1.689   6.315
11526SOL     OW46231   8.613   6.407   1.863
11526SOL    HW146232   8.648   6.500   1.872
11526SOL    HW246233   8.541   6.391   1.931
11527SOL     OW46234   8.321   3.096   7.459
11527SOL    HW146235   8.408   3.081   7.506
11527SOL    HW246236   8.262   3.016   7.470
11528SOL     OW46237   2.474   4.421   2.404
11528SOL    HW146238   2.566   4.459   2.392
11528SOL    HW246239   2.464   4.386   2.497
11529SOL     OW46240   4.326   7.616   4.725
11529SOL    HW146241   4.392   7.683   4.758
11529SOL    HW246242   4.265   7.658   4.658
11530SOL     OW46243   8.348   8.471   1.788
11530SOL    HW146244   8.328   8.485   1.885
11530SOL    HW246245   8.352   8.373   1.769
11531SOL     OW46246   7.206   8.748   5.002
11531SOL    HW146247   7.196   8.689   5.082
11531SOL    HW246248   7.279   8.712   4.943
11532SOL     OW46249   2.992   2.171   7.890
11532SOL    HW146250   2.946   2.159   7.978
11532SOL    HW246251   3.080   2.122   7.891
11533SOL     OW46252   7.960   3.309   1.857
11533SOL    HW146253   7.956   3.395   1.806
11533SOL    HW246254   7.909   3.239   1.806
11534SOL     OW46255   7.569   5.793   1.517
11534SOL    HW146256   7.523   5.705   1.512
11534SOL    HW246257   7.508   5.864   1.482
11535SOL     OW46258   3.269   3.669   5.105
11535SOL    HW146259   3.272   3.767   5.125
11535SOL    HW246260   3.312   3.618   5.179
11536SOL     OW46261   5.869   1.241   1.349
11536SOL    HW146262   5.897   1.315   1.288
11536SOL    HW246263   5.837   1.163   1.295
11537SOL     OW46264   9.402   7.171   2.933
11537SOL    HW146265   9.410   7.072   2.922
11537SOL    HW246266   9.479   7.205   2.985
11538SOL     OW46267   8.469   0.505   5.334
11538SOL    HW146268   8.380   0.503   5.289
11538SOL    HW246269   8.539   0.528   5.267
11539SOL     OW46270   0.574   6.971   2.773
11539SOL    HW146271   0.520   7.042   2.819
11539SOL    HW246272   0.573   6.888   2.828
11540SOL     OW46273   7.404   1.637   3.019
11540SOL    HW146274   7.447   1.566   2.964
11540SOL    HW246275   7.355   1.701   2.959
11541SOL     OW46276   3.580   2.348   2.109
11541SOL    HW146277   3.493   2.319   2.068
11541SOL    HW246278   3.566   2.430   2.164
11542SOL     OW46279   2.588   1.718   4.836
11542SOL    HW146280   2.495   1.752   4.822
11542SOL    HW246281   2.653   1.792   4.820
11543SOL     OW46282   4.402   2.533   6.365
11543SOL    HW146283   4.362   2.441   6.366
11543SOL    HW246284   4.364   2.585   6.289
11544SOL     OW46285   5.417   3.791   6.822
11544SOL    HW146286   5.352   3.832   6.758
11544SOL    HW246287   5.368   3.744   6.895
11545SOL     OW46288   1.672   6.629   5.565
11545SOL    HW146289   1.747   6.678   5.521
11545SOL    HW246290   1.585   6.665   5.531
11546SOL     OW46291   3.565   9.784   0.781
11546SOL    HW146292   3.652   9.738   0.764
11546SOL    HW246293   3.494   9.715   0.795
11547SOL     OW46294   6.281   1.415   2.352
11547SOL    HW146295   6.356   1.397   2.289
11547SOL    HW246296   6.291   1.507   2.389
11548SOL     OW46297   0.050   2.357   4.418
11548SOL    HW146298   0.065   2.327   4.512
11548SOL    HW246299   0.131   2.404   4.385
11549SOL     OW46300   2.314   0.224   4.936
11549SOL    HW146301   2.380   0.276   4.990
11549SOL    HW246302   2.358   0.140   4.903
11550SOL     OW46303   5.478   7.728   2.236
11550SOL    HW146304   5.555   7.783   2.203
11550SOL    HW246305   5.395   7.783   2.236
11551SOL     OW46306   0.866   3.627   3.884
11551SOL    HW146307   0.918   3.620   3.798
11551SOL    HW246308   0.906   3.700   3.940
11552SOL     OW46309   6.457   8.981   1.778
11552SOL    HW146310   6.537   8.922   1.760
11552SOL    HW246311   6.480   9.075   1.756
11553SOL     OW46312   9.131   8.929   4.342
11553SOL    HW146313   9.169   8.840   4.316
11553SOL    HW246314   9.099   8.977   4.261
11554SOL     OW46315   3.941   3.463   6.449
11554SOL    HW146316   3.875   3.440   6.521
11554SOL    HW246317   3.918   3.412   6.366
11555SOL     OW46318   9.559   1.360   1.017
11555SOL    HW146319   9.559   1.441   1.076
11555SOL    HW246320   9.541   1.279   1.072
11556SOL     OW46321   2.470   7.480   6.502
11556SOL    HW146322   2.511   7.474   6.593
11556SOL    HW246323   2.542   7.487   6.433
11557SOL     OW46324   2.831   8.890   4.319
11557SOL    HW146325   2.908   8.951   4.337
11557SOL    HW246326   2.746   8.934   4.346
11558SOL     OW46327   6.957   1.219   5.329
11558SOL    HW146328   6.916   1.192   5.416
11558SOL    HW246329   6.906   1.177   5.254
11559SOL     OW46330   5.158   1.779   4.552
11559SOL    HW146331   5.134   1.875   4.567
11559SOL    HW246332   5.075   1.726   4.532
11560SOL     OW46333   3.427   3.549   3.736
11560SOL    HW146334   3.397   3.539   3.831
11560SOL    HW246335   3.348   3.568   3.678
11561SOL     OW46336   9.621   1.061   2.184
11561SOL    HW146337   9.525   1.087   2.175
11561SOL    HW246338   9.633   0.966   2.156
11562SOL     OW46339   5.677   1.211   2.057
11562SOL    HW146340   5.704   1.153   2.135
11562SOL    HW246341   5.580   1.232   2.063
11563SOL     OW46342   2.922   9.288   4.293
11563SOL    HW146343   2.870   9.362   4.335
11563SOL    HW246344   2.874   9.256   4.211
11564SOL     OW46345   8.515   2.390   7.768
11564SOL    HW146346   8.473   2.478   7.743
11564SOL    HW246347   8.597   2.407   7.823
11565SOL     OW46348   9.769   4.663   4.383
11565SOL    HW146349   9.735   4.589   4.325
11565SOL    HW246350   9.797   4.626   4.472
11566SOL     OW46351   6.618   6.984   5.426
11566SOL    HW146352   6.713   7.007   5.407
11566SOL    HW246353   6.608   6.956   5.522
11567SOL     OW46354   7.425   7.665   6.109
11567SOL    HW146355   7.327   7.669   6.130
11567SOL    HW246356   7.444   7.717   6.026
11568SOL     OW46357   0.873   0.768   5.724
11568SOL    HW146358   0.955   0.811   5.686
11568SOL    HW246359   0.886   0.751   5.822
11569SOL     OW46360   8.818   7.231   1.329
11569SOL    HW146361   8.760   7.255   1.407
11569SOL    HW246362   8.873   7.150   1.351
11570SOL     OW46363   9.330   1.399   5.364
11570SOL    HW146364   9.382   1.316   5.341
11570SOL    HW246365   9.232   1.379   5.361
11571SOL     OW46366   5.491   9.694   2.693
11571SOL    HW146367   5.494   9.786   2.733
11571SOL    HW246368   5.448   9.631   2.758
11572SOL     OW46369   4.363   6.470   0.190
11572SOL    HW146370   4.308   6.389   0.211
11572SOL    HW246371   4.427   6.487   0.266
11573SOL     OW46372   2.846   3.893   4.410
11573SOL    HW146373   2.910   3.896   4.332
11573SOL    HW246374   2.780   3.967   4.401
11574SOL     OW46375   3.027   9.198   6.453
11574SOL    HW146376   2.991   9.290   6.462
11574SOL    HW246377   3.124   9.202   6.429
11575SOL     OW46378   1.360   2.057   5.670
11575SOL    HW146379   1.312   2.070   5.757
11575SOL    HW246380   1.299   2.013   5.604
11576SOL     OW46381   5.289   5.008   1.637
11576SOL    HW146382   5.389   5.016   1.641
11576SOL    HW246383   5.257   4.952   1.713
11577SOL     OW46384   4.191   1.049   2.960
11577SOL    HW146385   4.138   1.134   2.969
11577SOL    HW246386   4.170   0.988   3.036
11578SOL     OW46387   3.421   4.250   6.777
11578SOL    HW146388   3.344   4.196   6.812
11578SOL    HW246389   3.432   4.332   6.833
11579SOL     OW46390   9.419   6.744   5.395
11579SOL    HW146391   9.339   6.736   5.455
11579SOL    HW246392   9.463   6.655   5.386
11580SOL     OW46393   6.945   8.892   6.384
11580SOL    HW146394   6.920   8.796   6.371
11580SOL    HW246395   6.871   8.950   6.349
11581SOL     OW46396   6.157   7.790   5.077
11581SOL    HW146397   6.212   7.708   5.095
11581SOL    HW246398   6.151   7.844   5.161
11582SOL     OW46399   2.468   7.176   4.728
11582SOL    HW146400   2.496   7.245   4.662
11582SOL    HW246401   2.549   7.132   4.767
11583SOL     OW46402   4.345   0.185   3.805
11583SOL    HW146403   4.329   0.170   3.708
11583SOL    HW246404   4.401   0.266   3.818
11584SOL     OW46405   2.831   2.529   7.651
11584SOL    HW146406   2.874   2.533   7.561
11584SOL    HW246407   2.760   2.458   7.652
11585SOL     OW46408   5.573   8.447   3.648
11585SOL    HW146409   5.611   8.358   3.671
11585SOL    HW246410   5.646   8.515   3.649
11586SOL     OW46411   8.515   5.589   6.226
11586SOL    HW146412   8.585   5.543   6.281
11586SOL    HW246413   8.559   5.643   6.154
11587SOL     OW46414   3.756   3.301   3.279
11587SOL    HW146415   3.844   3.254   3.265
11587SOL    HW246416   3.725   3.340   3.193
11588SOL     OW46417   9.895   2.479   7.658
11588SOL    HW146418   9.804   2.474   7.618
11588SOL    HW246419   9.964   2.477   7.585
11589SOL     OW46420   4.929   5.871   1.048
11589SOL    HW146421   4.858   5.807   1.020
11589SOL    HW246422   4.887   5.959   1.072
11590SOL     OW46423   9.985   6.592   6.023
11590SOL    HW146424   9.957   6.571   6.117
11590SOL    HW246425   0.049   6.521   5.991
11591SOL     OW46426   5.938   0.847   5.877
11591SOL    HW146427   5.946   0.823   5.974
11591SOL    HW246428   5.910   0.766   5.825
11592SOL     OW46429   3.931   8.705   3.008
11592SOL    HW146430   3.958   8.732   2.916
11592SOL    HW246431   4.008   8.660   3.054
11593SOL     OW46432   6.795   1.127   5.094
11593SOL    HW146433   6.841   1.062   5.034
11593SOL    HW246434   6.796   1.218   5.052
11594SOL     OW46435   0.826   6.403   7.764
11594SOL    HW146436   0.740   6.352   7.758
11594SOL    HW246437   0.861   6.398   7.857
11595SOL     OW46438   3.035   3.707   5.691
11595SOL    HW146439   3.015   3.610   5.704
11595SOL    HW246440   2.969   3.763   5.741
11596SOL     OW46441   9.549   4.027   4.445
11596SOL    HW146442   9.587   4.013   4.536
11596SOL    HW246443   9.560   3.943   4.391
11597SOL     OW46444   3.686   3.676   4.312
11597SOL    HW146445   3.778   3.666   4.349
11597SOL    HW246446   3.677   3.766   4.269
11598SOL     OW46447   3.031   7.436   1.187
11598SOL    HW146448   3.067   7.501   1.121
11598SOL    HW246449   2.932   7.428   1.175
11599SOL     OW46450   9.711   9.786   6.813
11599SOL    HW146451   9.800   9.758   6.778
11599SOL    HW246452   9.705   9.767   6.911
11600SOL     OW46453   9.706   1.357   6.008
11600SOL    HW146454   9.638   1.300   6.053
11600SOL    HW246455   9.691   1.355   5.909
11601SOL     OW46456   0.597   5.910   0.949
11601SOL    HW146457   0.566   5.830   1.000
11601SOL    HW246458   0.581   5.896   0.852
11602SOL     OW46459   3.706   3.525   3.442
11602SOL    HW146460   3.707   3.449   3.376
11602SOL    HW246461   3.759   3.500   3.522
11603SOL     OW46462   9.092   5.275   3.291
11603SOL    HW146463   9.136   5.330   3.363
11603SOL    HW246464   9.041   5.335   3.230
11604SOL     OW46465   3.151   7.328   6.176
11604SOL    HW146466   3.056   7.300   6.192
11604SOL    HW246467   3.164   7.422   6.208
11605SOL     OW46468   6.483   2.723   4.671
11605SOL    HW146469   6.563   2.670   4.642
11605SOL    HW246470   6.479   2.727   4.771
11606SOL     OW46471   3.437   3.499   6.218
11606SOL    HW146472   3.466   3.421   6.162
11606SOL    HW246473   3.357   3.543   6.176
11607SOL     OW46474   4.520   7.892   0.484
11607SOL    HW146475   4.546   7.927   0.394
11607SOL    HW246476   4.496   7.796   0.477
11608SOL     OW46477   4.423   2.020   1.013
11608SOL    HW146478   4.494   2.076   0.970
11608SOL    HW246479   4.376   2.073   1.084
11609SOL     OW46480   8.849   6.288   1.129
11609SOL    HW146481   8.777   6.249   1.186
11609SOL    HW246482   8.936   6.243   1.149
11610SOL     OW46483   5.088   1.538   5.325
11610SOL    HW146484   5.168   1.479   5.313
11610SOL    HW246485   5.113   1.633   5.308
11611SOL     OW46486   2.331   1.282   0.270
11611SOL    HW146487   2.344   1.211   0.201
11611SOL    HW246488   2.397   1.356   0.254
11612SOL     OW46489   6.964   2.509   0.447
11612SOL    HW146490   6.866   2.491   0.454
11612SOL    HW246491   7.007   2.441   0.387
11613SOL     OW46492   2.291   9.685   6.556
11613SOL    HW146493   2.248   9.678   6.466
11613SOL    HW246494   2.299   9.594   6.597
11614SOL     OW46495   9.502   4.660   2.804
11614SOL    HW146496   9.577   4.629   2.862
11614SOL    HW246497   9.441   4.583   2.785
11615SOL     OW46498   4.150   3.907   4.089
11615SOL    HW146499   4.222   3.972   4.117
11615SOL    HW246500   4.079   3.957   4.038
11616SOL     OW46501   9.479   5.661   2.095
11616SOL    HW146502   9.393   5.689   2.139
11616SOL    HW246503   9.458   5.602   2.017
11617SOL     OW46504   7.931   8.174   0.871
11617SOL    HW146505   7.872   8.098   0.847
11617SOL    HW246506   7.907   8.208   0.962
11618SOL     OW46507   1.027   8.079   2.718
11618SOL    HW146508   1.056   8.147   2.785
11618SOL    HW246509   1.067   7.990   2.741
11619SOL     OW46510   2.203   7.697   4.898
11619SOL    HW146511   2.121   7.692   4.955
11619SOL    HW246512   2.209   7.616   4.840
11620SOL     OW46513   6.001   2.275   1.858
11620SOL    HW146514   5.946   2.200   1.820
11620SOL    HW246515   5.973   2.292   1.953
11621SOL     OW46516   0.857   0.970   0.984
11621SOL    HW146517   0.924   1.005   0.918
11621SOL    HW246518   0.900   0.967   1.075
11622SOL     OW46519   9.667   7.806   6.438
11622SOL    HW146520   9.616   7.841   6.360
11622SOL    HW246521   9.760   7.842   6.437
11623SOL     OW46522   2.087   5.222   6.805
11623SOL    HW146523   1.992   5.251   6.808
11623SOL    HW246524   2.095   5.132   6.847
11624SOL     OW46525   8.943   0.891   0.937
11624SOL    HW146526   8.928   0.793   0.926
11624SOL    HW246527   9.030   0.907   0.984
11625SOL     OW46528   6.284   0.469   3.560
11625SOL    HW146529   6.334   0.491   3.644
11625SOL    HW246530   6.318   0.525   3.485
11626SOL     OW46531   9.963   9.736   3.253
11626SOL    HW146532   9.969   9.663   3.185
11626SOL    HW246533   0.055   9.764   3.280
11627SOL     OW46534   3.164   2.828   3.474
11627SOL    HW146535   3.164   2.784   3.384
11627SOL    HW246536   3.072   2.861   3.495
11628SOL     OW46537   3.730   5.088   7.509
11628SOL    HW146538   3.800   5.111   7.442
11628SOL    HW246539   3.743   4.995   7.542
11629SOL     OW46540   3.310   0.976   5.390
11629SOL    HW146541   3.224   0.935   5.360
11629SOL    HW246542   3.317   0.970   5.490
11630SOL     OW46543   5.075   5.334   0.237
11630SOL    HW146544   5.138   5.392   0.186
11630SOL    HW246545   5.124   5.256   0.275
11631SOL     OW46546   2.413   1.731   5.659
11631SOL    HW146547   2.450   1.654   5.711
11631SOL    HW246548   2.321   1.707   5.626
11632SOL     OW46549   9.537   2.000   7.544
11632SOL    HW146550   9.601   2.069   7.509
11632SOL    HW246551   9.583   1.912   7.551
11633SOL     OW46552   2.460   1.130   5.294
11633SOL    HW146553   2.391   1.081   5.347
11633SOL    HW246554   2.462   1.226   5.323
11634SOL     OW46555   7.406   0.055   7.586
11634SOL    HW146556   7.343   9.986   7.549
11634SOL    HW246557   7.406   0.050   7.686
11635SOL     OW46558   7.920   9.881   1.617
11635SOL    HW146559   7.849   9.817   1.587
11635SOL    HW246560   8.003   9.829   1.638
11636SOL     OW46561   0.730   4.056   3.908
11636SOL    HW146562   0.795   4.010   3.969
11636SOL    HW246563   0.779   4.093   3.829
11637SOL     OW46564   3.868   0.165   6.619
11637SOL    HW146565   3.772   0.181   6.639
11637SOL    HW246566   3.897   0.224   6.543
11638SOL     OW46567   9.011   6.389   7.587
11638SOL    HW146568   8.993   6.460   7.518
11638SOL    HW246569   8.972   6.302   7.557
11639SOL     OW46570   2.986   9.630   3.946
11639SOL    HW146571   3.063   9.665   3.999
11639SOL    HW246572   2.918   9.702   3.934
11640SOL     OW46573   3.045   6.485   0.830
11640SOL    HW146574   3.062   6.577   0.794
11640SOL    HW246575   3.094   6.474   0.916
11641SOL     OW46576   7.675   7.710   7.409
11641SOL    HW146577   7.674   7.801   7.449
11641SOL    HW246578   7.584   7.669   7.416
11642SOL     OW46579   5.134   2.010   0.147
11642SOL    HW146580   5.195   2.085   0.175
11642SOL    HW246581   5.120   2.015   0.048
11643SOL     OW46582   4.375   8.631   0.738
11643SOL    HW146583   4.435   8.618   0.659
11643SOL    HW246584   4.399   8.716   0.784
11644SOL     OW46585   7.711   4.663   6.992
11644SOL    HW146586   7.678   4.591   7.053
11644SOL    HW246587   7.644   4.737   6.987
11645SOL     OW46588   0.050   7.695   1.422
11645SOL    HW146589   0.133   7.639   1.427
11645SOL    HW246590   9.997   7.683   1.506
11646SOL     OW46591   4.864   8.575   7.153
11646SOL    HW146592   4.897   8.493   7.200
11646SOL    HW246593   4.926   8.598   7.078
11647SOL     OW46594   8.423   7.373   1.456
11647SOL    HW146595   8.379   7.367   1.545
11647SOL    HW246596   8.408   7.463   1.417
11648SOL     OW46597   9.803   4.580   4.027
11648SOL    HW146598   9.740   4.595   3.951
11648SOL    HW246599   9.753   4.541   4.104
11649SOL     OW46600   9.500   0.883   6.058
11649SOL    HW146601   9.537   0.838   5.976
11649SOL    HW246602   9.572   0.940   6.099
11650SOL     OW46603   5.384   3.082   7.055
11650SOL    HW146604   5.362   3.139   6.976
11650SOL    HW246605   5.366   3.133   7.139
11651SOL     OW46606   7.626   9.249   6.294
11651SOL    HW146607   7.660   9.196   6.372
11651SOL    HW246608   7.699   9.258   6.226
11652SOL     OW46609   7.693   9.871   7.397
11652SOL    HW146610   7.630   9.794   7.406
11652SOL    HW246611   7.649   9.946   7.348
11653SOL     OW46612   4.837   1.311   4.025
11653SOL    HW146613   4.755   1.345   4.072
11653SOL    HW246614   4.813   1.231   3.970
11654SOL     OW46615   2.557   4.626   3.861
11654SOL    HW146616   2.464   4.647   3.892
11654SOL    HW246617   2.623   4.661   3.927
11655SOL     OW46618   0.466   1.681   4.326
11655SOL    HW146619   0.418   1.731   4.253
11655SOL    HW246620   0.520   1.607   4.285
11656SOL     OW46621   6.762   7.775   2.661
11656SOL    HW146622   6.812   7.793   2.746
11656SOL    HW246623   6.820   7.799   2.583
11657SOL     OW46624   1.881   0.240   5.928
11657SOL    HW146625   1.838   0.179   5.861
11657SOL    HW246626   1.810   0.291   5.977
11658SOL     OW46627   8.626   1.818   0.762
11658SOL    HW146628   8.621   1.797   0.859
11658SOL    HW246629   8.714   1.787   0.726
11659SOL     OW46630   4.243   8.170   6.393
11659SOL    HW146631   4.195   8.183   6.307
11659SOL    HW246632   4.218   8.082   6.434
11660SOL     OW46633   9.085   4.298   5.013
11660SOL    HW146634   9.024   4.342   4.947
11660SOL    HW246635   9.036   4.228   5.064
11661SOL     OW46636   4.186   9.615   4.213
11661SOL    HW146637   4.203   9.681   4.139
11661SOL    HW246638   4.250   9.632   4.288
11662SOL     OW46639   6.929   2.975   1.106
11662SOL    HW146640   6.934   3.074   1.114
11662SOL    HW246641   7.016   2.939   1.072
11663SOL     OW46642   0.452   1.963   1.495
11663SOL    HW146643   0.418   1.870   1.495
11663SOL    HW246644   0.392   2.022   1.441
11664SOL     OW46645   8.628   5.587   3.423
11664SOL    HW146646   8.616   5.661   3.356
11664SOL    HW246647   8.660   5.505   3.376
11665SOL     OW46648   3.118   3.652   1.196
11665SOL    HW146649   3.209   3.686   1.174
11665SOL    HW246650   3.055   3.675   1.122
11666SOL     OW46651   0.187   6.964   1.051
11666SOL    HW146652   0.099   6.971   1.005
11666SOL    HW246653   0.229   6.876   1.031
11667SOL     OW46654   7.868   1.576   2.614
11667SOL    HW146655   7.949   1.518   2.627
11667SOL    HW246656   7.857   1.597   2.517
11668SOL     OW46657   8.677   6.539   4.073
11668SOL    HW146658   8.718   6.630   4.068
11668SOL    HW246659   8.737   6.473   4.029
11669SOL     OW46660   4.843   7.512   2.007
11669SOL    HW146661   4.828   7.606   1.978
11669SOL    HW246662   4.927   7.507   2.061
11670SOL     OW46663   9.164   1.800   5.243
11670SOL    HW146664   9.225   1.733   5.200
11670SOL    HW246665   9.127   1.762   5.327
11671SOL     OW46666   8.448   4.362   0.351
11671SOL    HW146667   8.459   4.291   0.421
11671SOL    HW246668   8.407   4.321   0.270
11672SOL     OW46669   7.620   4.033   2.967
11672SOL    HW146670   7.666   4.023   3.055
11672SOL    HW246671   7.521   4.026   2.980
11673SOL     OW46672   1.095   1.659   2.302
11673SOL    HW146673   1.070   1.624   2.212
11673SOL    HW246674   1.192   1.682   2.303
11674SOL     OW46675   5.091   9.847   3.103
11674SOL    HW146676   5.046   9.758   3.107
11674SOL    HW246677   5.031   9.912   3.057
11675SOL     OW46678   5.127   2.008   6.787
11675SOL    HW146679   5.082   2.076   6.845
11675SOL    HW246680   5.059   1.962   6.730
11676SOL     OW46681   1.898   0.455   7.927
11676SOL    HW146682   1.821   0.460   7.864
11676SOL    HW246683   1.881   0.383   7.994
11677SOL     OW46684   0.033   1.037   3.366
11677SOL    HW146685   0.124   0.998   3.356
11677SOL    HW246686   9.983   0.989   3.438
11678SOL     OW46687   7.355   5.798   0.106
11678SOL    HW146688   7.452   5.814   0.124
11678SOL    HW246689   7.321   5.727   0.168
11679SOL     OW46690   6.901   9.593   5.163
11679SOL    HW146691   6.966   9.601   5.087
11679SOL    HW246692   6.841   9.673   5.164
11680SOL     OW46693   8.238   5.461   7.170
11680SOL    HW146694   8.320   5.506   7.136
11680SOL    HW246695   8.217   5.382   7.112
11681SOL     OW46696   8.815   8.073   3.946
11681SOL    HW146697   8.822   8.001   4.014
11681SOL    HW246698   8.831   8.036   3.855
11682SOL     OW46699   0.013   5.442   4.939
11682SOL    HW146700   0.072   5.496   4.879
11682SOL    HW246701   9.923   5.431   4.898
11683SOL     OW46702   3.869   2.637   3.943
11683SOL    HW146703   3.869   2.571   3.868
11683SOL    HW246704   3.912   2.722   3.914
11684SOL     OW46705   7.786   6.869   4.310
11684SOL    HW146706   7.828   6.890   4.222
11684SOL    HW246707   7.828   6.787   4.349
11685SOL     OW46708   5.459   6.695   2.220
11685SOL    HW146709   5.410   6.670   2.137
11685SOL    HW246710   5.421   6.645   2.298
11686SOL     OW46711   0.739   5.002   2.428
11686SOL    HW146712   0.748   5.066   2.504
11686SOL    HW246713   0.670   5.037   2.364
11687SOL     OW46714   8.196   3.136   2.762
11687SOL    HW146715   8.107   3.092   2.775
11687SOL    HW246716   8.228   3.173   2.849
11688SOL     OW46717   7.104   0.031   3.912
11688SOL    HW146718   7.086   0.002   3.818
11688SOL    HW246719   7.033   9.994   3.972
11689SOL     OW46720   1.432   8.858   0.642
11689SOL    HW146721   1.441   8.792   0.568
11689SOL    HW246722   1.434   8.951   0.605
11690SOL     OW46723   2.330   1.509   1.953
11690SOL    HW146724   2.242   1.547   1.925
11690SOL    HW246725   2.397   1.583   1.959
11691SOL     OW46726   8.632   6.361   6.954
11691SOL    HW146727   8.538   6.388   6.973
11691SOL    HW246728   8.637   6.261   6.945
11692SOL     OW46729   2.855   3.511   0.091
11692SOL    HW146730   2.817   3.512  10.080
11692SOL    HW246731   2.944   3.467   0.090
11693SOL     OW46732   0.582   6.164   1.053
11693SOL    HW146733   0.497   6.174   1.105
11693SOL    HW246734   0.589   6.070   1.020
11694SOL     OW46735   3.603   7.053   3.196
11694SOL    HW146736   3.632   7.003   3.277
11694SOL    HW246737   3.675   7.049   3.126
11695SOL     OW46738   9.812   3.633   7.709
11695SOL    HW146739   9.712   3.638   7.718
11695SOL    HW246740   9.839   3.537   7.699
11696SOL     OW46741   3.532   7.046   2.188
11696SOL    HW146742   3.626   7.046   2.221
11696SOL    HW246743   3.507   6.953   2.160
11697SOL     OW46744   8.936   5.462   3.155
11697SOL    HW146745   8.872   5.484   3.081
11697SOL    HW246746   8.952   5.544   3.210
11698SOL     OW46747   0.178   2.923   7.453
11698SOL    HW146748   0.167   2.866   7.372
11698SOL    HW246749   0.166   2.868   7.536
11699SOL     OW46750   2.660   0.528   7.461
11699SOL    HW146751   2.597   0.483   7.524
11699SOL    HW246752   2.753   0.523   7.498
11700SOL     OW46753   4.815   9.637   6.674
11700SOL    HW146754   4.915   9.646   6.668
11700SOL    HW246755   4.789   9.543   6.654
11701SOL     OW46756   2.081   7.513   3.479
11701SOL    HW146757   2.024   7.458   3.418
11701SOL    HW246758   2.134   7.453   3.539
11702SOL     OW46759   4.895   4.836   6.251
11702SOL    HW146760   4.832   4.786   6.191
11702SOL    HW246761   4.966   4.880   6.195
11703SOL     OW46762   0.405   4.957   4.882
11703SOL    HW146763   0.333   4.994   4.941
11703SOL    HW246764   0.365   4.924   4.796
11704SOL     OW46765   0.145   8.115   3.754
11704SOL    HW146766   0.095   8.069   3.827
11704SOL    HW246767   0.144   8.214   3.770
11705SOL     OW46768   2.303   4.180   1.058
11705SOL    HW146769   2.305   4.245   0.981
11705SOL    HW246770   2.281   4.089   1.025
11706SOL     OW46771   9.662   4.808   5.807
11706SOL    HW146772   9.621   4.854   5.886
11706SOL    HW246773   9.624   4.847   5.723
11707SOL     OW46774   2.186   4.523   6.491
11707SOL    HW146775   2.157   4.530   6.586
11707SOL    HW246776   2.285   4.539   6.485
11708SOL     OW46777   4.706   9.539   2.155
11708SOL    HW146778   4.674   9.607   2.222
11708SOL    HW246779   4.700   9.578   2.063
11709SOL     OW46780   6.123   0.985   1.206
11709SOL    HW146781   6.082   1.017   1.121
11709SOL    HW246782   6.198   1.046   1.231
11710SOL     OW46783   0.704   0.843   3.540
11710SOL    HW146784   0.741   0.756   3.508
11710SOL    HW246785   0.776   0.894   3.587
11711SOL     OW46786   7.142   3.050   0.326
11711SOL    HW146787   7.086   2.990   0.383
11711SOL    HW246788   7.087   3.084   0.249
11712SOL     OW46789   9.429   9.811   4.632
11712SOL    HW146790   9.373   9.738   4.591
11712SOL    HW246791   9.523   9.779   4.644
11713SOL     OW46792   9.758   4.518   7.695
11713SOL    HW146793   9.716   4.427   7.687
11713SOL    HW246794   9.687   4.586   7.714
11714SOL     OW46795   1.038   2.515   1.403
11714SOL    HW146796   1.061   2.605   1.366
11714SOL    HW246797   1.023   2.522   1.501
11715SOL     OW46798   7.593   4.874   0.995
11715SOL    HW146799   7.547   4.962   0.983
11715SOL    HW246800   7.613   4.834   0.905
11716SOL     OW46801   2.943   2.065   6.996
11716SOL    HW146802   3.027   2.083   7.047
11716SOL    HW246803   2.908   2.150   6.957
11717SOL     OW46804   0.483   2.085   0.273
11717SOL    HW146805   0.413   2.014   0.264
11717SOL    HW246806   0.551   2.074   0.201
11718SOL     OW46807   7.084   9.709   2.043
11718SOL    HW146808   6.994   9.748   2.021
11718SOL    HW246809   7.072   9.615   2.073
11719SOL     OW46810   1.759   5.286   5.302
11719SOL    HW146811   1.802   5.230   5.232
11719SOL    HW246812   1.700   5.229   5.359
11720SOL     OW46813   8.526   9.659   7.625
11720SOL    HW146814   8.578   9.589   7.673
11720SOL    HW246815   8.522   9.742   7.681
11721SOL     OW46816   7.528   8.010   4.866
11721SOL    HW146817   7.586   8.039   4.790
11721SOL    HW246818   7.451   7.956   4.831
11722SOL     OW46819   7.876   7.641   5.154
11722SOL    HW146820   7.972   7.623   5.129
11722SOL    HW246821   7.862   7.615   5.250
11723SOL     OW46822   2.524   1.398   6.012
11723SOL    HW146823   2.601   1.412   6.074
11723SOL    HW246824   2.483   1.309   6.030
11724SOL     OW46825   4.583   7.786   3.586
11724SOL    HW146826   4.611   7.781   3.490
11724SOL    HW246827   4.489   7.753   3.595
11725SOL     OW46828   8.599   5.729   5.592
11725SOL    HW146829   8.587   5.647   5.648
11725SOL    HW246830   8.694   5.734   5.559
11726SOL     OW46831   8.889   5.561   6.194
11726SOL    HW146832   8.852   5.650   6.221
11726SOL    HW246833   8.988   5.562   6.204
11727SOL     OW46834   4.347   7.625   1.663
11727SOL    HW146835   4.315   7.719   1.650
11727SOL    HW246836   4.432   7.626   1.715
11728SOL     OW46837   2.278   4.110   5.356
11728SOL    HW146838   2.284   4.210   5.344
11728SOL    HW246839   2.197   4.088   5.409
11729SOL     OW46840   0.008   1.041   7.183
11729SOL    HW146841   9.941   1.092   7.237
11729SOL    HW246842   9.961   0.978   7.121
11730SOL     OW46843   7.993   8.060   4.623
11730SOL    HW146844   7.926   8.098   4.560
11730SOL    HW246845   8.055   7.999   4.574
11731SOL     OW46846   4.980   1.166   6.562
11731SOL    HW146847   5.003   1.213   6.477
11731SOL    HW246848   5.054   1.103   6.586
11732SOL     OW46849   8.233   0.831   2.199
11732SOL    HW146850   8.277   0.919   2.212
11732SOL    HW246851   8.212   0.790   2.288
11733SOL     OW46852   9.691   9.895   6.080
11733SOL    HW146853   9.699   9.825   6.150
11733SOL    HW246854   9.770   9.890   6.019
11734SOL     OW46855   0.917   5.230   7.156
11734SOL    HW146856   0.865   5.157   7.201
11734SOL    HW246857   0.955   5.197   7.070
11735SOL     OW46858   0.290   2.053   6.291
11735SOL    HW146859   0.353   2.044   6.213
11735SOL    HW246860   0.223   1.979   6.287
11736SOL     OW46861   1.106   4.569   4.470
11736SOL    HW146862   1.087   4.472   4.485
11736SOL    HW246863   1.146   4.609   4.553
11737SOL     OW46864   5.668   8.896   2.835
11737SOL    HW146865   5.637   8.841   2.757
11737SOL    HW246866   5.689   8.837   2.912
11738SOL     OW46867   0.495   0.650   6.221
11738SOL    HW146868   0.409   0.602   6.237
11738SOL    HW246869   0.542   0.609   6.143
11739SOL     OW46870   8.705   8.048   2.398
11739SOL    HW146871   8.661   8.124   2.446
11739SOL    HW246872   8.703   8.066   2.299
11740SOL     OW46873   9.132   8.283   0.948
11740SOL    HW146874   9.131   8.241   1.039
11740SOL    HW246875   9.183   8.369   0.952
11741SOL     OW46876   0.925   7.343   2.921
11741SOL    HW146877   0.930   7.256   2.970
11741SOL    HW246878   0.945   7.327   2.824
11742SOL     OW46879   3.003   3.051   1.412
11742SOL    HW146880   2.965   3.144   1.414
11742SOL    HW246881   3.074   3.043   1.482
11743SOL     OW46882   3.698   1.174   5.713
11743SOL    HW146883   3.688   1.256   5.771
11743SOL    HW246884   3.741   1.200   5.626
11744SOL     OW46885   5.942   6.179   0.640
11744SOL    HW146886   5.994   6.224   0.713
11744SOL    HW246887   5.900   6.249   0.582
11745SOL     OW46888   4.429   5.171   4.809
11745SOL    HW146889   4.496   5.155   4.881
11745SOL    HW246890   4.390   5.263   4.819
11746SOL     OW46891   0.150   6.693   7.656
11746SOL    HW146892   0.094   6.772   7.682
11746SOL    HW246893   0.163   6.692   7.557
11747SOL     OW46894   8.578   9.152   2.789
11747SOL    HW146895   8.570   9.147   2.689
11747SOL    HW246896   8.645   9.085   2.820
11748SOL     OW46897   3.713   1.136   4.791
11748SOL    HW146898   3.755   1.077   4.721
11748SOL    HW246899   3.632   1.091   4.829
11749SOL     OW46900   9.533   8.329   4.764
11749SOL    HW146901   9.523   8.370   4.674
11749SOL    HW246902   9.626   8.345   4.798
11750SOL     OW46903   8.794   8.755   7.078
11750SOL    HW146904   8.712   8.715   7.121
11750SOL    HW246905   8.855   8.790   7.149
11751SOL     OW46906   8.840   2.781   5.887
11751SOL    HW146907   8.766   2.832   5.841
11751SOL    HW246908   8.888   2.841   5.950
11752SOL     OW46909   4.551   6.513   0.378
11752SOL    HW146910   4.553   6.474   0.470
11752SOL    HW246911   4.624   6.473   0.323
11753SOL     OW46912   8.126   3.633   0.911
11753SOL    HW146913   8.033   3.598   0.899
11753SOL    HW246914   8.123   3.732   0.924
11754SOL     OW46915   9.092   7.966   4.217
11754SOL    HW146916   9.116   7.946   4.312
11754SOL    HW246917   9.173   7.955   4.159
11755SOL     OW46918   0.206   8.876   4.206
11755SOL    HW146919   0.269   8.897   4.131
11755SOL    HW246920   0.150   8.956   4.226
11756SOL     OW46921   8.013   9.736   7.116
11756SOL    HW146922   8.103   9.708   7.150
11756SOL    HW246923   7.954   9.655   7.108
11757SOL     OW46924   9.575   8.169   1.749
11757SOL    HW146925   9.601   8.142   1.841
11757SOL    HW246926   9.519   8.097   1.708
11758SOL     OW46927   3.743   2.286   3.436
11758SOL    HW146928   3.806   2.364   3.444
11758SOL    HW246929   3.674   2.292   3.509
11759SOL     OW46930   7.209   5.667   3.104
11759SOL    HW146931   7.303   5.702   3.110
11759SOL    HW246932   7.148   5.728   3.154
11760SOL     OW46933   8.927   5.315   0.339
11760SOL    HW146934   8.840   5.337   0.295
11760SOL    HW246935   8.998   5.376   0.305
11761SOL     OW46936   9.582   8.298   5.764
11761SOL    HW146937   9.489   8.269   5.784
11761SOL    HW246938   9.595   8.392   5.794
11762SOL     OW46939   0.787   5.925   5.197
11762SOL    HW146940   0.779   5.853   5.128
11762SOL    HW246941   0.779   6.014   5.151
11763SOL     OW46942   7.395   6.020   7.581
11763SOL    HW146943   7.302   6.000   7.612
11763SOL    HW246944   7.392   6.057   7.488
11764SOL     OW46945   5.030   0.391   2.204
11764SOL    HW146946   4.989   0.469   2.251
11764SOL    HW246947   4.987   0.379   2.115
11765SOL     OW46948   0.932   3.783   2.750
11765SOL    HW146949   0.962   3.813   2.659
11765SOL    HW246950   0.853   3.838   2.779
11766SOL     OW46951   4.990   2.584   0.089
11766SOL    HW146952   4.988   2.484   0.095
11766SOL    HW246953   4.927   2.614   0.017
11767SOL     OW46954   1.150   5.717   2.964
11767SOL    HW146955   1.071   5.776   2.946
11767SOL    HW246956   1.162   5.653   2.887
11768SOL     OW46957   3.963   5.408   5.412
11768SOL    HW146958   4.056   5.384   5.386
11768SOL    HW246959   3.901   5.333   5.390
11769SOL     OW46960   9.587   3.779   4.283
11769SOL    HW146961   9.594   3.679   4.280
11769SOL    HW246962   9.494   3.806   4.260
11770SOL     OW46963   8.891   4.824   7.200
11770SOL    HW146964   8.814   4.879   7.167
11770SOL    HW246965   8.968   4.835   7.137
11771SOL     OW46966   6.219   0.723   0.848
11771SOL    HW146967   6.243   0.684   0.937
11771SOL    HW246968   6.135   0.680   0.814
11772SOL     OW46969   9.206   6.189   6.459
11772SOL    HW146970   9.267   6.228   6.528
11772SOL    HW246971   9.111   6.200   6.488
11773SOL     OW46972   1.758   2.933   5.810
11773SOL    HW146973   1.769   3.002   5.739
11773SOL    HW246974   1.781   2.973   5.899
11774SOL     OW46975   6.384   0.053   3.884
11774SOL    HW146976   6.436   0.110   3.947
11774SOL    HW246977   6.349   0.109   3.809
11775SOL     OW46978   4.156   4.471   5.603
11775SOL    HW146979   4.193   4.498   5.692
11775SOL    HW246980   4.176   4.542   5.535
11776SOL     OW46981   9.520   1.514   4.013
11776SOL    HW146982   9.596   1.481   4.068
11776SOL    HW246983   9.535   1.489   3.917
11777SOL     OW46984   9.992   0.836   6.517
11777SOL    HW146985   9.997   0.747   6.473
11777SOL    HW246986   0.010   0.908   6.450
11778SOL     OW46987   7.372   0.075   4.554
11778SOL    HW146988   7.301   0.006   4.544
11778SOL    HW246989   7.337   0.154   4.605
11779SOL     OW46990   3.115   7.504   3.440
11779SOL    HW146991   3.107   7.413   3.480
11779SOL    HW246992   3.159   7.566   3.505
11780SOL     OW46993   0.775   6.091   0.685
11780SOL    HW146994   0.749   6.154   0.759
11780SOL    HW246995   0.874   6.083   0.681
11781SOL     OW46996   8.682   1.944   5.353
11781SOL    HW146997   8.702   1.870   5.289
11781SOL    HW246998   8.755   1.951   5.421
11782SOL     OW46999   1.658   9.882   7.911
11782SOL    HW147000   1.613   9.802   7.951
11782SOL    HW247001   1.718   9.852   7.837
11783SOL     OW47002   7.452   9.409   2.822
11783SOL    HW147003   7.358   9.376   2.822
11783SOL    HW247004   7.487   9.411   2.728
11784SOL     OW47005   4.772   0.227   5.731
11784SOL    HW147006   4.687   0.235   5.784
11784SOL    HW247007   4.765   0.283   5.649
11785SOL     OW47008   0.151   1.567   4.700
11785SOL    HW147009   0.074   1.525   4.652
11785SOL    HW247010   0.231   1.566   4.640
11786SOL     OW47011   7.330   2.909   0.188
11786SOL    HW147012   7.422   2.905   0.228
11786SOL    HW247013   7.274   2.971   0.243
11787SOL     OW47014   6.926   8.677   7.499
11787SOL    HW147015   6.884   8.757   7.542
11787SOL    HW247016   6.955   8.700   7.406
11788SOL     OW47017   1.509   9.025   3.669
11788SOL    HW147018   1.529   9.013   3.572
11788SOL    HW247019   1.429   9.084   3.679
11789SOL     OW47020   0.221   0.795   5.330
11789SOL    HW147021   0.272   0.742   5.262
11789SOL    HW247022   0.212   0.741   5.414
11790SOL     OW47023   8.749   8.877   6.833
11790SOL    HW147024   8.756   8.838   6.924
11790SOL    HW247025   8.760   8.805   6.765
11791SOL     OW47026   6.837   0.004   3.439
11791SOL    HW147027   6.869   0.099   3.435
11791SOL    HW247028   6.813   9.974   3.346
11792SOL     OW47029   7.687   2.520   1.059
11792SOL    HW147030   7.622   2.579   1.106
11792SOL    HW247031   7.755   2.576   1.010
11793SOL     OW47032   8.646   6.805   0.079
11793SOL    HW147033   8.566   6.863   0.068
11793SOL    HW247034   8.619   6.709   0.078
11794SOL     OW47035   4.188   3.878   1.744
11794SOL    HW147036   4.160   3.832   1.829
11794SOL    HW247037   4.221   3.970   1.765
11795SOL     OW47038   3.837   4.639   1.329
11795SOL    HW147039   3.821   4.737   1.314
11795SOL    HW247040   3.823   4.590   1.243
11796SOL     OW47041   0.934   9.975   7.507
11796SOL    HW147042   1.000   0.040   7.470
11796SOL    HW247043   0.874   9.943   7.433
11797SOL     OW47044   1.075   0.522   7.411
11797SOL    HW147045   1.159   0.500   7.361
11797SOL    HW247046   1.097   0.573   7.494
11798SOL     OW47047   3.701   2.871   1.009
11798SOL    HW147048   3.684   2.970   1.011
11798SOL    HW247049   3.614   2.822   1.003
11799SOL     OW47050   2.351   6.644   6.984
11799SOL    HW147051   2.431   6.681   6.936
11799SOL    HW247052   2.267   6.679   6.942
11800SOL     OW47053   2.951   1.076   1.373
11800SOL    HW147054   2.936   1.011   1.447
11800SOL    HW247055   2.871   1.076   1.313
11801SOL     OW47056   9.699   4.274   2.186
11801SOL    HW147057   9.644   4.357   2.177
11801SOL    HW247058   9.652   4.197   2.143
11802SOL     OW47059   0.166   5.048   3.638
11802SOL    HW147060   0.070   5.071   3.624
11802SOL    HW247061   0.174   4.978   3.709
11803SOL     OW47062   2.506   5.382   5.693
11803SOL    HW147063   2.518   5.321   5.772
11803SOL    HW247064   2.494   5.476   5.726
11804SOL     OW47065   4.397   6.255   3.164
11804SOL    HW147066   4.478   6.275   3.218
11804SOL    HW247067   4.392   6.156   3.147
11805SOL     OW47068   5.237   1.335   6.674
11805SOL    HW147069   5.257   1.293   6.586
11805SOL    HW247070   5.155   1.292   6.713
11806SOL     OW47071   7.257   0.932   2.090
11806SOL    HW147072   7.264   0.862   2.019
11806SOL    HW247073   7.333   0.996   2.083
11807SOL     OW47074   1.412   7.000   0.507
11807SOL    HW147075   1.484   6.972   0.571
11807SOL    HW247076   1.441   6.981   0.414
11808SOL     OW47077   7.359   0.800   3.549
11808SOL    HW147078   7.390   0.797   3.644
11808SOL    HW247079   7.424   0.853   3.495
11809SOL     OW47080   2.177   2.130   5.039
11809SOL    HW147081   2.130   2.067   4.977
11809SOL    HW247082   2.110   2.181   5.093
11810SOL     OW47083   9.336   8.536   5.276
11810SOL    HW147084   9.385   8.473   5.337
11810SOL    HW247085   9.337   8.627   5.316
11811SOL     OW47086   7.967   5.644   4.146
11811SOL    HW147087   8.060   5.673   4.120
11811SOL    HW247088   7.973   5.578   4.221
11812SOL     OW47089   6.873   9.530   7.129
11812SOL    HW147090   6.862   9.511   7.226
11812SOL    HW247091   6.783   9.544   7.087
11813SOL     OW47092   3.883   1.559   1.081
11813SOL    HW147093   3.876   1.566   0.982
11813SOL    HW247094   3.837   1.477   1.113
11814SOL     OW47095   9.970   9.668   0.187
11814SOL    HW147096   9.889   9.633   0.140
11814SOL    HW247097   9.963   9.767   0.197
11815SOL     OW47098   4.174   6.530   4.718
11815SOL    HW147099   4.234   6.567   4.647
11815SOL    HW247100   4.165   6.596   4.792
11816SOL     OW47101   0.256   9.687   7.368
11816SOL    HW147102   0.285   9.781   7.347
11816SOL    HW247103   0.233   9.640   7.282
11817SOL     OW47104   1.711   5.429   2.600
11817SOL    HW147105   1.767   5.512   2.606
11817SOL    HW247106   1.765   5.355   2.561
11818SOL     OW47107   6.657   7.910   3.683
11818SOL    HW147108   6.677   7.870   3.773
11818SOL    HW247109   6.574   7.868   3.646
11819SOL     OW47110   8.513   0.522   7.283
11819SOL    HW147111   8.476   0.542   7.192
11819SOL    HW247112   8.443   0.539   7.352
11820SOL     OW47113   8.225   4.274   7.363
11820SOL    HW147114   8.135   4.318   7.360
11820SOL    HW247115   8.214   4.177   7.388
11821SOL     OW47116   2.233   2.172   1.578
11821SOL    HW147117   2.287   2.127   1.507
11821SOL    HW247118   2.289   2.242   1.623
11822SOL     OW47119   0.588   1.762   1.806
11822SOL    HW147120   0.610   1.665   1.804
11822SOL    HW247121   0.503   1.776   1.857
11823SOL     OW47122   9.920   0.726   2.054
11823SOL    HW147123   9.928   0.819   2.018
11823SOL    HW247124   9.931   0.660   1.979
11824SOL     OW47125   1.154   4.636   6.429
11824SOL    HW147126   1.095   4.581   6.489
11824SOL    HW247127   1.230   4.673   6.482
11825SOL     OW47128   6.656   8.457   4.048
11825SOL    HW147129   6.752   8.429   4.042
11825SOL    HW247130   6.614   8.453   3.958
11826SOL     OW47131   6.260   9.764   7.867
11826SOL    HW147132   6.283   9.860   7.883
11826SOL    HW247133   6.189   9.735   7.931
11827SOL     OW47134   1.822   1.126   1.114
11827SOL    HW147135   1.903   1.091   1.160
11827SOL    HW247136   1.743   1.118   1.175
11828SOL     OW47137   8.719   1.639   3.623
11828SOL    HW147138   8.670   1.719   3.590
11828SOL    HW247139   8.709   1.564   3.557
11829SOL     OW47140   8.569   3.731   7.120
11829SOL    HW147141   8.657   3.711   7.162
11829SOL    HW247142   8.569   3.825   7.086
11830SOL     OW47143   8.642   6.087   5.039
11830SOL    HW147144   8.677   6.057   5.127
11830SOL    HW247145   8.549   6.122   5.050
11831SOL     OW47146   7.065   6.988   6.401
11831SOL    HW147147   7.095   6.893   6.394
11831SOL    HW247148   7.033   7.006   6.494
11832SOL     OW47149   9.289   2.914   3.557
11832SOL    HW147150   9.319   2.874   3.643
11832SOL    HW247151   9.270   3.011   3.571
11833SOL     OW47152   3.965   2.993   5.980
11833SOL    HW147153   3.915   2.921   5.932
11833SOL    HW247154   3.973   3.074   5.921
11834SOL     OW47155   3.828   0.451   7.270
11834SOL    HW147156   3.799   0.378   7.207
11834SOL    HW247157   3.901   0.504   7.227
11835SOL     OW47158   0.184   5.965   4.178
11835SOL    HW147159   0.257   5.898   4.195
11835SOL    HW247160   0.175   5.979   4.079
11836SOL     OW47161   8.919   3.356   2.627
11836SOL    HW147162   8.934   3.409   2.544
11836SOL    HW247163   8.824   3.325   2.631
11837SOL     OW47164   1.632   3.153   1.130
11837SOL    HW147165   1.667   3.246   1.138
11837SOL    HW247166   1.574   3.146   1.049
11838SOL     OW47167   2.853   5.734   6.287
11838SOL    HW147168   2.781   5.693   6.231
11838SOL    HW247169   2.853   5.833   6.274
11839SOL     OW47170   1.184   5.214   6.074
11839SOL    HW147171   1.087   5.225   6.056
11839SOL    HW247172   1.202   5.122   6.108
11840SOL     OW47173   9.074   6.001   3.407
11840SOL    HW147174   9.110   6.042   3.323
11840SOL    HW247175   8.981   6.035   3.423
11841SOL     OW47176   7.354   6.208   5.448
11841SOL    HW147177   7.350   6.229   5.546
11841SOL    HW247178   7.445   6.229   5.413
11842SOL     OW47179   8.155   8.202   3.312
11842SOL    HW147180   8.188   8.114   3.346
11842SOL    HW247181   8.109   8.189   3.224
11843SOL     OW47182   8.808   3.585   3.089
11843SOL    HW147183   8.835   3.539   3.174
11843SOL    HW247184   8.826   3.524   3.012
11844SOL     OW47185   7.219   5.314   0.715
11844SOL    HW147186   7.297   5.257   0.741
11844SOL    HW247187   7.199   5.379   0.789
11845SOL     OW47188   8.159   5.744   6.892
11845SOL    HW147189   8.138   5.800   6.812
11845SOL    HW247190   8.221   5.795   6.952
11846SOL     OW47191   6.593   5.651   7.864
11846SOL    HW147192   6.648   5.691   7.791
11846SOL    HW247193   6.560   5.561   7.836
11847SOL     OW47194   4.297   1.739   7.666
11847SOL    HW147195   4.269   1.662   7.723
11847SOL    HW247196   4.222   1.805   7.661
11848SOL     OW47197   7.015   9.714   3.835
11848SOL    HW147198   7.114   9.720   3.847
11848SOL    HW247199   6.984   9.621   3.856
11849SOL     OW47200   0.091   3.655   1.034
11849SOL    HW147201   0.092   3.560   1.066
11849SOL    HW247202   0.075   3.657   0.935
11850SOL     OW47203   4.189   8.956   2.960
11850SOL    HW147204   4.144   8.974   3.047
11850SOL    HW247205   4.276   8.908   2.977
11851SOL     OW47206   3.672   7.877   3.699
11851SOL    HW147207   3.753   7.882   3.641
11851SOL    HW247208   3.598   7.833   3.649
11852SOL     OW47209   0.239   9.922   1.236
11852SOL    HW147210   0.183   9.883   1.309
11852SOL    HW247211   0.305   9.854   1.204
11853SOL     OW47212   4.944   9.791   4.925
11853SOL    HW147213   5.030   9.753   4.890
11853SOL    HW247214   4.964   9.873   4.979
11854SOL     OW47215   1.292   9.952   7.684
11854SOL    HW147216   1.209   9.902   7.707
11854SOL    HW247217   1.268   0.036   7.635
11855SOL     OW47218   3.787   6.207   0.577
11855SOL    HW147219   3.771   6.111   0.598
11855SOL    HW247220   3.773   6.262   0.660
11856SOL     OW47221   9.453   6.872   0.458
11856SOL    HW147222   9.466   6.961   0.415
11856SOL    HW247223   9.365   6.870   0.504
11857SOL     OW47224   8.094   3.186   4.664
11857SOL    HW147225   8.167   3.181   4.731
11857SOL    HW247226   8.090   3.278   4.625
11858SOL     OW47227   8.818   9.211   0.335
11858SOL    HW147228   8.788   9.173   0.422
11858SOL    HW247229   8.785   9.155   0.260
11859SOL     OW47230   1.567   3.118   2.470
11859SOL    HW147231   1.503   3.041   2.479
11859SOL    HW247232   1.578   3.140   2.373
11860SOL     OW47233   1.401   6.309   3.190
11860SOL    HW147234   1.360   6.276   3.275
11860SOL    HW247235   1.471   6.244   3.159
11861SOL     OW47236   7.414   2.843   0.901
11861SOL    HW147237   7.451   2.928   0.865
11861SOL    HW247238   7.427   2.770   0.834
11862SOL     OW47239   2.835   2.983   1.710
11862SOL    HW147240   2.791   2.985   1.621
11862SOL    HW247241   2.776   2.935   1.775
11863SOL     OW47242   1.505   5.830   4.644
11863SOL    HW147243   1.451   5.888   4.583
11863SOL    HW247244   1.445   5.786   4.710
11864SOL     OW47245   4.683   7.466   0.457
11864SOL    HW147246   4.767   7.514   0.431
11864SOL    HW247247   4.706   7.375   0.492
11865SOL     OW47248   8.222   8.168   0.376
11865SOL    HW147249   8.231   8.070   0.393
11865SOL    HW247250   8.243   8.187   0.280
11866SOL     OW47251   0.080   8.978   1.969
11866SOL    HW147252   0.101   8.918   1.892
11866SOL    HW247253   0.003   8.941   2.020
11867SOL     OW47254   2.006   5.575   0.789
11867SOL    HW147255   2.038   5.626   0.869
11867SOL    HW247256   1.916   5.536   0.807
11868SOL     OW47257   2.117   3.319   0.996
11868SOL    HW147258   2.025   3.358   1.001
11868SOL    HW247259   2.185   3.393   0.991
11869SOL     OW47260   4.090   8.183   4.032
11869SOL    HW147261   4.090   8.178   3.932
11869SOL    HW247262   4.153   8.115   4.068
11870SOL     OW47263   7.633   2.736   2.212
11870SOL    HW147264   7.549   2.687   2.192
11870SOL    HW247265   7.712   2.681   2.185
11871SOL     OW47266   6.743   1.470   4.013
11871SOL    HW147267   6.820   1.407   4.013
11871SOL    HW247268   6.692   1.461   3.927
11872SOL     OW47269   6.840   0.664   0.504
11872SOL    HW147270   6.807   0.759   0.505
11872SOL    HW247271   6.762   0.602   0.508
11873SOL     OW47272   9.721   9.641   2.538
11873SOL    HW147273   9.705   9.597   2.626
11873SOL    HW247274   9.642   9.698   2.514
11874SOL     OW47275   3.404   9.644   0.159
11874SOL    HW147276   3.457   9.571   0.203
11874SOL    HW247277   3.320   9.606   0.122
11875SOL     OW47278   6.701   0.234   1.321
11875SOL    HW147279   6.707   0.311   1.384
11875SOL    HW247280   6.780   0.234   1.260
11876SOL     OW47281   5.494   2.606   0.607
11876SOL    HW147282   5.403   2.632   0.574
11876SOL    HW247283   5.501   2.507   0.610
11877SOL     OW47284   9.954   2.681   0.199
11877SOL    HW147285   0.004   2.594   0.206
11877SOL    HW247286   0.012   2.750   0.156
11878SOL     OW47287   9.647   2.276   0.365
11878SOL    HW147288   9.560   2.247   0.326
11878SOL    HW247289   9.631   2.345   0.435
11879SOL     OW47290   8.743   6.479   5.796
11879SOL    HW147291   8.722   6.384   5.818
11879SOL    HW247292   8.830   6.504   5.838
11880SOL     OW47293   0.592   7.475   5.267
11880SOL    HW147294   0.591   7.476   5.167
11880SOL    HW247295   0.596   7.381   5.300
11881SOL     OW47296   4.374   7.602   4.257
11881SOL    HW147297   4.378   7.506   4.285
11881SOL    HW247298   4.280   7.635   4.268
11882SOL     OW47299   1.957   6.226   4.455
11882SOL    HW147300   1.874   6.194   4.409
11882SOL    HW247301   1.958   6.190   4.549
11883SOL     OW47302   9.343   4.473   2.395
11883SOL    HW147303   9.377   4.392   2.442
11883SOL    HW247304   9.243   4.467   2.386
11884SOL     OW47305   1.218   3.734   1.584
11884SOL    HW147306   1.124   3.727   1.615
11884SOL    HW247307   1.273   3.781   1.654
11885SOL     OW47308   9.603   3.405   3.494
11885SOL    HW147309   9.533   3.464   3.535
11885SOL    HW247310   9.665   3.372   3.565
11886SOL     OW47311   8.315   0.234   7.839
11886SOL    HW147312   8.344   0.194   7.926
11886SOL    HW247313   8.367   0.194   7.764
11887SOL     OW47314   1.482   6.102   0.715
11887SOL    HW147315   1.465   6.058   0.627
11887SOL    HW247316   1.580   6.119   0.726
11888SOL     OW47317   9.589   1.777   2.152
11888SOL    HW147318   9.517   1.770   2.220
11888SOL    HW247319   9.655   1.702   2.165
11889SOL     OW47320   9.674   9.231   1.015
11889SOL    HW147321   9.590   9.177   1.013
11889SOL    HW247322   9.717   9.223   1.105
11890SOL     OW47323   1.308   4.585   1.321
11890SOL    HW147324   1.362   4.570   1.238
11890SOL    HW247325   1.347   4.660   1.374
11891SOL     OW47326   4.127   7.355   0.894
11891SOL    HW147327   4.210   7.399   0.930
11891SOL    HW247328   4.114   7.381   0.798
11892SOL     OW47329   0.360   1.364   0.857
11892SOL    HW147330   0.285   1.431   0.854
11892SOL    HW247331   0.347   1.297   0.783
11893SOL     OW47332   4.433   8.804   1.901
11893SOL    HW147333   4.437   8.775   1.996
11893SOL    HW247334   4.466   8.731   1.842
11894SOL     OW47335   0.779   7.433   1.727
11894SOL    HW147336   0.734   7.450   1.814
11894SOL    HW247337   0.725   7.370   1.673
11895SOL     OW47338   0.775   5.779   7.888
11895SOL    HW147339   0.851   5.802   7.827
11895SOL    HW247340   0.771   5.680   7.900
11896SOL     OW47341   3.180   1.014   0.938
11896SOL    HW147342   3.157   0.918   0.924
11896SOL    HW247343   3.276   1.030   0.914
11897SOL     OW47344   0.211   4.039   6.619
11897SOL    HW147345   0.234   4.069   6.711
11897SOL    HW247346   0.256   4.097   6.552
11898SOL     OW47347   1.569   9.836   2.299
11898SOL    HW147348   1.559   9.831   2.398
11898SOL    HW247349   1.635   9.767   2.268
11899SOL     OW47350   5.680   0.479   1.278
11899SOL    HW147351   5.680   0.481   1.378
11899SOL    HW247352   5.718   0.565   1.244
11900SOL     OW47353   0.048   8.146   3.213
11900SOL    HW147354   0.066   8.241   3.187
11900SOL    HW247355   0.068   8.134   3.310
11901SOL     OW47356   1.511   1.945   4.765
11901SOL    HW147357   1.457   1.903   4.838
11901SOL    HW247358   1.561   2.023   4.802
11902SOL     OW47359   7.131   3.249   3.287
11902SOL    HW147360   7.091   3.335   3.255
11902SOL    HW247361   7.069   3.207   3.354
11903SOL     OW47362   6.029   8.908   2.836
11903SOL    HW147363   6.118   8.953   2.834
11903SOL    HW247364   5.957   8.974   2.813
11904SOL     OW47365   3.999   4.039   5.784
11904SOL    HW147366   4.081   4.074   5.829
11904SOL    HW247367   3.995   4.074   5.691
11905SOL     OW47368   4.525   3.892   5.008
11905SOL    HW147369   4.618   3.860   5.029
11905SOL    HW247370   4.518   3.990   5.025
11906SOL     OW47371   7.406   2.617   4.966
11906SOL    HW147372   7.456   2.702   4.985
11906SOL    HW247373   7.451   2.541   5.013
11907SOL     OW47374   3.984   4.482   6.498
11907SOL    HW147375   4.022   4.575   6.501
11907SOL    HW247376   3.925   4.473   6.417
11908SOL     OW47377   1.012   5.640   4.025
11908SOL    HW147378   0.976   5.690   3.947
11908SOL    HW247379   1.086   5.580   3.996
11909SOL     OW47380   1.893   6.705   7.304
11909SOL    HW147381   1.814   6.758   7.332
11909SOL    HW247382   1.884   6.680   7.207
11910SOL     OW47383   8.386   8.193   5.305
11910SOL    HW147384   8.417   8.277   5.348
11910SOL    HW247385   8.379   8.206   5.206
11911SOL     OW47386   9.444   1.534   2.393
11911SOL    HW147387   9.408   1.626   2.378
11911SOL    HW247388   9.518   1.537   2.460
11912SOL     OW47389   9.424   3.750   7.111
11912SOL    HW147390   9.486   3.705   7.046
11912SOL    HW247391   9.456   3.732   7.205
11913SOL     OW47392   9.219   6.083   3.924
11913SOL    HW147393   9.199   6.055   3.830
11913SOL    HW247394   9.303   6.136   3.926
11914SOL     OW47395   6.948   5.394   2.883
11914SOL    HW147396   6.979   5.472   2.828
11914SOL    HW247397   6.879   5.343   2.832
11915SOL     OW47398   3.970   8.875   6.113
11915SOL    HW147399   4.016   8.948   6.063
11915SOL    HW247400   3.874   8.871   6.086
11916SOL     OW47401   8.248   0.327   7.496
11916SOL    HW147402   8.156   0.343   7.530
11916SOL    HW247403   8.291   0.253   7.548
11917SOL     OW47404   8.986   9.609   3.150
11917SOL    HW147405   9.074   9.629   3.193
11917SOL    HW247406   8.936   9.693   3.136
11918SOL     OW47407   9.322   1.920   2.992
11918SOL    HW147408   9.334   1.992   2.923
11918SOL    HW247409   9.225   1.898   3.002
11919SOL     OW47410   6.962   4.837   2.751
11919SOL    HW147411   6.903   4.824   2.831
11919SOL    HW247412   6.989   4.933   2.745
11920SOL     OW47413   0.295   6.845   5.824
11920SOL    HW147414   0.334   6.812   5.910
11920SOL    HW247415   0.195   6.845   5.831
11921SOL     OW47416   2.871   5.124   3.967
11921SOL    HW147417   2.956   5.175   3.956
11921SOL    HW247418   2.885   5.047   4.030
11922SOL     OW47419   0.137   0.445   3.881
11922SOL    HW147420   0.164   0.349   3.888
11922SOL    HW247421   0.143   0.475   3.785
11923SOL     OW47422   9.693   4.585   2.988
11923SOL    HW147423   9.695   4.669   3.042
11923SOL    HW247424   9.787   4.556   2.969
11924SOL     OW47425   7.804   6.128   2.620
11924SOL    HW147426   7.877   6.064   2.599
11924SOL    HW247427   7.801   6.200   2.550
11925SOL     OW47428   7.368   6.368   7.178
11925SOL    HW147429   7.297   6.399   7.114
11925SOL    HW247430   7.377   6.434   7.253
11926SOL     OW47431   8.142   8.431   2.921
11926SOL    HW147432   8.098   8.514   2.888
11926SOL    HW247433   8.152   8.366   2.846
11927SOL     OW47434   2.221   6.321   7.359
11927SOL    HW147435   2.157   6.389   7.396
11927SOL    HW247436   2.250   6.350   7.268
11928SOL     OW47437   2.747   7.136   1.564
11928SOL    HW147438   2.651   7.127   1.587
11928SOL    HW247439   2.803   7.124   1.646
11929SOL     OW47440   7.827   8.372   3.493
11929SOL    HW147441   7.838   8.280   3.454
11929SOL    HW247442   7.884   8.380   3.574
11930SOL     OW47443   2.391   2.597   3.433
11930SOL    HW147444   2.352   2.685   3.406
11930SOL    HW247445   2.479   2.613   3.479
11931SOL     OW47446   6.574   0.777   7.666
11931SOL    HW147447   6.517   0.772   7.584
11931SOL    HW247448   6.574   0.688   7.712
11932SOL     OW47449   1.750   5.012   6.578
11932SOL    HW147450   1.679   4.978   6.640
11932SOL    HW247451   1.839   4.978   6.608
11933SOL     OW47452   9.607   3.296   4.425
11933SOL    HW147453   9.599   3.200   4.400
11933SOL    HW247454   9.630   3.304   4.522
11934SOL     OW47455   9.793   2.257   5.116
11934SOL    HW147456   9.741   2.260   5.031
11934SOL    HW247457   9.786   2.166   5.156
11935SOL     OW47458   6.831   1.955   2.384
11935SOL    HW147459   6.866   2.044   2.357
11935SOL    HW247460   6.740   1.965   2.423
11936SOL     OW47461   7.981   9.089   2.607
11936SOL    HW147462   7.905   9.149   2.579
11936SOL    HW247463   7.993   9.017   2.539
11937SOL     OW47464   2.529   2.329   5.253
11937SOL    HW147465   2.509   2.339   5.350
11937SOL    HW247466   2.489   2.244   5.218
11938SOL     OW47467   3.670   6.409   7.076
11938SOL    HW147468   3.645   6.350   6.999
11938SOL    HW247469   3.592   6.464   7.103
11939SOL     OW47470   8.859   3.146   7.906
11939SOL    HW147471   8.880   3.066   7.850
11939SOL    HW247472   8.779   3.126   7.963
11940SOL     OW47473   3.301   9.381   7.429
11940SOL    HW147474   3.364   9.419   7.361
11940SOL    HW247475   3.263   9.455   7.484
11941SOL     OW47476   2.396   9.423   3.012
11941SOL    HW147477   2.437   9.495   3.069
11941SOL    HW247478   2.392   9.338   3.065
11942SOL     OW47479   8.866   4.852   3.271
11942SOL    HW147480   8.899   4.782   3.208
11942SOL    HW247481   8.885   4.943   3.233
11943SOL     OW47482   3.539   9.687   7.836
11943SOL    HW147483   3.487   9.734   7.907
11943SOL    HW247484   3.637   9.693   7.856
11944SOL     OW47485   7.912   4.441   5.563
11944SOL    HW147486   7.826   4.393   5.547
11944SOL    HW247487   7.976   4.420   5.489
11945SOL     OW47488   3.881   7.310   2.640
11945SOL    HW147489   3.932   7.224   2.641
11945SOL    HW247490   3.827   7.316   2.555
11946SOL     OW47491   2.201   6.535   3.724
11946SOL    HW147492   2.216   6.469   3.651
11946SOL    HW247493   2.263   6.515   3.800
11947SOL     OW47494   6.283   0.895   3.605
11947SOL    HW147495   6.280   0.961   3.680
11947SOL    HW247496   6.190   0.860   3.588
11948SOL     OW47497   5.097   1.794   0.534
11948SOL    HW147498   5.146   1.876   0.562
11948SOL    HW247499   5.138   1.714   0.578
11949SOL     OW47500   0.251   7.399   4.453
11949SOL    HW147501   0.337   7.368   4.491
11949SOL    HW247502   0.212   7.471   4.510
11950SOL     OW47503   4.255   3.333   4.306
11950SOL    HW147504   4.277   3.238   4.285
11950SOL    HW247505   4.199   3.371   4.232
11951SOL     OW47506   2.381   8.195   4.278
11951SOL    HW147507   2.313   8.122   4.275
11951SOL    HW247508   2.455   8.174   4.215
11952SOL     OW47509   9.053   3.001   0.496
11952SOL    HW147510   9.122   2.932   0.518
11952SOL    HW247511   9.061   3.027   0.400
11953SOL     OW47512   5.628   1.430   3.697
11953SOL    HW147513   5.667   1.409   3.608
11953SOL    HW247514   5.528   1.424   3.692
11954SOL     OW47515   1.887   1.455   2.678
11954SOL    HW147516   1.931   1.430   2.592
11954SOL    HW247517   1.954   1.451   2.752
11955SOL     OW47518   0.586   2.945   0.350
11955SOL    HW147519   0.573   3.002   0.270
11955SOL    HW247520   0.505   2.887   0.363
11956SOL     OW47521   4.897   7.879   0.840
11956SOL    HW147522   4.926   7.784   0.823
11956SOL    HW247523   4.824   7.903   0.777
11957SOL     OW47524   3.506   6.211   5.856
11957SOL    HW147525   3.566   6.134   5.877
11957SOL    HW247526   3.454   6.236   5.937
11958SOL     OW47527   6.697   3.721   2.837
11958SOL    HW147528   6.732   3.633   2.804
11958SOL    HW247529   6.773   3.777   2.871
11959SOL     OW47530   4.545   5.585   4.120
11959SOL    HW147531   4.628   5.535   4.099
11959SOL    HW247532   4.563   5.650   4.195
11960SOL     OW47533   0.560   1.499   1.006
11960SOL    HW147534   0.525   1.593   1.011
11960SOL    HW247535   0.496   1.444   0.952
11961SOL     OW47536   6.209   1.553   5.289
11961SOL    HW147537   6.244   1.487   5.223
11961SOL    HW247538   6.272   1.630   5.295
11962SOL     OW47539   4.463   8.984   5.194
11962SOL    HW147540   4.460   9.077   5.231
11962SOL    HW247541   4.494   8.987   5.099
11963SOL     OW47542   4.292   8.918   4.017
11963SOL    HW147543   4.266   8.826   4.046
11963SOL    HW247544   4.278   8.927   3.918
11964SOL     OW47545   4.305   5.216   3.107
11964SOL    HW147546   4.373   5.143   3.120
11964SOL    HW247547   4.287   5.260   3.195
11965SOL     OW47548   0.395   5.662   3.759
11965SOL    HW147549   0.411   5.583   3.700
11965SOL    HW247550   0.393   5.632   3.855
11966SOL     OW47551   9.506   2.629   5.362
11966SOL    HW147552   9.521   2.539   5.322
11966SOL    HW247553   9.564   2.696   5.316
11967SOL     OW47554   8.666   5.609   4.662
11967SOL    HW147555   8.654   5.530   4.723
11967SOL    HW247556   8.576   5.642   4.633
11968SOL     OW47557   2.920   8.680   7.569
11968SOL    HW147558   2.992   8.745   7.593
11968SOL    HW247559   2.953   8.587   7.587
11969SOL     OW47560   3.898   2.727   7.405
11969SOL    HW147561   3.918   2.632   7.380
11969SOL    HW247562   3.955   2.754   7.483
11970SOL     OW47563   2.061   5.970   2.640
11970SOL    HW147564   2.023   6.062   2.650
11970SOL    HW247565   2.160   5.976   2.625
11971SOL     OW47566   1.644   6.723   1.675
11971SOL    HW147567   1.579   6.647   1.675
11971SOL    HW247568   1.666   6.748   1.770
11972SOL     OW47569   6.724   3.839   0.991
11972SOL    HW147570   6.667   3.819   0.911
11972SOL    HW247571   6.726   3.760   1.052
11973SOL     OW47572   4.656   9.299   5.573
11973SOL    HW147573   4.587   9.232   5.601
11973SOL    HW247574   4.705   9.331   5.653
11974SOL     OW47575   3.558   8.421   1.075
11974SOL    HW147576   3.485   8.355   1.058
11974SOL    HW247577   3.645   8.384   1.045
11975SOL     OW47578   0.268   8.248   7.604
11975SOL    HW147579   0.277   8.282   7.511
11975SOL    HW247580   0.335   8.176   7.620
11976SOL     OW47581   6.654   8.186   3.736
11976SOL    HW147582   6.739   8.218   3.780
11976SOL    HW247583   6.659   8.087   3.722
11977SOL     OW47584   9.975   5.419   7.065
11977SOL    HW147585   9.918   5.470   7.001
11977SOL    HW247586   9.945   5.438   7.159
11978SOL     OW47587   9.911   8.570   0.933
11978SOL    HW147588   9.879   8.658   0.898
11978SOL    HW247589   9.886   8.561   1.029
11979SOL     OW47590   5.820   7.561   5.500
11979SOL    HW147591   5.751   7.598   5.438
11979SOL    HW247592   5.775   7.523   5.581
11980SOL     OW47593   6.656   7.348   5.623
11980SOL    HW147594   6.716   7.397   5.560
11980SOL    HW247595   6.707   7.325   5.706
11981SOL     OW47596   2.528   5.835   7.508
11981SOL    HW147597   2.530   5.917   7.565
11981SOL    HW247598   2.550   5.755   7.564
11982SOL     OW47599   1.363   6.182   6.719
11982SOL    HW147600   1.447   6.180   6.665
11982SOL    HW247601   1.301   6.251   6.682
11983SOL     OW47602   4.219   7.881   1.605
11983SOL    HW147603   4.165   7.939   1.544
11983SOL    HW247604   4.203   7.908   1.700
11984SOL     OW47605   1.094   4.601   0.134
11984SOL    HW147606   1.152   4.599   0.215
11984SOL    HW247607   1.023   4.670   0.146
11985SOL     OW47608   8.112   5.370   2.379
11985SOL    HW147609   8.082   5.463   2.357
11985SOL    HW247610   8.083   5.346   2.472
11986SOL     OW47611   8.611   0.263   7.328
11986SOL    HW147612   8.657   0.265   7.416
11986SOL    HW247613   8.581   0.356   7.303
11987SOL     OW47614   9.110   5.494   2.942
11987SOL    HW147615   9.057   5.471   3.024
11987SOL    HW247616   9.125   5.593   2.938
11988SOL     OW47617   2.203   8.827   4.079
11988SOL    HW147618   2.202   8.818   4.179
11988SOL    HW247619   2.294   8.807   4.045
11989SOL     OW47620   1.768   1.885   5.431
11989SOL    HW147621   1.709   1.945   5.484
11989SOL    HW247622   1.838   1.939   5.385
11990SOL     OW47623   7.774   6.334   5.576
11990SOL    HW147624   7.853   6.387   5.547
11990SOL    HW247625   7.778   6.319   5.675
11991SOL     OW47626   0.728   3.978   0.699
11991SOL    HW147627   0.819   4.017   0.694
11991SOL    HW247628   0.719   3.904   0.632
11992SOL     OW47629   2.870   1.000   1.803
11992SOL    HW147630   2.961   1.039   1.812
11992SOL    HW247631   2.860   0.957   1.714
11993SOL     OW47632   8.723   4.144   3.328
11993SOL    HW147633   8.743   4.241   3.343
11993SOL    HW247634   8.799   4.089   3.364
11994SOL     OW47635   0.067   9.158   7.725
11994SOL    HW147636   0.102   9.227   7.662
11994SOL    HW247637   9.972   9.178   7.748
11995SOL     OW47638   1.381   4.252   4.581
11995SOL    HW147639   1.409   4.158   4.560
11995SOL    HW247640   1.334   4.252   4.670
11996SOL     OW47641   9.992   2.390   2.242
11996SOL    HW147642   9.937   2.450   2.301
11996SOL    HW247643   9.946   2.378   2.155
11997SOL     OW47644   5.945   5.227   2.123
11997SOL    HW147645   5.988   5.138   2.138
11997SOL    HW247646   5.988   5.295   2.183
11998SOL     OW47647   2.563   2.443   4.216
11998SOL    HW147648   2.650   2.426   4.169
11998SOL    HW247649   2.578   2.507   4.291
11999SOL     OW47650   5.705   9.181   1.562
11999SOL    HW147651   5.720   9.229   1.648
11999SOL    HW247652   5.606   9.170   1.546
12000SOL     OW47653   8.241   3.961   0.626
12000SOL    HW147654   8.267   4.022   0.701
12000SOL    HW247655   8.297   3.878   0.629
12001SOL     OW47656   1.677   9.485   5.872
12001SOL    HW147657   1.676   9.412   5.940
12001SOL    HW247658   1.738   9.558   5.903
12002SOL     OW47659   5.202   8.419   3.905
12002SOL    HW147660   5.274   8.488   3.894
12002SOL    HW247661   5.180   8.408   4.002
12003SOL     OW47662   5.440   1.969   4.937
12003SOL    HW147663   5.411   2.016   4.854
12003SOL    HW247664   5.369   1.903   4.964
12004SOL     OW47665   9.968   4.298   4.027
12004SOL    HW147666   9.973   4.226   3.957
12004SOL    HW247667   9.981   4.387   3.984
12005SOL     OW47668   2.186   0.325   0.304
12005SOL    HW147669   2.284   0.317   0.285
12005SOL    HW247670   2.158   0.255   0.369
12006SOL     OW47671   9.931   0.140   0.643
12006SOL    HW147672   9.915   0.047   0.676
12006SOL    HW247673   9.890   0.205   0.707
12007SOL     OW47674   9.202   7.089   1.722
12007SOL    HW147675   9.204   7.106   1.624
12007SOL    HW247676   9.251   7.162   1.770
12008SOL     OW47677   5.112   4.101   1.399
12008SOL    HW147678   5.045   4.143   1.338
12008SOL    HW247679   5.192   4.161   1.408
12009SOL     OW47680   2.723   9.426   3.007
12009SOL    HW147681   2.674   9.342   2.983
12009SOL    HW247682   2.661   9.488   3.055
12010SOL     OW47683   0.119   0.687   5.003
12010SOL    HW147684   0.139   0.784   4.994
12010SOL    HW247685   0.024   0.675   5.033
12011SOL     OW47686   2.877   2.110   4.271
12011SOL    HW147687   2.788   2.069   4.291
12011SOL    HW247688   2.896   2.182   4.338
12012SOL     OW47689   1.786   3.378   1.433
12012SOL    HW147690   1.834   3.463   1.454
12012SOL    HW247691   1.853   3.303   1.425
12013SOL     OW47692   3.090   4.146   2.853
12013SOL    HW147693   3.161   4.077   2.870
12013SOL    HW247694   3.001   4.102   2.851
12014SOL     OW47695   5.936   0.197   2.934
12014SOL    HW147696   5.882   0.126   2.889
12014SOL    HW247697   5.907   0.205   3.029
12015SOL     OW47698   6.962   0.853   5.866
12015SOL    HW147699   6.965   0.855   5.766
12015SOL    HW247700   6.874   0.888   5.897
12016SOL     OW47701   0.922   7.947   5.591
12016SOL    HW147702   1.020   7.936   5.573
12016SOL    HW247703   0.910   7.987   5.682
12017SOL     OW47704   2.876   6.399   2.810
12017SOL    HW147705   2.951   6.445   2.763
12017SOL    HW247706   2.902   6.378   2.904
12018SOL     OW47707   2.687   6.097   5.008
12018SOL    HW147708   2.667   6.064   5.101
12018SOL    HW247709   2.602   6.107   4.957
12019SOL     OW47710   7.817   8.431   6.391
12019SOL    HW147711   7.721   8.434   6.420
12019SOL    HW247712   7.832   8.497   6.318
12020SOL     OW47713   4.175   5.643   3.024
12020SOL    HW147714   4.136   5.584   3.094
12020SOL    HW247715   4.151   5.738   3.045
12021SOL     OW47716   4.996   2.313   0.128
12021SOL    HW147717   5.093   2.292   0.143
12021SOL    HW247718   4.944   2.287   0.210
12022SOL     OW47719   3.365   1.877   2.737
12022SOL    HW147720   3.308   1.940   2.683
12022SOL    HW247721   3.424   1.930   2.798
12023SOL     OW47722   4.214   7.422   3.140
12023SOL    HW147723   4.178   7.514   3.124
12023SOL    HW247724   4.145   7.367   3.187
12024SOL     OW47725   0.264   6.701   6.903
12024SOL    HW147726   0.259   6.734   6.809
12024SOL    HW247727   0.277   6.778   6.965
12025SOL     OW47728   0.508   7.754   4.897
12025SOL    HW147729   0.498   7.829   4.962
12025SOL    HW247730   0.580   7.776   4.832
12026SOL     OW47731   8.923   9.018   4.494
12026SOL    HW147732   8.999   8.982   4.441
12026SOL    HW247733   8.841   8.964   4.475
12027SOL     OW47734   8.115   5.641   2.907
12027SOL    HW147735   8.187   5.675   2.967
12027SOL    HW247736   8.026   5.660   2.948
12028SOL     OW47737   0.317   4.135   4.063
12028SOL    HW147738   0.288   4.183   3.980
12028SOL    HW247739   0.297   4.037   4.053
12029SOL     OW47740   8.020   6.996   6.075
12029SOL    HW147741   7.937   6.994   6.020
12029SOL    HW247742   8.029   7.086   6.119
12030SOL     OW47743   7.616   2.015   3.094
12030SOL    HW147744   7.563   1.953   3.152
12030SOL    HW247745   7.603   1.991   2.998
12031SOL     OW47746   9.034   1.714   5.467
12031SOL    HW147747   8.983   1.643   5.419
12031SOL    HW247748   8.974   1.792   5.486
12032SOL     OW47749   5.686   5.280   2.183
12032SOL    HW147750   5.782   5.259   2.162
12032SOL    HW247751   5.642   5.200   2.221
12033SOL     OW47752   6.797   6.228   1.338
12033SOL    HW147753   6.709   6.222   1.291
12033SOL    HW247754   6.789   6.288   1.418
12034SOL     OW47755   3.937   8.651   5.914
12034SOL    HW147756   3.964   8.703   5.995
12034SOL    HW247757   4.018   8.605   5.876
12035SOL     OW47758   7.135   5.889   0.357
12035SOL    HW147759   7.136   5.933   0.267
12035SOL    HW247760   7.177   5.799   0.350
12036SOL     OW47761   9.950   6.934   7.081
12036SOL    HW147762   9.947   6.927   6.981
12036SOL    HW247763   9.909   6.852   7.121
12037SOL     OW47764   8.609   7.170   6.958
12037SOL    HW147765   8.693   7.150   6.908
12037SOL    HW247766   8.631   7.201   7.050
12038SOL     OW47767   8.015   5.456   4.335
12038SOL    HW147768   8.086   5.468   4.404
12038SOL    HW247769   7.995   5.359   4.323
12039SOL     OW47770   9.618   7.012   3.774
12039SOL    HW147771   9.558   7.025   3.854
12039SOL    HW247772   9.711   7.039   3.798
12040SOL     OW47773   8.791   7.833   2.539
12040SOL    HW147774   8.768   7.912   2.482
12040SOL    HW247775   8.841   7.864   2.620
12041SOL     OW47776   8.670   7.320   0.834
12041SOL    HW147777   8.770   7.317   0.833
12041SOL    HW247778   8.641   7.405   0.877
12042SOL     OW47779   7.562   1.902   2.850
12042SOL    HW147780   7.466   1.872   2.853
12042SOL    HW247781   7.621   1.822   2.838
12043SOL     OW47782   3.375   1.372   7.919
12043SOL    HW147783   3.428   1.419   7.989
12043SOL    HW247784   3.427   1.369   7.833
12044SOL     OW47785   0.667   1.304   6.591
12044SOL    HW147786   0.671   1.292   6.491
12044SOL    HW247787   0.578   1.342   6.616
12045SOL     OW47788   4.997   2.304   4.816
12045SOL    HW147789   4.927   2.274   4.881
12045SOL    HW247790   5.087   2.290   4.857
12046SOL     OW47791   1.826   2.229   0.546
12046SOL    HW147792   1.855   2.192   0.634
12046SOL    HW247793   1.832   2.157   0.477
12047SOL     OW47794   2.843   2.900   2.453
12047SOL    HW147795   2.793   2.946   2.527
12047SOL    HW247796   2.938   2.932   2.453
12048SOL     OW47797   1.594   8.170   2.397
12048SOL    HW147798   1.510   8.201   2.442
12048SOL    HW247799   1.571   8.115   2.317
12049SOL     OW47800   1.532   9.956   6.437
12049SOL    HW147801   1.579   9.892   6.499
12049SOL    HW247802   1.582   9.961   6.351
12050SOL     OW47803   9.997   9.605   1.060
12050SOL    HW147804   9.911   9.648   1.032
12050SOL    HW247805   9.985   9.564   1.150
12051SOL     OW47806   4.625   9.498   4.866
12051SOL    HW147807   4.614   9.502   4.965
12051SOL    HW247808   4.538   9.473   4.824
12052SOL     OW47809   0.531   1.318   4.869
12052SOL    HW147810   0.522   1.257   4.948
12052SOL    HW247811   0.473   1.398   4.881
12053SOL     OW47812   9.379   5.174   3.884
12053SOL    HW147813   9.384   5.273   3.893
12053SOL    HW247814   9.451   5.131   3.938
12054SOL     OW47815   2.573   4.446   5.869
12054SOL    HW147816   2.496   4.441   5.806
12054SOL    HW247817   2.648   4.389   5.833
12055SOL     OW47818   0.717   3.662   2.190
12055SOL    HW147819   0.796   3.705   2.233
12055SOL    HW247820   0.716   3.564   2.212
12056SOL     OW47821   2.770   4.179   0.346
12056SOL    HW147822   2.720   4.108   0.295
12056SOL    HW247823   2.705   4.233   0.400
12057SOL     OW47824   8.215   8.399   3.824
12057SOL    HW147825   8.252   8.456   3.751
12057SOL    HW247826   8.245   8.304   3.812
12058SOL     OW47827   9.705   3.585   4.649
12058SOL    HW147828   9.607   3.603   4.655
12058SOL    HW247829   9.744   3.635   4.571
12059SOL     OW47830   4.597   2.305   6.746
12059SOL    HW147831   4.576   2.280   6.651
12059SOL    HW247832   4.577   2.401   6.760
12060SOL     OW47833   0.577   0.021   3.903
12060SOL    HW147834   0.671   0.015   3.939
12060SOL    HW247835   0.528   0.093   3.952
12061SOL     OW47836   1.406   8.771   2.122
12061SOL    HW147837   1.325   8.814   2.160
12061SOL    HW247838   1.478   8.840   2.111
12062SOL     OW47839   7.773   7.743   7.153
12062SOL    HW147840   7.862   7.789   7.155
12062SOL    HW247841   7.743   7.726   7.247
12063SOL     OW47842   3.717   0.094   6.036
12063SOL    HW147843   3.726   9.998   6.063
12063SOL    HW247844   3.725   0.102   5.937
12064SOL     OW47845   1.459   2.524   6.112
12064SOL    HW147846   1.505   2.540   6.025
12064SOL    HW247847   1.527   2.525   6.186
12065SOL     OW47848   5.484   5.633   0.274
12065SOL    HW147849   5.421   5.655   0.200
12065SOL    HW247850   5.544   5.711   0.291
12066SOL     OW47851   1.639   9.214   0.735
12066SOL    HW147852   1.702   9.232   0.659
12066SOL    HW247853   1.692   9.195   0.818
12067SOL     OW47854   7.906   3.691   5.381
12067SOL    HW147855   7.888   3.593   5.377
12067SOL    HW247856   7.984   3.712   5.323
12068SOL     OW47857   1.154   3.534   6.603
12068SOL    HW147858   1.201   3.622   6.602
12068SOL    HW247859   1.173   3.487   6.689
12069SOL     OW47860   1.272   2.417   0.926
12069SOL    HW147861   1.309   2.405   1.018
12069SOL    HW247862   1.235   2.510   0.916
12070SOL     OW47863   4.064   8.533   3.392
12070SOL    HW147864   4.046   8.436   3.376
12070SOL    HW247865   4.153   8.543   3.435
12071SOL     OW47866   5.009   8.175   6.736
12071SOL    HW147867   4.937   8.241   6.758
12071SOL    HW247868   5.095   8.224   6.722
12072SOL     OW47869   0.217   5.146   3.224
12072SOL    HW147870   0.291   5.213   3.217
12072SOL    HW247871   0.236   5.082   3.298
12073SOL     OW47872   9.608   8.230   6.669
12073SOL    HW147873   9.598   8.286   6.751
12073SOL    HW247874   9.697   8.183   6.671
12074SOL     OW47875   8.866   6.986   0.100
12074SOL    HW147876   8.962   6.956   0.108
12074SOL    HW247877   8.808   6.905   0.090
12075SOL     OW47878   6.115   8.240   2.556
12075SOL    HW147879   6.132   8.207   2.648
12075SOL    HW247880   6.020   8.270   2.548
12076SOL     OW47881   4.887   1.215   7.119
12076SOL    HW147882   4.974   1.213   7.167
12076SOL    HW247883   4.813   1.228   7.185
12077SOL     OW47884   1.347   5.075   1.164
12077SOL    HW147885   1.364   5.173   1.172
12077SOL    HW247886   1.299   5.056   1.079
12078SOL     OW47887   1.475   5.887   3.997
12078SOL    HW147888   1.459   5.793   4.030
12078SOL    HW247889   1.390   5.938   4.002
12079SOL     OW47890   4.050   7.032   4.864
12079SOL    HW147891   4.085   6.939   4.851
12079SOL    HW247892   4.016   7.067   4.777
12080SOL     OW47893   0.318   8.416   7.106
12080SOL    HW147894   0.293   8.370   7.021
12080SOL    HW247895   0.389   8.485   7.087
12081SOL     OW47896   0.514   7.570   2.713
12081SOL    HW147897   0.573   7.650   2.711
12081SOL    HW247898   0.568   7.488   2.696
12082SOL     OW47899   7.798   0.828   3.112
12082SOL    HW147900   7.758   0.890   3.045
12082SOL    HW247901   7.727   0.767   3.148
12083SOL     OW47902   0.654   9.981   5.395
12083SOL    HW147903   0.589   9.993   5.320
12083SOL    HW247904   0.687   0.071   5.424
12084SOL     OW47905   1.189   1.935   5.494
12084SOL    HW147906   1.092   1.915   5.510
12084SOL    HW247907   1.237   1.851   5.468
12085SOL     OW47908   2.472   2.042   7.362
12085SOL    HW147909   2.492   2.079   7.272
12085SOL    HW247910   2.385   2.079   7.395
12086SOL     OW47911   7.921   0.782   4.538
12086SOL    HW147912   7.826   0.754   4.547
12086SOL    HW247913   7.927   0.882   4.541
12087SOL     OW47914   1.157   0.010   6.572
12087SOL    HW147915   1.170   9.929   6.516
12087SOL    HW247916   1.114   0.082   6.517
12088SOL     OW47917   9.232   7.171   3.433
12088SOL    HW147918   9.214   7.247   3.371
12088SOL    HW247919   9.232   7.204   3.527
12089SOL     OW47920   2.055   0.164   0.116
12089SOL    HW147921   2.094   0.233   0.177
12089SOL    HW247922   2.109   0.080   0.124
12090SOL     OW47923   6.752   8.989   7.383
12090SOL    HW147924   6.734   9.081   7.349
12090SOL    HW247925   6.698   8.923   7.331
12091SOL     OW47926   8.794   0.779   4.750
12091SOL    HW147927   8.707   0.731   4.735
12091SOL    HW247928   8.776   0.870   4.789
12092SOL     OW47929   6.236   0.018   6.416
12092SOL    HW147930   6.171   0.080   6.459
12092SOL    HW247931   6.276   0.062   6.336
12093SOL     OW47932   1.601   1.145   5.403
12093SOL    HW147933   1.523   1.103   5.356
12093SOL    HW247934   1.635   1.082   5.473
12094SOL     OW47935   0.200   5.029   2.272
12094SOL    HW147936   0.250   5.100   2.322
12094SOL    HW247937   0.139   5.072   2.206
12095SOL     OW47938   1.159   3.293   7.321
12095SOL    HW147939   1.154   3.204   7.276
12095SOL    HW247940   1.084   3.351   7.289
12096SOL     OW47941   5.155   1.796   5.285
12096SOL    HW147942   5.185   1.814   5.191
12096SOL    HW247943   5.150   1.882   5.336
12097SOL     OW47944   1.474   6.814   2.114
12097SOL    HW147945   1.538   6.783   2.184
12097SOL    HW247946   1.407   6.742   2.095
12098SOL     OW47947   9.782   3.359   6.011
12098SOL    HW147948   9.818   3.268   5.994
12098SOL    HW247949   9.721   3.356   6.091
12099SOL     OW47950   7.109   1.136   4.475
12099SOL    HW147951   7.178   1.064   4.469
12099SOL    HW247952   7.067   1.149   4.385
12100SOL     OW47953   9.077   7.189   1.152
12100SOL    HW147954   9.023   7.271   1.133
12100SOL    HW247955   9.118   7.197   1.243
12101SOL     OW47956   0.009   4.880   4.597
12101SOL    HW147957   9.958   4.853   4.679
12101SOL    HW247958   9.947   4.888   4.520
12102SOL     OW47959   3.218   6.509   6.300
12102SOL    HW147960   3.302   6.560   6.282
12102SOL    HW247961   3.236   6.411   6.293
12103SOL     OW47962   4.016   9.845   2.203
12103SOL    HW147963   4.055   9.900   2.277
12103SOL    HW247964   3.954   9.777   2.241
12104SOL     OW47965   8.310   1.608   6.197
12104SOL    HW147966   8.314   1.629   6.100
12104SOL    HW247967   8.383   1.658   6.244
12105SOL     OW47968   7.392   8.518   2.473
12105SOL    HW147969   7.357   8.612   2.469
12105SOL    HW247970   7.479   8.513   2.423
12106SOL     OW47971   1.711   5.642   5.062
12106SOL    HW147972   1.723   5.617   5.158
12106SOL    HW247973   1.630   5.595   5.026
12107SOL     OW47974   1.633   8.020   4.142
12107SOL    HW147975   1.651   7.976   4.053
12107SOL    HW247976   1.535   8.017   4.161
12108SOL     OW47977   7.886   4.092   5.329
12108SOL    HW147978   7.983   4.096   5.306
12108SOL    HW247979   7.835   4.058   5.249
12109SOL     OW47980   1.562   7.330   5.828
12109SOL    HW147981   1.636   7.265   5.842
12109SOL    HW247982   1.494   7.319   5.900
12110SOL     OW47983   3.732   8.589   2.728
12110SOL    HW147984   3.793   8.515   2.701
12110SOL    HW247985   3.754   8.672   2.677
12111SOL     OW47986   9.951   8.999   1.110
12111SOL    HW147987   0.034   8.976   1.060
12111SOL    HW247988   9.873   8.954   1.067
12112SOL     OW47989   0.558   3.076   3.801
12112SOL    HW147990   0.651   3.095   3.769
12112SOL    HW247991   0.561   3.003   3.870
12113SOL     OW47992   8.246   5.170   1.987
12113SOL    HW147993   8.330   5.121   1.963
12113SOL    HW247994   8.225   5.156   2.084
12114SOL     OW47995   9.143   5.461   0.259
12114SOL    HW147996   9.232   5.415   0.249
12114SOL    HW247997   9.158   5.558   0.276
12115SOL     OW47998   2.398   7.588   2.114
12115SOL    HW147999   2.451   7.656   2.165
12115SOL    HW248000   2.443   7.499   2.120
12116SOL     OW48001   5.385   9.682   4.070
12116SOL    HW148002   5.371   9.590   4.106
12116SOL    HW248003   5.334   9.693   3.985
12117SOL     OW48004   7.953   9.916   7.321
12117SOL    HW148005   7.860   9.893   7.351
12117SOL    HW248006   7.976   9.862   7.240
12118SOL     OW48007   3.270   3.000   0.299
12118SOL    HW148008   3.257   2.904   0.322
12118SOL    HW248009   3.248   3.058   0.378
12119SOL     OW48010   0.411   6.787   1.712
12119SOL    HW148011   0.319   6.790   1.674
12119SOL    HW248012   0.460   6.707   1.676
12120SOL     OW48013   3.340   2.451   1.085
12120SOL    HW148014   3.395   2.398   1.020
12120SOL    HW248015   3.245   2.420   1.082
12121SOL     OW48016   8.056   2.130   1.839
12121SOL    HW148017   7.979   2.126   1.776
12121SOL    HW248018   8.033   2.080   1.923
12122SOL     OW48019   8.964   9.194   2.887
12122SOL    HW148020   9.037   9.207   2.955
12122SOL    HW248021   8.886   9.250   2.912
12123SOL     OW48022   6.500   9.080   7.810
12123SOL    HW148023   6.544   8.992   7.800
12123SOL    HW248024   6.502   9.108   7.907
12124SOL     OW48025   5.197   0.428   6.952
12124SOL    HW148026   5.190   0.484   7.034
12124SOL    HW248027   5.117   0.443   6.894
12125SOL     OW48028   9.353   8.959   0.723
12125SOL    HW148029   9.396   9.045   0.695
12125SOL    HW248030   9.281   8.978   0.789
12126SOL     OW48031   1.507   6.054   1.765
12126SOL    HW148032   1.575   6.020   1.701
12126SOL    HW248033   1.552   6.093   1.845
12127SOL     OW48034   7.580   7.888   7.884
12127SOL    HW148035   7.634   7.966   7.915
12127SOL    HW248036   7.489   7.920   7.858
12128SOL     OW48037   7.956   7.359   6.642
12128SOL    HW148038   8.031   7.390   6.699
12128SOL    HW248039   7.929   7.432   6.579
12129SOL     OW48040   3.745   4.307   7.324
12129SOL    HW148041   3.721   4.402   7.345
12129SOL    HW248042   3.767   4.259   7.409
12130SOL     OW48043   3.461   0.627   3.754
12130SOL    HW148044   3.519   0.625   3.673
12130SOL    HW248045   3.430   0.535   3.776
12131SOL     OW48046   0.140   7.088   4.815
12131SOL    HW148047   0.235   7.114   4.833
12131SOL    HW248048   0.134   7.047   4.724
12132SOL     OW48049   5.833   2.670   1.645
12132SOL    HW148050   5.902   2.628   1.703
12132SOL    HW248051   5.872   2.749   1.598
12133SOL     OW48052   3.138   7.349   0.110
12133SOL    HW148053   3.225   7.389   0.139
12133SOL    HW248054   3.063   7.388   0.164
12134SOL     OW48055   8.164   7.233   7.391
12134SOL    HW148056   8.129   7.141   7.373
12134SOL    HW248057   8.144   7.258   7.486
12135SOL     OW48058   3.832   7.381   5.783
12135SOL    HW148059   3.895   7.433   5.840
12135SOL    HW248060   3.836   7.284   5.809
12136SOL     OW48061   2.074   2.846   6.914
12136SOL    HW148062   2.147   2.888   6.967
12136SOL    HW248063   2.061   2.751   6.943
12137SOL     OW48064   9.972   8.447   6.668
12137SOL    HW148065   0.063   8.408   6.656
12137SOL    HW248066   9.918   8.433   6.586
12138SOL     OW48067   2.549   0.234   7.844
12138SOL    HW148068   2.480   0.200   7.907
12138SOL    HW248069   2.587   0.158   7.791
12139SOL     OW48070   1.628   2.318   1.167
12139SOL    HW148071   1.679   2.280   1.244
12139SOL    HW248072   1.650   2.266   1.084
12140SOL     OW48073   2.628   8.501   1.174
12140SOL    HW148074   2.680   8.521   1.258
12140SOL    HW248075   2.691   8.470   1.103
12141SOL     OW48076   3.714   7.302   1.565
12141SOL    HW148077   3.801   7.262   1.536
12141SOL    HW248078   3.731   7.383   1.620
12142SOL     OW48079   0.828   3.151   1.534
12142SOL    HW148080   0.829   3.072   1.474
12142SOL    HW248081   0.905   3.146   1.598
12143SOL     OW48082   5.958   2.834   1.255
12143SOL    HW148083   6.006   2.748   1.242
12143SOL    HW248084   5.942   2.849   1.353
12144SOL     OW48085   6.668   9.976   2.295
12144SOL    HW148086   6.597   9.972   2.225
12144SOL    HW248087   6.735   9.903   2.280
12145SOL     OW48088   6.956   8.763   5.353
12145SOL    HW148089   6.987   8.670   5.373
12145SOL    HW248090   6.858   8.761   5.332
12146SOL     OW48091   0.630   8.324   4.707
12146SOL    HW148092   0.577   8.371   4.637
12146SOL    HW248093   0.727   8.346   4.697
12147SOL     OW48094   9.248   7.115   7.060
12147SOL    HW148095   9.208   7.026   7.035
12147SOL    HW248096   9.175   7.182   7.071
12148SOL     OW48097   1.250   1.178   0.906
12148SOL    HW148098   1.345   1.164   0.879
12148SOL    HW248099   1.244   1.252   0.972
12149SOL     OW48100   7.925   4.210   7.543
12149SOL    HW148101   7.941   4.274   7.468
12149SOL    HW248102   7.895   4.122   7.507
12150SOL     OW48103   4.277   9.571   5.102
12150SOL    HW148104   4.188   9.532   5.126
12150SOL    HW248105   4.321   9.514   5.033
12151SOL     OW48106   3.444   4.778   7.135
12151SOL    HW148107   3.379   4.724   7.190
12151SOL    HW248108   3.523   4.802   7.192
12152SOL     OW48109   1.731   1.723   2.365
12152SOL    HW148110   1.642   1.750   2.328
12152SOL    HW248111   1.803   1.776   2.320
12153SOL     OW48112   6.879   0.603   3.789
12153SOL    HW148113   6.859   0.628   3.883
12153SOL    HW248114   6.957   0.658   3.756
12154SOL     OW48115   7.591   8.647   4.237
12154SOL    HW148116   7.578   8.717   4.308
12154SOL    HW248117   7.543   8.563   4.265
12155SOL     OW48118   2.818   3.213   4.468
12155SOL    HW148119   2.765   3.293   4.497
12155SOL    HW248120   2.890   3.241   4.405
12156SOL     OW48121   8.427   7.898   7.493
12156SOL    HW148122   8.394   7.829   7.428
12156SOL    HW248123   8.385   7.882   7.583
12157SOL     OW48124   0.987   4.099   0.691
12157SOL    HW148125   1.003   4.100   0.790
12157SOL    HW248126   1.075   4.096   0.644
12158SOL     OW48127   9.059   6.508   2.896
12158SOL    HW148128   8.978   6.454   2.873
12158SOL    HW248129   9.141   6.461   2.861
12159SOL     OW48130   9.798   3.908   7.025
12159SOL    HW148131   9.794   3.830   6.962
12159SOL    HW248132   9.773   3.877   7.117
12160SOL     OW48133   4.776   0.574   2.958
12160SOL    HW148134   4.807   0.579   3.053
12160SOL    HW248135   4.685   0.615   2.950
12161SOL     OW48136   9.882   8.786   4.322
12161SOL    HW148137   9.895   8.824   4.230
12161SOL    HW248138   9.903   8.688   4.320
12162SOL     OW48139   9.306   6.800   6.484
12162SOL    HW148140   9.292   6.897   6.502
12162SOL    HW248141   9.246   6.771   6.410
12163SOL     OW48142   1.377   8.242   6.495
12163SOL    HW148143   1.286   8.283   6.486
12163SOL    HW248144   1.407   8.210   6.405
12164SOL     OW48145   4.701   6.560   1.194
12164SOL    HW148146   4.729   6.645   1.149
12164SOL    HW248147   4.618   6.578   1.248
12165SOL     OW48148   1.614   7.095   7.681
12165SOL    HW148149   1.595   7.003   7.715
12165SOL    HW248150   1.598   7.162   7.754
12166SOL     OW48151   2.985   6.260   7.097
12166SOL    HW148152   3.070   6.313   7.087
12166SOL    HW248153   2.923   6.308   7.159
12167SOL     OW48154   4.449   9.268   6.027
12167SOL    HW148155   4.437   9.187   6.085
12167SOL    HW248156   4.418   9.349   6.076
12168SOL     OW48157   6.015   0.835   3.562
12168SOL    HW148158   6.021   0.747   3.515
12168SOL    HW248159   6.014   0.909   3.495
12169SOL     OW48160   2.521   3.282   1.910
12169SOL    HW148161   2.446   3.270   1.845
12169SOL    HW248162   2.602   3.315   1.861
12170SOL     OW48163   3.200   3.027   1.603
12170SOL    HW148164   3.206   2.928   1.604
12170SOL    HW248165   3.156   3.059   1.687
12171SOL     OW48166   9.567   8.280   0.475
12171SOL    HW148167   9.653   8.316   0.511
12171SOL    HW248168   9.571   8.180   0.472
12172SOL     OW48169   4.548   1.028   1.461
12172SOL    HW148170   4.587   1.061   1.375
12172SOL    HW248171   4.459   1.070   1.476
12173SOL     OW48172   3.705   9.811   7.399
12173SOL    HW148173   3.634   9.770   7.456
12173SOL    HW248174   3.738   9.895   7.441
12174SOL     OW48175   3.065   4.707   4.773
12174SOL    HW148176   3.004   4.785   4.756
12174SOL    HW248177   3.106   4.677   4.687
12175SOL     OW48178   2.702   7.715   1.234
12175SOL    HW148179   2.619   7.769   1.220
12175SOL    HW248180   2.776   7.753   1.178
12176SOL     OW48181   9.831   6.378   4.317
12176SOL    HW148182   9.738   6.414   4.312
12176SOL    HW248183   9.830   6.289   4.363
12177SOL     OW48184   9.594   6.882   6.487
12177SOL    HW148185   9.509   6.857   6.442
12177SOL    HW248186   9.616   6.814   6.557
12178SOL     OW48187   7.127   0.481   4.839
12178SOL    HW148188   7.085   0.529   4.761
12178SOL    HW248189   7.067   0.488   4.919
12179SOL     OW48190   9.746   8.298   6.193
12179SOL    HW148191   9.737   8.348   6.107
12179SOL    HW248192   9.659   8.253   6.214
12180SOL     OW48193   0.439   9.067   7.802
12180SOL    HW148194   0.377   9.018   7.864
12180SOL    HW248195   0.410   9.163   7.796
12181SOL     OW48196   9.727   1.518   0.355
12181SOL    HW148197   9.817   1.482   0.330
12181SOL    HW248198   9.687   1.460   0.426
12182SOL     OW48199   4.308   1.351   3.863
12182SOL    HW148200   4.313   1.436   3.916
12182SOL    HW248201   4.223   1.303   3.884
12183SOL     OW48202   7.039   2.822   3.026
12183SOL    HW148203   7.099   2.892   3.065
12183SOL    HW248204   6.944   2.853   3.031
12184SOL     OW48205   7.040   9.241   4.905
12184SOL    HW148206   6.954   9.256   4.857
12184SOL    HW248207   7.054   9.143   4.918
12185SOL     OW48208   1.476   7.543   7.815
12185SOL    HW148209   1.502   7.585   7.902
12185SOL    HW248210   1.523   7.589   7.740
12186SOL     OW48211   7.267   5.213   0.409
12186SOL    HW148212   7.219   5.225   0.322
12186SOL    HW248213   7.342   5.280   0.415
12187SOL     OW48214   7.907   7.574   7.482
12187SOL    HW148215   7.828   7.627   7.452
12187SOL    HW248216   7.983   7.587   7.418
12188SOL     OW48217   5.033   9.658   2.058
12188SOL    HW148218   5.010   9.563   2.079
12188SOL    HW248219   5.021   9.714   2.141
12189SOL     OW48220   8.440   2.430   5.493
12189SOL    HW148221   8.508   2.358   5.476
12189SOL    HW248222   8.351   2.388   5.512
12190SOL     OW48223   1.097   4.662   4.935
12190SOL    HW148224   1.017   4.658   4.875
12190SOL    HW248225   1.083   4.732   5.005
12191SOL     OW48226   2.032   4.196   3.408
12191SOL    HW148227   2.125   4.189   3.444
12191SOL    HW248228   2.024   4.140   3.325
12192SOL     OW48229   1.209   9.514   2.518
12192SOL    HW148230   1.285   9.549   2.573
12192SOL    HW248231   1.172   9.432   2.561
12193SOL     OW48232   3.799   6.114   3.382
12193SOL    HW148233   3.837   6.161   3.303
12193SOL    HW248234   3.702   6.138   3.391
12194SOL     OW48235   4.324   6.243   0.908
12194SOL    HW148236   4.323   6.217   1.005
12194SOL    HW248237   4.386   6.320   0.895
12195SOL     OW48238   7.975   4.432   0.473
12195SOL    HW148239   8.025   4.477   0.547
12195SOL    HW248240   7.921   4.357   0.510
12196SOL     OW48241   6.939   2.767   1.517
12196SOL    HW148242   6.905   2.790   1.608
12196SOL    HW248243   6.966   2.671   1.514
12197SOL     OW48244   2.131   9.466   7.724
12197SOL    HW148245   2.186   9.521   7.661
12197SOL    HW248246   2.081   9.526   7.786
12198SOL     OW48247   0.088   7.144   7.780
12198SOL    HW148248   0.050   7.226   7.824
12198SOL    HW248249   0.184   7.159   7.759
12199SOL     OW48250   7.820   1.898   3.239
12199SOL    HW148251   7.751   1.952   3.191
12199SOL    HW248252   7.774   1.829   3.296
12200SOL     OW48253   1.629   7.293   7.489
12200SOL    HW148254   1.546   7.334   7.450
12200SOL    HW248255   1.603   7.218   7.549
12201SOL     OW48256   4.232   5.033   6.405
12201SOL    HW148257   4.163   5.091   6.447
12201SOL    HW248258   4.188   4.967   6.344
12202SOL     OW48259   2.628   2.063   7.595
12202SOL    HW148260   2.595   2.056   7.501
12202SOL    HW248261   2.560   2.023   7.657
12203SOL     OW48262   0.499   4.544   7.693
12203SOL    HW148263   0.411   4.507   7.722
12203SOL    HW248264   0.491   4.580   7.600
12204SOL     OW48265   6.306   3.809   0.123
12204SOL    HW148266   6.277   3.752   0.199
12204SOL    HW248267   6.228   3.860   0.087
12205SOL     OW48268   7.141   7.910   7.839
12205SOL    HW148269   7.191   7.847   7.780
12205SOL    HW248270   7.082   7.968   7.784
12206SOL     OW48271   2.341   2.969   2.851
12206SOL    HW148272   2.337   2.925   2.941
12206SOL    HW248273   2.285   2.917   2.786
12207SOL     OW48274   9.761   3.329   3.709
12207SOL    HW148275   9.829   3.399   3.729
12207SOL    HW248276   9.696   3.323   3.784
12208SOL     OW48277   3.024   1.039   0.710
12208SOL    HW148278   3.091   1.056   0.637
12208SOL    HW248279   3.070   1.043   0.799
12209SOL     OW48280   1.209   9.575   2.251
12209SOL    HW148281   1.201   9.556   2.349
12209SOL    HW248282   1.231   9.672   2.238
12210SOL     OW48283   2.100   3.226   6.750
12210SOL    HW148284   2.133   3.234   6.844
12210SOL    HW248285   2.116   3.133   6.717
12211SOL     OW48286   5.932   9.118   2.383
12211SOL    HW148287   5.988   9.039   2.406
12211SOL    HW248288   5.878   9.099   2.301
12212SOL     OW48289   1.086   4.268   7.597
12212SOL    HW148290   1.141   4.184   7.593
12212SOL    HW248291   0.994   4.246   7.631
12213SOL     OW48292   2.827   9.290   0.992
12213SOL    HW148293   2.903   9.330   0.940
12213SOL    HW248294   2.853   9.286   1.089
12214SOL     OW48295   0.099   9.136   5.110
12214SOL    HW148296   0.197   9.154   5.107
12214SOL    HW248297   0.084   9.039   5.128
12215SOL     OW48298   3.241   0.392   0.373
12215SOL    HW148299   3.336   0.361   0.364
12215SOL    HW248300   3.214   0.388   0.469
12216SOL     OW48301   1.198   3.691   2.182
12216SOL    HW148302   1.227   3.599   2.157
12216SOL    HW248303   1.158   3.736   2.103
12217SOL     OW48304   4.183   7.040   3.003
12217SOL    HW148305   4.123   6.962   3.017
12217SOL    HW248306   4.218   7.039   2.909
12218SOL     OW48307   4.971   4.922   2.620
12218SOL    HW148308   4.902   4.854   2.597
12218SOL    HW248309   5.031   4.886   2.692
12219SOL     OW48310   2.408   4.971   4.938
12219SOL    HW148311   2.437   5.065   4.953
12219SOL    HW248312   2.487   4.916   4.909
12220SOL     OW48313   9.953   5.865   7.462
12220SOL    HW148314   9.989   5.846   7.553
12220SOL    HW248315   0.017   5.830   7.393
12221SOL     OW48316   0.275   4.289   4.286
12221SOL    HW148317   0.176   4.286   4.304
12221SOL    HW248318   0.295   4.232   4.207
12222SOL     OW48319   6.514   6.109   0.513
12222SOL    HW148320   6.568   6.028   0.536
12222SOL    HW248321   6.544   6.145   0.424
12223SOL     OW48322   3.521   7.593   7.840
12223SOL    HW148323   3.576   7.659   7.890
12223SOL    HW248324   3.516   7.620   7.744
12224SOL     OW48325   7.917   7.899   1.396
12224SOL    HW148326   7.868   7.860   1.474
12224SOL    HW248327   7.892   7.995   1.385
12225SOL     OW48328   3.716   3.167   5.572
12225SOL    HW148329   3.659   3.247   5.556
12225SOL    HW248330   3.812   3.192   5.563
12226SOL     OW48331   1.855   0.172   1.813
12226SOL    HW148332   1.773   0.150   1.867
12226SOL    HW248333   1.852   0.122   1.727
12227SOL     OW48334   1.079   9.869   1.281
12227SOL    HW148335   1.168   9.908   1.258
12227SOL    HW248336   1.070   9.864   1.381
12228SOL     OW48337   1.112   3.379   3.028
12228SOL    HW148338   1.100   3.417   2.937
12228SOL    HW248339   1.029   3.396   3.082
12229SOL     OW48340   7.992   1.513   3.934
12229SOL    HW148341   7.926   1.453   3.890
12229SOL    HW248342   7.946   1.596   3.966
12230SOL     OW48343   1.990   4.788   5.040
12230SOL    HW148344   2.035   4.867   5.001
12230SOL    HW248345   2.055   4.735   5.093
12231SOL     OW48346   9.111   9.922   4.440
12231SOL    HW148347   9.140   0.011   4.475
12231SOL    HW248348   9.189   9.859   4.442
12232SOL     OW48349   2.281   6.136   6.207
12232SOL    HW148350   2.380   6.143   6.189
12232SOL    HW248351   2.263   6.166   6.301
12233SOL     OW48352   4.969   8.470   1.816
12233SOL    HW148353   5.041   8.524   1.860
12233SOL    HW248354   4.897   8.449   1.882
12234SOL     OW48355   0.759   9.387   4.941
12234SOL    HW148356   0.753   9.473   4.889
12234SOL    HW248357   0.706   9.316   4.894
12235SOL     OW48358   7.907   2.792   0.149
12235SOL    HW148359   7.952   2.860   0.207
12235SOL    HW248360   7.976   2.741   0.097
12236SOL     OW48361   3.608   0.340   1.515
12236SOL    HW148362   3.556   0.408   1.566
12236SOL    HW248363   3.654   0.385   1.438
12237SOL     OW48364   9.812   0.585   0.345
12237SOL    HW148365   9.861   0.507   0.307
12237SOL    HW248366   9.871   0.666   0.341
12238SOL     OW48367   2.178   2.082   6.426
12238SOL    HW148368   2.198   1.990   6.459
12238SOL    HW248369   2.105   2.122   6.481
12239SOL     OW48370   4.279   1.307   7.701
12239SOL    HW148371   4.374   1.324   7.672
12239SOL    HW248372   4.261   1.209   7.698
12240SOL     OW48373   5.540   8.400   6.916
12240SOL    HW148374   5.585   8.393   7.005
12240SOL    HW248375   5.542   8.310   6.871
12241SOL     OW48376   0.182   6.229   0.314
12241SOL    HW148377   0.226   6.294   0.253
12241SOL    HW248378   0.163   6.273   0.402
12242SOL     OW48379   3.030   1.523   2.676
12242SOL    HW148380   2.969   1.462   2.625
12242SOL    HW248381   2.991   1.615   2.678
12243SOL     OW48382   9.958   1.623   4.143
12243SOL    HW148383   0.052   1.593   4.128
12243SOL    HW248384   9.921   1.660   4.058
12244SOL     OW48385   0.173   5.272   7.510
12244SOL    HW148386   0.231   5.242   7.435
12244SOL    HW248387   0.213   5.244   7.598
12245SOL     OW48388   9.869   8.420   6.407
12245SOL    HW148389   9.929   8.496   6.381
12245SOL    HW248390   9.843   8.369   6.326
12246SOL     OW48391   9.587   7.138   5.269
12246SOL    HW148392   9.509   7.140   5.207
12246SOL    HW248393   9.669   7.109   5.220
12247SOL     OW48394   8.113   5.330   6.305
12247SOL    HW148395   8.197   5.356   6.257
12247SOL    HW248396   8.034   5.357   6.250
12248SOL     OW48397   4.180   3.912   7.776
12248SOL    HW148398   4.276   3.938   7.778
12248SOL    HW248399   4.123   3.994   7.784
12249SOL     OW48400   2.779   4.753   6.135
12249SOL    HW148401   2.794   4.851   6.146
12249SOL    HW248402   2.720   4.736   6.057
12250SOL     OW48403   1.179   7.907   3.588
12250SOL    HW148404   1.238   7.968   3.641
12250SOL    HW248405   1.221   7.890   3.499
12251SOL     OW48406   1.068   6.700   5.896
12251SOL    HW148407   1.022   6.617   5.862
12251SOL    HW248408   1.155   6.712   5.848
12252SOL     OW48409   3.794   5.156   5.082
12252SOL    HW148410   3.827   5.072   5.040
12252SOL    HW248411   3.833   5.235   5.033
12253SOL     OW48412   1.781   0.696   0.817
12253SOL    HW148413   1.808   0.771   0.879
12253SOL    HW248414   1.826   0.707   0.729
12254SOL     OW48415   3.727   8.561   0.282
12254SOL    HW148416   3.629   8.576   0.270
12254SOL    HW248417   3.775   8.649   0.279
12255SOL     OW48418   3.530   4.563   4.697
12255SOL    HW148419   3.552   4.475   4.655
12255SOL    HW248420   3.460   4.550   4.768
12256SOL     OW48421   8.582   9.931   3.761
12256SOL    HW148422   8.654   9.996   3.787
12256SOL    HW248423   8.531   9.967   3.683
12257SOL     OW48424   4.374   1.019   4.470
12257SOL    HW148425   4.282   1.040   4.435
12257SOL    HW248426   4.367   0.974   4.558
12258SOL     OW48427   1.674   1.539   0.998
12258SOL    HW148428   1.719   1.628   0.988
12258SOL    HW248429   1.630   1.534   1.088
12259SOL     OW48430   4.752   5.635   1.242
12259SOL    HW148431   4.738   5.662   1.147
12259SOL    HW248432   4.780   5.539   1.247
12260SOL     OW48433   9.317   3.398   5.089
12260SOL    HW148434   9.287   3.347   5.169
12260SOL    HW248435   9.266   3.484   5.083
12261SOL     OW48436   6.282   1.410   3.936
12261SOL    HW148437   6.184   1.390   3.943
12261SOL    HW248438   6.319   1.365   3.854
12262SOL     OW48439   4.898   9.330   2.752
12262SOL    HW148440   4.828   9.400   2.771
12262SOL    HW248441   4.875   9.283   2.667
12263SOL     OW48442   9.667   7.531   1.584
12263SOL    HW148443   9.610   7.590   1.641
12263SOL    HW248444   9.616   7.505   1.502
12264SOL     OW48445   0.031   2.639   6.252
12264SOL    HW148446   0.037   2.553   6.203
12264SOL    HW248447   9.935   2.668   6.259
12265SOL     OW48448   0.911   8.987   2.448
12265SOL    HW148449   0.924   8.898   2.404
12265SOL    HW248450   0.985   9.049   2.422
12266SOL     OW48451   7.454   4.588   0.472
12266SOL    HW148452   7.429   4.592   0.569
12266SOL    HW248453   7.554   4.582   0.464
12267SOL     OW48454   9.059   6.201   5.841
12267SOL    HW148455   9.147   6.154   5.850
12267SOL    HW248456   8.993   6.143   5.794
12268SOL     OW48457   0.376   0.744   6.984
12268SOL    HW148458   0.308   0.722   6.914
12268SOL    HW248459   0.459   0.691   6.969
12269SOL     OW48460   4.291   0.978   5.179
12269SOL    HW148461   4.199   0.942   5.162
12269SOL    HW248462   4.359   0.909   5.158
12270SOL     OW48463   7.215   1.530   4.193
12270SOL    HW148464   7.194   1.612   4.246
12270SOL    HW248465   7.141   1.463   4.204
12271SOL     OW48466   5.443   2.926   4.896
12271SOL    HW148467   5.536   2.893   4.911
12271SOL    HW248468   5.379   2.850   4.909
12272SOL     OW48469   9.746   2.665   6.257
12272SOL    HW148470   9.730   2.567   6.263
12272SOL    HW248471   9.715   2.710   6.341
12273SOL     OW48472   3.396   7.480   2.868
12273SOL    HW148473   3.486   7.472   2.826
12273SOL    HW248474   3.333   7.522   2.802
12274SOL     OW48475   8.868   1.463   2.045
12274SOL    HW148476   8.902   1.370   2.034
12274SOL    HW248477   8.821   1.472   2.133
12275SOL     OW48478   4.835   1.764   0.468
12275SOL    HW148479   4.930   1.772   0.501
12275SOL    HW248480   4.832   1.791   0.372
12276SOL     OW48481   4.879   9.099   5.246
12276SOL    HW148482   4.870   9.037   5.324
12276SOL    HW248483   4.863   9.048   5.161
12277SOL     OW48484   7.952   4.347   4.274
12277SOL    HW148485   7.948   4.447   4.275
12277SOL    HW248486   7.863   4.311   4.246
12278SOL     OW48487   3.259   7.993   1.037
12278SOL    HW148488   3.175   7.961   1.080
12278SOL    HW248489   3.337   7.975   1.098
12279SOL     OW48490   2.299   2.557   7.130
12279SOL    HW148491   2.208   2.577   7.092
12279SOL    HW248492   2.312   2.611   7.213
12280SOL     OW48493   4.705   5.068   2.177
12280SOL    HW148494   4.712   5.034   2.271
12280SOL    HW248495   4.635   5.017   2.128
12281SOL     OW48496   8.199   0.016   3.088
12281SOL    HW148497   8.132   0.009   3.014
12281SOL    HW248498   8.196   0.108   3.127
12282SOL     OW48499   2.986   7.159   5.528
12282SOL    HW148500   2.970   7.209   5.442
12282SOL    HW248501   3.082   7.133   5.534
12283SOL     OW48502   7.949   4.384   2.470
12283SOL    HW148503   7.882   4.325   2.515
12283SOL    HW248504   8.018   4.328   2.425
12284SOL     OW48505   4.703   2.894   0.088
12284SOL    HW148506   4.626   2.832   0.071
12284SOL    HW248507   4.720   2.950   0.006
12285SOL     OW48508   9.707   5.718   7.665
12285SOL    HW148509   9.706   5.805   7.616
12285SOL    HW248510   9.780   5.660   7.628
12286SOL     OW48511   4.764   7.222   0.549
12286SOL    HW148512   4.738   7.225   0.646
12286SOL    HW248513   4.704   7.158   0.501
12287SOL     OW48514   0.218   4.394   4.849
12287SOL    HW148515   0.167   4.460   4.793
12287SOL    HW248516   0.198   4.409   4.945
12288SOL     OW48517   4.854   8.681   3.674
12288SOL    HW148518   4.854   8.768   3.723
12288SOL    HW248519   4.948   8.654   3.653
12289SOL     OW48520   1.056   5.442   5.471
12289SOL    HW148521   0.975   5.497   5.452
12289SOL    HW248522   1.088   5.400   5.386
12290SOL     OW48523   1.196   4.693   3.954
12290SOL    HW148524   1.260   4.768   3.941
12290SOL    HW248525   1.165   4.691   4.049
12291SOL     OW48526   4.934   0.676   5.107
12291SOL    HW148527   5.031   0.677   5.083
12291SOL    HW248528   4.885   0.742   5.050
12292SOL     OW48529   0.548   8.528   3.113
12292SOL    HW148530   0.468   8.508   3.169
12292SOL    HW248531   0.527   8.604   3.051
12293SOL     OW48532   6.922   0.933   4.926
12293SOL    HW148533   6.911   0.872   5.005
12293SOL    HW248534   6.869   0.898   4.849
12294SOL     OW48535   9.077   7.911   2.158
12294SOL    HW148536   9.099   7.814   2.146
12294SOL    HW248537   9.159   7.966   2.145
12295SOL     OW48538   6.368   1.757   2.960
12295SOL    HW148539   6.341   1.722   3.050
12295SOL    HW248540   6.467   1.751   2.950
12296SOL     OW48541   6.539   9.084   2.824
12296SOL    HW148542   6.551   9.095   2.923
12296SOL    HW248543   6.581   9.161   2.777
12297SOL     OW48544   0.059   7.986   1.669
12297SOL    HW148545   0.109   8.045   1.605
12297SOL    HW248546   0.112   7.903   1.686
12298SOL     OW48547   1.365   9.639   6.118
12298SOL    HW148548   1.379   9.646   6.216
12298SOL    HW248549   1.367   9.542   6.091
12299SOL     OW48550   0.397   8.072   0.027
12299SOL    HW148551   0.348   8.159   0.028
12299SOL    HW248552   0.492   8.087   0.056
12300SOL     OW48553   7.339   0.853   0.562
12300SOL    HW148554   7.415   0.847   0.627
12300SOL    HW248555   7.253   0.861   0.613
12301SOL     OW48556   2.498   4.976   4.307
12301SOL    HW148557   2.483   4.893   4.253
12301SOL    HW248558   2.477   5.056   4.251
12302SOL     OW48559   6.540   9.992   7.141
12302SOL    HW148560   6.509   0.042   7.222
12302SOL    HW248561   6.555   9.896   7.165
12303SOL     OW48562   1.953   9.502   4.005
12303SOL    HW148563   1.930   9.441   4.080
12303SOL    HW248564   2.037   9.471   3.960
12304SOL     OW48565   2.647   0.925   0.562
12304SOL    HW148566   2.696   0.922   0.475
12304SOL    HW248567   2.617   1.019   0.579
12305SOL     OW48568   1.873   2.962   3.659
12305SOL    HW148569   1.800   3.028   3.643
12305SOL    HW248570   1.950   3.008   3.703
12306SOL     OW48571   1.623   1.064   0.602
12306SOL    HW148572   1.612   1.047   0.504
12306SOL    HW248573   1.714   1.036   0.631
12307SOL     OW48574   9.945   6.873   2.599
12307SOL    HW148575   0.032   6.866   2.648
12307SOL    HW248576   9.958   6.842   2.504
12308SOL     OW48577   7.944   5.442   6.087
12308SOL    HW148578   7.913   5.505   6.016
12308SOL    HW248579   7.995   5.367   6.046
12309SOL     OW48580   1.637   4.434   3.632
12309SOL    HW148581   1.731   4.438   3.596
12309SOL    HW248582   1.640   4.425   3.732
12310SOL     OW48583   8.347   3.881   5.653
12310SOL    HW148584   8.283   3.950   5.687
12310SOL    HW248585   8.330   3.794   5.699
12311SOL     OW48586   7.809   9.692   5.989
12311SOL    HW148587   7.726   9.637   5.981
12311SOL    HW248588   7.861   9.687   5.904
12312SOL     OW48589   5.256   2.848   2.241
12312SOL    HW148590   5.334   2.909   2.256
12312SOL    HW248591   5.174   2.888   2.282
12313SOL     OW48592   3.004   5.825   7.761
12313SOL    HW148593   3.022   5.922   7.742
12313SOL    HW248594   2.920   5.817   7.815
12314SOL     OW48595   1.235   1.374   1.106
12314SOL    HW148596   1.207   1.448   1.045
12314SOL    HW248597   1.268   1.413   1.192
12315SOL     OW48598   4.120   4.951   5.047
12315SOL    HW148599   4.109   5.044   5.010
12315SOL    HW248600   4.131   4.956   5.146
12316SOL     OW48601   9.997   9.376   0.831
12316SOL    HW148602   0.051   9.460   0.827
12316SOL    HW248603   9.900   9.399   0.820
12317SOL     OW48604   5.183   9.270   7.601
12317SOL    HW148605   5.110   9.293   7.666
12317SOL    HW248606   5.171   9.324   7.518
12318SOL     OW48607   9.227   5.143   7.383
12318SOL    HW148608   9.129   5.133   7.400
12318SOL    HW248609   9.249   5.103   7.294
12319SOL     OW48610   3.160   1.224   5.395
12319SOL    HW148611   3.180   1.320   5.375
12319SOL    HW248612   3.238   1.167   5.370
12320SOL     OW48613   1.672   0.412   7.774
12320SOL    HW148614   1.686   0.336   7.710
12320SOL    HW248615   1.580   0.407   7.811
12321SOL     OW48616   8.197   8.276   5.748
12321SOL    HW148617   8.135   8.352   5.764
12321SOL    HW248618   8.284   8.311   5.713
12322SOL     OW48619   3.448   4.228   3.956
12322SOL    HW148620   3.479   4.253   3.864
12322SOL    HW248621   3.419   4.133   3.957
12323SOL     OW48622   3.913   0.857   4.347
12323SOL    HW148623   3.916   0.801   4.430
12323SOL    HW248624   3.823   0.898   4.338
12324SOL     OW48625   9.118   5.160   2.623
12324SOL    HW148626   9.201   5.108   2.647
12324SOL    HW248627   9.038   5.104   2.644
12325SOL     OW48628   2.428   1.804   6.353
12325SOL    HW148629   2.371   1.825   6.433
12325SOL    HW248630   2.478   1.718   6.369
12326SOL     OW48631   0.418   0.313   4.555
12326SOL    HW148632   0.320   0.309   4.576
12326SOL    HW248633   0.436   0.391   4.496
12327SOL     OW48634   7.026   3.571   1.370
12327SOL    HW148635   7.074   3.610   1.292
12327SOL    HW248636   7.087   3.509   1.419
12328SOL     OW48637   8.021   4.722   2.051
12328SOL    HW148638   7.947   4.655   2.053
12328SOL    HW248639   7.991   4.804   2.003
12329SOL     OW48640   9.012   4.559   0.886
12329SOL    HW148641   9.105   4.531   0.908
12329SOL    HW248642   9.015   4.648   0.839
12330SOL     OW48643   3.840   1.735   0.600
12330SOL    HW148644   3.759   1.721   0.543
12330SOL    HW248645   3.844   1.829   0.632
12331SOL     OW48646   9.147   6.526   6.135
12331SOL    HW148647   9.143   6.610   6.190
12331SOL    HW248648   9.210   6.461   6.179
12332SOL     OW48649   2.971   6.627   6.336
12332SOL    HW148650   2.963   6.625   6.436
12332SOL    HW248651   3.060   6.588   6.310
12333SOL     OW48652   3.983   9.054   2.381
12333SOL    HW148653   3.896   9.037   2.334
12333SOL    HW248654   3.966   9.064   2.479
12334SOL     OW48655   3.821   3.441   2.364
12334SOL    HW148656   3.899   3.423   2.305
12334SOL    HW248657   3.783   3.531   2.343
12335SOL     OW48658   1.969   8.088   4.404
12335SOL    HW148659   1.953   8.186   4.391
12335SOL    HW248660   2.051   8.061   4.353
12336SOL     OW48661   9.896   3.944   6.364
12336SOL    HW148662   9.956   3.888   6.307
12336SOL    HW248663   9.915   4.041   6.347
12337SOL     OW48664   4.873   3.948   1.997
12337SOL    HW148665   4.906   4.030   1.949
12337SOL    HW248666   4.773   3.951   2.003
12338SOL     OW48667   7.016   4.423   3.365
12338SOL    HW148668   7.095   4.457   3.314
12338SOL    HW248669   6.999   4.328   3.340
12339SOL     OW48670   1.564   4.642   6.827
12339SOL    HW148671   1.617   4.580   6.769
12339SOL    HW248672   1.490   4.590   6.871
12340SOL     OW48673   3.284   4.705   2.491
12340SOL    HW148674   3.198   4.753   2.510
12340SOL    HW248675   3.332   4.686   2.576
12341SOL     OW48676   6.920   0.835   0.998
12341SOL    HW148677   6.891   0.757   0.943
12341SOL    HW248678   7.019   0.840   1.001
12342SOL     OW48679   4.951   4.245   1.219
12342SOL    HW148680   4.883   4.288   1.278
12342SOL    HW248681   4.996   4.314   1.163
12343SOL     OW48682   9.055   0.593   7.495
12343SOL    HW148683   9.066   0.675   7.438
12343SOL    HW248684   9.010   0.522   7.441
12344SOL     OW48685   9.020   9.580   4.329
12344SOL    HW148686   8.928   9.551   4.355
12344SOL    HW248687   9.077   9.585   4.411
12345SOL     OW48688   3.933   9.962   3.071
12345SOL    HW148689   3.988   0.014   3.006
12345SOL    HW248690   3.991   9.930   3.146
12346SOL     OW48691   2.887   6.813   4.532
12346SOL    HW148692   2.976   6.767   4.532
12346SOL    HW248693   2.892   6.894   4.474
12347SOL     OW48694   1.192   1.077   6.165
12347SOL    HW148695   1.118   1.010   6.164
12347SOL    HW248696   1.202   1.115   6.257
12348SOL     OW48697   5.163   7.838   1.922
12348SOL    HW148698   5.191   7.750   1.884
12348SOL    HW248699   5.244   7.890   1.948
12349SOL     OW48700   1.708   5.267   4.260
12349SOL    HW148701   1.776   5.235   4.194
12349SOL    HW248702   1.751   5.332   4.322
12350SOL     OW48703   4.040   9.277   3.844
12350SOL    HW148704   3.959   9.239   3.800
12350SOL    HW248705   4.058   9.227   3.929
12351SOL     OW48706   0.952   5.851   4.448
12351SOL    HW148707   1.015   5.896   4.510
12351SOL    HW248708   0.868   5.826   4.496
12352SOL     OW48709   9.582   3.153   5.061
12352SOL    HW148710   9.553   3.091   5.134
12352SOL    HW248711   9.505   3.170   4.999
12353SOL     OW48712   4.893   0.652   6.987
12353SOL    HW148713   4.923   0.596   6.909
12353SOL    HW248714   4.911   0.748   6.967
12354SOL     OW48715   7.911   8.802   4.917
12354SOL    HW148716   7.853   8.883   4.907
12354SOL    HW248717   7.995   8.827   4.965
12355SOL     OW48718   9.123   8.434   3.757
12355SOL    HW148719   9.053   8.392   3.815
12355SOL    HW248720   9.134   8.379   3.674
12356SOL     OW48721   1.310   1.658   4.864
12356SOL    HW148722   1.385   1.639   4.927
12356SOL    HW248723   1.320   1.602   4.782
12357SOL     OW48724   8.945   2.920   3.282
12357SOL    HW148725   9.005   2.874   3.217
12357SOL    HW248726   8.855   2.876   3.281
12358SOL     OW48727   4.001   2.482   4.127
12358SOL    HW148728   4.062   2.433   4.065
12358SOL    HW248729   3.950   2.551   4.076
12359SOL     OW48730   1.876   8.832   5.049
12359SOL    HW148731   1.870   8.791   4.958
12359SOL    HW248732   1.787   8.873   5.073
12360SOL     OW48733   0.360   5.301   1.964
12360SOL    HW148734   0.344   5.214   1.918
12360SOL    HW248735   0.310   5.374   1.918
12361SOL     OW48736   5.692   5.558   1.711
12361SOL    HW148737   5.680   5.581   1.615
12361SOL    HW248738   5.775   5.503   1.722
12362SOL     OW48739   3.368   3.108   4.007
12362SOL    HW148740   3.407   3.024   3.969
12362SOL    HW248741   3.332   3.089   4.099
12363SOL     OW48742   9.392   6.329   6.609
12363SOL    HW148743   9.459   6.270   6.655
12363SOL    HW248744   9.440   6.395   6.552
12364SOL     OW48745   0.906   8.000   2.273
12364SOL    HW148746   0.927   8.004   2.175
12364SOL    HW248747   0.813   7.966   2.287
12365SOL     OW48748   7.499   4.013   7.389
12365SOL    HW148749   7.558   4.017   7.309
12365SOL    HW248750   7.412   4.059   7.369
12366SOL     OW48751   2.330   5.701   1.947
12366SOL    HW148752   2.241   5.730   1.912
12366SOL    HW248753   2.403   5.751   1.899
12367SOL     OW48754   4.944   1.940   6.582
12367SOL    HW148755   4.948   1.872   6.509
12367SOL    HW248756   4.955   2.031   6.544
12368SOL     OW48757   7.254   1.865   5.351
12368SOL    HW148758   7.171   1.891   5.401
12368SOL    HW248759   7.317   1.818   5.414
12369SOL     OW48760   7.120   3.015   5.051
12369SOL    HW148761   7.133   2.916   5.050
12369SOL    HW248762   7.120   3.050   4.957
12370SOL     OW48763   5.272   0.807   6.983
12370SOL    HW148764   5.366   0.828   6.955
12370SOL    HW248765   5.246   0.869   7.057
12371SOL     OW48766   2.259   3.027   0.440
12371SOL    HW148767   2.305   3.080   0.368
12371SOL    HW248768   2.325   3.003   0.511
12372SOL     OW48769   3.290   2.375   0.552
12372SOL    HW148770   3.263   2.465   0.586
12372SOL    HW248771   3.234   2.351   0.473
12373SOL     OW48772   0.671   7.631   5.778
12373SOL    HW148773   0.621   7.545   5.772
12373SOL    HW248774   0.703   7.657   5.687
12374SOL     OW48775   1.658   1.859   0.729
12374SOL    HW148776   1.594   1.934   0.747
12374SOL    HW248777   1.701   1.830   0.814
12375SOL     OW48778   3.389   8.625   4.125
12375SOL    HW148779   3.303   8.618   4.176
12375SOL    HW248780   3.374   8.679   4.042
12376SOL     OW48781   2.960   1.584   7.431
12376SOL    HW148782   2.956   1.683   7.440
12376SOL    HW248783   2.952   1.541   7.521
12377SOL     OW48784   4.173   9.253   4.744
12377SOL    HW148785   4.170   9.286   4.650
12377SOL    HW248786   4.206   9.158   4.745
12378SOL     OW48787   2.068   4.570   1.342
12378SOL    HW148788   2.035   4.634   1.273
12378SOL    HW248789   2.014   4.580   1.425
12379SOL     OW48790   2.652   2.631   2.284
12379SOL    HW148791   2.588   2.707   2.303
12379SOL    HW248792   2.717   2.624   2.360
12380SOL     OW48793   0.984   3.813   1.318
12380SOL    HW148794   1.038   3.888   1.357
12380SOL    HW248795   1.003   3.806   1.220
12381SOL     OW48796   3.303   1.351   5.890
12381SOL    HW148797   3.277   1.319   5.799
12381SOL    HW248798   3.367   1.428   5.882
12382SOL     OW48799   9.833   1.222   4.221
12382SOL    HW148800   9.798   1.313   4.199
12382SOL    HW248801   9.817   1.160   4.144
12383SOL     OW48802   1.938   2.490   2.588
12383SOL    HW148803   1.839   2.495   2.595
12383SOL    HW248804   1.980   2.530   2.670
12384SOL     OW48805   0.365   2.299   0.397
12384SOL    HW148806   0.413   2.220   0.359
12384SOL    HW248807   0.356   2.369   0.326
12385SOL     OW48808   8.086   6.429   0.876
12385SOL    HW148809   8.156   6.471   0.933
12385SOL    HW248810   8.108   6.445   0.779
12386SOL     OW48811   7.341   8.999   7.599
12386SOL    HW148812   7.399   8.935   7.548
12386SOL    HW248813   7.246   8.988   7.570
12387SOL     OW48814   3.573   4.363   7.073
12387SOL    HW148815   3.663   4.403   7.091
12387SOL    HW248816   3.581   4.263   7.070
12388SOL     OW48817   9.764   9.065   2.212
12388SOL    HW148818   9.793   9.156   2.180
12388SOL    HW248819   9.739   9.070   2.309
12389SOL     OW48820   7.972   9.052   6.076
12389SOL    HW148821   8.045   9.071   6.142
12389SOL    HW248822   8.007   9.066   5.984
12390SOL     OW48823   0.089   0.796   2.285
12390SOL    HW148824   0.094   0.895   2.300
12390SOL    HW248825   0.030   0.778   2.206
12391SOL     OW48826   5.989   1.663   4.955
12391SOL    HW148827   5.915   1.687   5.018
12391SOL    HW248828   5.952   1.645   4.864
12392SOL     OW48829   8.491   4.004   1.604
12392SOL    HW148830   8.459   4.089   1.562
12392SOL    HW248831   8.590   4.009   1.617
12393SOL     OW48832   1.164   8.073   7.206
12393SOL    HW148833   1.068   8.088   7.184
12393SOL    HW248834   1.170   8.012   7.286
12394SOL     OW48835   4.079   2.565   5.182
12394SOL    HW148836   4.015   2.621   5.129
12394SOL    HW248837   4.173   2.594   5.163
12395SOL     OW48838   0.224   5.569   1.118
12395SOL    HW148839   0.201   5.666   1.112
12395SOL    HW248840   0.238   5.533   1.026
12396SOL     OW48841   2.052   8.249   2.450
12396SOL    HW148842   2.101   8.258   2.537
12396SOL    HW248843   1.958   8.281   2.461
12397SOL     OW48844   0.526   3.886   5.306
12397SOL    HW148845   0.588   3.851   5.377
12397SOL    HW248846   0.447   3.825   5.299
12398SOL     OW48847   8.170   7.340   7.772
12398SOL    HW148848   8.263   7.352   7.806
12398SOL    HW248849   8.121   7.427   7.781
12399SOL     OW48850   9.062   1.222   6.266
12399SOL    HW148851   8.992   1.182   6.208
12399SOL    HW248852   9.132   1.265   6.209
12400SOL     OW48853   2.393   6.257   2.721
12400SOL    HW148854   2.370   6.316   2.799
12400SOL    HW248855   2.488   6.274   2.694
12401SOL     OW48856   2.002   6.312   2.123
12401SOL    HW148857   2.076   6.270   2.174
12401SOL    HW248858   1.981   6.402   2.162
12402SOL     OW48859   9.823   4.924   4.392
12402SOL    HW148860   9.805   4.828   4.375
12402SOL    HW248861   9.769   4.955   4.471
12403SOL     OW48862   5.437   4.064   1.047
12403SOL    HW148863   5.536   4.069   1.061
12403SOL    HW248864   5.401   3.983   1.092
12404SOL     OW48865   9.618   1.673   1.458
12404SOL    HW148866   9.697   1.707   1.509
12404SOL    HW248867   9.570   1.604   1.512
12405SOL     OW48868   4.082   2.558   6.015
12405SOL    HW148869   4.179   2.553   6.037
12405SOL    HW248870   4.058   2.488   5.948
12406SOL     OW48871   2.948   3.695   0.978
12406SOL    HW148872   2.877   3.629   1.001
12406SOL    HW248873   2.908   3.772   0.929
12407SOL     OW48874   4.920   4.750   1.050
12407SOL    HW148875   4.938   4.847   1.065
12407SOL    HW248876   5.004   4.698   1.061
12408SOL     OW48877   9.714   2.885   2.648
12408SOL    HW148878   9.757   2.795   2.652
12408SOL    HW248879   9.634   2.886   2.709
12409SOL     OW48880   7.543   6.407   0.571
12409SOL    HW148881   7.471   6.389   0.639
12409SOL    HW248882   7.599   6.484   0.602
12410SOL     OW48883   8.178   8.028   7.865
12410SOL    HW148884   8.104   8.040   7.931
12410SOL    HW248885   8.155   8.078   7.781
12411SOL     OW48886   4.548   8.673   6.517
12411SOL    HW148887   4.596   8.756   6.490
12411SOL    HW248888   4.459   8.669   6.473
12412SOL     OW48889   2.571   5.622   0.905
12412SOL    HW148890   2.665   5.623   0.940
12412SOL    HW248891   2.564   5.553   0.832
12413SOL     OW48892   7.135   1.362   1.771
12413SOL    HW148893   7.147   1.404   1.861
12413SOL    HW248894   7.049   1.393   1.731
12414SOL     OW48895   6.435   4.044   0.879
12414SOL    HW148896   6.408   3.990   0.959
12414SOL    HW248897   6.500   4.115   0.906
12415SOL     OW48898   8.400   3.778   3.995
12415SOL    HW148899   8.327   3.803   3.932
12415SOL    HW248900   8.453   3.859   4.019
12416SOL     OW48901   6.130   7.850   7.002
12416SOL    HW148902   6.044   7.865   7.050
12416SOL    HW248903   6.205   7.848   7.067
12417SOL     OW48904   8.010   2.107   3.896
12417SOL    HW148905   8.008   2.099   3.996
12417SOL    HW248906   8.104   2.097   3.864
12418SOL     OW48907   1.208   1.717   6.654
12418SOL    HW148908   1.221   1.803   6.606
12418SOL    HW248909   1.209   1.733   6.753
12419SOL     OW48910   7.273   5.962   1.850
12419SOL    HW148911   7.262   5.967   1.950
12419SOL    HW248912   7.347   5.899   1.828
12420SOL     OW48913   3.294   3.533   3.368
12420SOL    HW148914   3.327   3.440   3.355
12420SOL    HW248915   3.237   3.537   3.451
12421SOL     OW48916   5.165   8.290   7.093
12421SOL    HW148917   5.219   8.207   7.078
12421SOL    HW248918   5.195   8.362   7.031
12422SOL     OW48919   0.253   5.825   0.869
12422SOL    HW148920   0.165   5.819   0.822
12422SOL    HW248921   0.316   5.757   0.833
12423SOL     OW48922   0.845   6.933   5.121
12423SOL    HW148923   0.751   6.931   5.155
12423SOL    HW248924   0.888   6.844   5.137
12424SOL     OW48925   6.498   5.228   0.874
12424SOL    HW148926   6.548   5.145   0.848
12424SOL    HW248927   6.472   5.278   0.791
12425SOL     OW48928   9.944   7.139   5.388
12425SOL    HW148929   9.887   7.205   5.438
12425SOL    HW248930   0.038   7.172   5.385
12426SOL     OW48931   2.278   9.955   0.581
12426SOL    HW148932   2.319   9.921   0.666
12426SOL    HW248933   2.290   9.886   0.509
12427SOL     OW48934   0.662   1.555   2.266
12427SOL    HW148935   0.564   1.555   2.284
12427SOL    HW248936   0.707   1.618   2.329
12428SOL     OW48937   9.272   4.632   3.622
12428SOL    HW148938   9.172   4.628   3.621
12428SOL    HW248939   9.304   4.652   3.714
12429SOL     OW48940   6.254   8.279   4.567
12429SOL    HW148941   6.262   8.315   4.660
12429SOL    HW248942   6.311   8.333   4.505
12430SOL     OW48943   7.896   7.735   0.707
12430SOL    HW148944   7.854   7.649   0.677
12430SOL    HW248945   7.838   7.778   0.777
12431SOL     OW48946   9.694   2.882   3.491
12431SOL    HW148947   9.733   2.973   3.502
12431SOL    HW248948   9.692   2.835   3.579
12432SOL     OW48949   1.326   2.014   6.851
12432SOL    HW148950   1.280   2.102   6.860
12432SOL    HW248951   1.374   2.011   6.763
12433SOL     OW48952   8.949   3.680   1.492
12433SOL    HW148953   9.031   3.705   1.543
12433SOL    HW248954   8.885   3.632   1.552
12434SOL     OW48955   8.167   5.090   5.376
12434SOL    HW148956   8.069   5.086   5.357
12434SOL    HW248957   8.182   5.099   5.474
12435SOL     OW48958   1.158   1.248   5.937
12435SOL    HW148959   1.168   1.201   6.025
12435SOL    HW248960   1.061   1.251   5.912
12436SOL     OW48961   7.450   2.288   2.200
12436SOL    HW148962   7.473   2.334   2.286
12436SOL    HW248963   7.492   2.197   2.198
12437SOL     OW48964   2.797   2.328   5.203
12437SOL    HW148965   2.697   2.327   5.213
12437SOL    HW248966   2.838   2.275   5.277
12438SOL     OW48967   2.099   0.751   6.318
12438SOL    HW148968   2.105   0.841   6.361
12438SOL    HW248969   2.083   0.761   6.220
12439SOL     OW48970   2.814   7.728   5.783
12439SOL    HW148971   2.833   7.784   5.702
12439SOL    HW248972   2.829   7.782   5.865
12440SOL     OW48973   3.290   5.206   1.628
12440SOL    HW148974   3.366   5.147   1.601
12440SOL    HW248975   3.204   5.154   1.622
12441SOL     OW48976   6.212   7.928   3.894
12441SOL    HW148977   6.261   7.912   3.979
12441SOL    HW248978   6.113   7.925   3.911
12442SOL     OW48979   1.454   3.741   5.893
12442SOL    HW148980   1.507   3.825   5.905
12442SOL    HW248981   1.408   3.718   5.979
12443SOL     OW48982   0.181   6.980   3.867
12443SOL    HW148983   0.094   6.932   3.867
12443SOL    HW248984   0.256   6.914   3.868
12444SOL     OW48985   4.480   7.656   2.147
12444SOL    HW148986   4.518   7.578   2.098
12444SOL    HW248987   4.509   7.741   2.102
12445SOL     OW48988   0.551   0.320   5.076
12445SOL    HW148989   0.495   0.237   5.075
12445SOL    HW248990   0.541   0.369   4.990
12446SOL     OW48991   6.930   7.977   5.332
12446SOL    HW148992   6.981   8.059   5.356
12446SOL    HW248993   6.933   7.963   5.233
12447SOL     OW48994   7.856   7.639   2.426
12447SOL    HW148995   7.918   7.576   2.474
12447SOL    HW248996   7.860   7.622   2.328
12448SOL     OW48997   7.307   2.401   0.462
12448SOL    HW148998   7.276   2.455   0.541
12448SOL    HW248999   7.228   2.366   0.412
12449SOL     OW49000   3.378   1.273   2.868
12449SOL    HW149001   3.445   1.317   2.809
12449SOL    HW249002   3.406   1.283   2.964
12450SOL     OW49003   9.018   6.237   5.231
12450SOL    HW149004   9.075   6.155   5.234
12450SOL    HW249005   9.014   6.271   5.137
12451SOL     OW49006   6.958   7.089   6.171
12451SOL    HW149007   7.029   7.075   6.102
12451SOL    HW249008   6.987   7.048   6.258
12452SOL     OW49009   3.323   2.475   4.453
12452SOL    HW149010   3.329   2.386   4.408
12452SOL    HW249011   3.396   2.534   4.420
12453SOL     OW49012   0.788   9.513   3.899
12453SOL    HW149013   0.754   9.456   3.973
12453SOL    HW249014   0.781   9.609   3.925
12454SOL     OW49015   5.894   8.109   4.734
12454SOL    HW149016   5.930   8.157   4.654
12454SOL    HW249017   5.844   8.028   4.705
12455SOL     OW49018   9.059   9.993   5.487
12455SOL    HW149019   9.079   0.076   5.540
12455SOL    HW249020   8.966   9.963   5.507
12456SOL     OW49021   2.495   0.246   7.275
12456SOL    HW149022   2.509   0.337   7.237
12456SOL    HW249023   2.435   0.251   7.355
12457SOL     OW49024   4.467   2.402   0.958
12457SOL    HW149025   4.529   2.324   0.968
12457SOL    HW249026   4.421   2.419   1.045
12458SOL     OW49027   7.650   7.023   5.331
12458SOL    HW149028   7.715   7.002   5.258
12458SOL    HW249029   7.612   6.938   5.368
12459SOL     OW49030   5.432   7.404   4.427
12459SOL    HW149031   5.404   7.412   4.522
12459SOL    HW249032   5.525   7.367   4.422
12460SOL     OW49033   3.291   6.241   2.153
12460SOL    HW149034   3.214   6.214   2.094
12460SOL    HW249035   3.347   6.308   2.104
12461SOL     OW49036   2.285   9.769   0.374
12461SOL    HW149037   2.221   9.699   0.408
12461SOL    HW249038   2.247   9.813   0.293
12462SOL     OW49039   0.206   7.371   2.975
12462SOL    HW149040   0.280   7.383   3.041
12462SOL    HW249041   0.148   7.295   3.005
12463SOL     OW49042   9.359   6.240   0.101
12463SOL    HW149043   9.334   6.312   0.165
12463SOL    HW249044   9.437   6.190   0.136
12464SOL     OW49045   1.398   9.837   0.554
12464SOL    HW149046   1.410   9.804   0.460
12464SOL    HW249047   1.362   9.763   0.611
12465SOL     OW49048   1.960   4.321   1.888
12465SOL    HW149049   1.956   4.224   1.913
12465SOL    HW249050   1.879   4.368   1.924
12466SOL     OW49051   4.193   6.300   2.504
12466SOL    HW149052   4.201   6.393   2.470
12466SOL    HW249053   4.274   6.247   2.477
12467SOL     OW49054   7.192   5.117   3.137
12467SOL    HW149055   7.164   5.114   3.233
12467SOL    HW249056   7.180   5.210   3.102
12468SOL     OW49057   5.433   9.143   1.542
12468SOL    HW149058   5.362   9.102   1.484
12468SOL    HW249059   5.393   9.168   1.630
12469SOL     OW49060   0.505   9.782   4.242
12469SOL    HW149061   0.472   9.691   4.218
12469SOL    HW249062   0.604   9.778   4.256
12470SOL     OW49063   2.320   6.765   6.212
12470SOL    HW149064   2.302   6.667   6.213
12470SOL    HW249065   2.417   6.781   6.192
12471SOL     OW49066   4.843   0.069   4.483
12471SOL    HW149067   4.930   0.089   4.528
12471SOL    HW249068   4.823   9.971   4.491
12472SOL     OW49069   2.860   5.375   3.185
12472SOL    HW149070   2.856   5.438   3.107
12472SOL    HW249071   2.768   5.345   3.208
12473SOL     OW49072   3.649   7.542   3.607
12473SOL    HW149073   3.673   7.458   3.559
12473SOL    HW249074   3.600   7.520   3.691
12474SOL     OW49075   5.240   5.125   0.308
12474SOL    HW149076   5.271   5.033   0.332
12474SOL    HW249077   5.317   5.178   0.273
12475SOL     OW49078   1.034   1.591   2.572
12475SOL    HW149079   1.052   1.616   2.477
12475SOL    HW249080   1.041   1.673   2.630
12476SOL     OW49081   1.736   6.374   6.498
12476SOL    HW149082   1.684   6.298   6.536
12476SOL    HW249083   1.699   6.460   6.532
12477SOL     OW49084   7.475   9.876   4.142
12477SOL    HW149085   7.448   9.782   4.122
12477SOL    HW249086   7.539   9.876   4.219
12478SOL     OW49087   1.854   1.186   1.777
12478SOL    HW149088   1.795   1.263   1.799
12478SOL    HW249089   1.934   1.186   1.837
12479SOL     OW49090   1.222   5.432   0.773
12479SOL    HW149091   1.141   5.377   0.752
12479SOL    HW249092   1.304   5.382   0.749
12480SOL     OW49093   0.695   0.792   7.039
12480SOL    HW149094   0.791   0.814   7.058
12480SOL    HW249095   0.657   0.740   7.115
12481SOL     OW49096   4.429   8.736   2.172
12481SOL    HW149097   4.354   8.762   2.232
12481SOL    HW249098   4.507   8.796   2.187
12482SOL     OW49099   9.162   0.759   4.432
12482SOL    HW149100   9.125   0.780   4.342
12482SOL    HW249101   9.201   0.668   4.433
12483SOL     OW49102   4.750   9.368   6.619
12483SOL    HW149103   4.683   9.394   6.550
12483SOL    HW249104   4.834   9.338   6.574
12484SOL     OW49105   3.279   1.376   0.156
12484SOL    HW149106   3.204   1.344   0.098
12484SOL    HW249107   3.267   1.473   0.176
12485SOL     OW49108   9.149   7.726   6.305
12485SOL    HW149109   9.202   7.806   6.332
12485SOL    HW249110   9.124   7.733   6.209
12486SOL     OW49111   9.160   9.029   0.425
12486SOL    HW149112   9.237   8.965   0.428
12486SOL    HW249113   9.155   9.070   0.334
12487SOL     OW49114   9.443   5.759   4.396
12487SOL    HW149115   9.483   5.849   4.417
12487SOL    HW249116   9.499   5.687   4.437
12488SOL     OW49117   3.000   8.949   3.092
12488SOL    HW149118   3.084   8.895   3.091
12488SOL    HW249119   2.991   8.996   3.004
12489SOL     OW49120   0.305   0.288   2.123
12489SOL    HW149121   0.328   0.216   2.188
12489SOL    HW249122   0.356   0.371   2.146
12490SOL     OW49123   6.905   0.897   5.598
12490SOL    HW149124   6.813   0.857   5.598
12490SOL    HW249125   6.898   0.997   5.591
12491SOL     OW49126   0.022   2.715   4.475
12491SOL    HW149127   9.996   2.699   4.571
12491SOL    HW249128   0.018   2.628   4.425
12492SOL     OW49129   7.989   6.901   0.378
12492SOL    HW149130   8.082   6.912   0.411
12492SOL    HW249131   7.938   6.986   0.395
12493SOL     OW49132   9.219   3.602   3.260
12493SOL    HW149133   9.209   3.697   3.231
12493SOL    HW249134   9.190   3.541   3.187
12494SOL     OW49135   1.702   4.719   0.778
12494SOL    HW149136   1.679   4.811   0.746
12494SOL    HW249137   1.672   4.652   0.710
12495SOL     OW49138   4.473   9.029   7.021
12495SOL    HW149139   4.404   8.991   7.084
12495SOL    HW249140   4.535   8.957   6.992
12496SOL     OW49141   6.659   8.135   2.978
12496SOL    HW149142   6.737   8.115   2.919
12496SOL    HW249143   6.660   8.072   3.056
12497SOL     OW49144   4.019   4.815   1.694
12497SOL    HW149145   3.953   4.875   1.648
12497SOL    HW249146   3.971   4.759   1.761
12498SOL     OW49147   3.577   6.066   7.239
12498SOL    HW149148   3.484   6.090   7.210
12498SOL    HW249149   3.605   5.981   7.194
12499SOL     OW49150   1.653   0.149   2.501
12499SOL    HW149151   1.614   0.206   2.574
12499SOL    HW249152   1.753   0.156   2.505
12500SOL     OW49153   0.035   4.052   2.639
12500SOL    HW149154   9.963   4.108   2.597
12500SOL    HW249155   9.994   3.994   2.709
12501SOL     OW49156   8.234   4.541   6.943
12501SOL    HW149157   8.150   4.579   6.981
12501SOL    HW249158   8.251   4.450   6.983
12502SOL     OW49159   9.090   9.937   2.892
12502SOL    HW149160   9.009   9.941   2.834
12502SOL    HW249161   9.139   9.851   2.875
12503SOL     OW49162   3.009   1.929   5.186
12503SOL    HW149163   2.912   1.951   5.197
12503SOL    HW249164   3.050   1.992   5.120
12504SOL     OW49165   2.346   3.381   1.226
12504SOL    HW149166   2.348   3.426   1.137
12504SOL    HW249167   2.374   3.286   1.217
12505SOL     OW49168   0.110   2.275   2.764
12505SOL    HW149169   0.058   2.294   2.847
12505SOL    HW249170   0.155   2.358   2.733
12506SOL     OW49171   7.186   3.599   3.249
12506SOL    HW149172   7.219   3.546   3.171
12506SOL    HW249173   7.235   3.569   3.332
12507SOL     OW49174   9.659   1.429   2.846
12507SOL    HW149175   9.580   1.368   2.842
12507SOL    HW249176   9.719   1.401   2.921
12508SOL     OW49177   1.768   0.863   5.328
12508SOL    HW149178   1.841   0.908   5.277
12508SOL    HW249179   1.755   0.909   5.416
12509SOL     OW49180   7.383   3.103   1.116
12509SOL    HW149181   7.337   3.183   1.155
12509SOL    HW249182   7.348   3.087   1.024
12510SOL     OW49183   4.427   0.107   4.810
12510SOL    HW149184   4.415   0.162   4.892
12510SOL    HW249185   4.437   0.167   4.731
12511SOL     OW49186   7.686   1.041   2.965
12511SOL    HW149187   7.653   1.073   3.054
12511SOL    HW249188   7.769   1.092   2.941
12512SOL     OW49189   6.487   1.386   6.749
12512SOL    HW149190   6.527   1.450   6.684
12512SOL    HW249191   6.556   1.321   6.779
12513SOL     OW49192   7.386   3.009   5.158
12513SOL    HW149193   7.386   2.949   5.238
12513SOL    HW249194   7.293   3.023   5.126
12514SOL     OW49195   6.173   5.434   0.611
12514SOL    HW149196   6.208   5.525   0.591
12514SOL    HW249197   6.125   5.398   0.530
12515SOL     OW49198   4.045   6.638   3.490
12515SOL    HW149199   4.057   6.553   3.542
12515SOL    HW249200   3.954   6.676   3.510
12516SOL     OW49201   6.155   0.261   2.334
12516SOL    HW149202   6.242   0.234   2.294
12516SOL    HW249203   6.080   0.226   2.278
12517SOL     OW49204   8.816   0.592   2.631
12517SOL    HW149205   8.757   0.594   2.712
12517SOL    HW249206   8.890   0.659   2.642
12518SOL     OW49207   8.644   4.952   3.571
12518SOL    HW149208   8.737   4.922   3.552
12518SOL    HW249209   8.585   4.872   3.583
12519SOL     OW49210   3.991   7.501   1.748
12519SOL    HW149211   3.996   7.417   1.803
12519SOL    HW249212   3.895   7.523   1.730
12520SOL     OW49213   9.567   6.946   0.911
12520SOL    HW149214   9.524   7.026   0.870
12520SOL    HW249215   9.502   6.902   0.973
12521SOL     OW49216   7.262   7.695   4.292
12521SOL    HW149217   7.345   7.741   4.260
12521SOL    HW249218   7.266   7.599   4.267
12522SOL     OW49219   0.428   4.592   1.863
12522SOL    HW149220   0.503   4.579   1.928
12522SOL    HW249221   0.463   4.639   1.782
12523SOL     OW49222   1.405   7.143   4.607
12523SOL    HW149223   1.393   7.196   4.523
12523SOL    HW249224   1.340   7.068   4.609
12524SOL     OW49225   4.919   7.744   2.599
12524SOL    HW149226   4.909   7.771   2.695
12524SOL    HW249227   4.853   7.794   2.543
12525SOL     OW49228   0.357   7.489   0.452
12525SOL    HW149229   0.300   7.545   0.513
12525SOL    HW249230   0.401   7.548   0.385
12526SOL     OW49231   2.776   4.817   0.813
12526SOL    HW149232   2.774   4.916   0.797
12526SOL    HW249233   2.836   4.774   0.745
12527SOL     OW49234   1.019   7.566   1.085
12527SOL    HW149235   1.092   7.572   1.152
12527SOL    HW249236   1.015   7.651   1.032
12528SOL     OW49237   4.252   6.346   3.537
12528SOL    HW149238   4.175   6.373   3.595
12528SOL    HW249239   4.327   6.411   3.548
12529SOL     OW49240   2.001   4.991   0.709
12529SOL    HW149241   1.948   4.995   0.624
12529SOL    HW249242   2.006   4.896   0.741
12530SOL     OW49243   9.692   2.400   6.292
12530SOL    HW149244   9.595   2.386   6.314
12530SOL    HW249245   9.722   2.329   6.228
12531SOL     OW49246   2.933   2.732   7.929
12531SOL    HW149247   2.840   2.744   7.894
12531SOL    HW249248   2.954   2.635   7.932
12532SOL     OW49249   3.715   1.025   5.949
12532SOL    HW149250   3.708   1.078   5.865
12532SOL    HW249251   3.810   0.997   5.962
12533SOL     OW49252   1.923   7.494   6.193
12533SOL    HW149253   1.907   7.589   6.169
12533SOL    HW249254   1.903   7.480   6.290
12534SOL     OW49255   3.787   8.800   0.888
12534SOL    HW149256   3.747   8.891   0.901
12534SOL    HW249257   3.876   8.795   0.933
12535SOL     OW49258   1.255   9.844   2.211
12535SOL    HW149259   1.323   9.872   2.143
12535SOL    HW249260   1.163   9.855   2.172
12536SOL     OW49261   7.145   9.675   5.422
12536SOL    HW149262   7.070   9.610   5.429
12536SOL    HW249263   7.108   9.767   5.407
12537SOL     OW49264   0.755   8.078   6.389
12537SOL    HW149265   0.826   8.032   6.442
12537SOL    HW249266   0.797   8.136   6.320
12538SOL     OW49267   3.375   5.643   1.287
12538SOL    HW149268   3.357   5.640   1.385
12538SOL    HW249269   3.461   5.597   1.266
12539SOL     OW49270   9.477   9.439   7.763
12539SOL    HW149271   9.387   9.472   7.792
12539SOL    HW249272   9.547   9.503   7.792
12540SOL     OW49273   0.515   4.079   6.711
12540SOL    HW149274   0.439   4.089   6.775
12540SOL    HW249275   0.591   4.137   6.741
12541SOL     OW49276   7.772   7.795   4.953
12541SOL    HW149277   7.810   7.747   5.032
12541SOL    HW249278   7.687   7.841   4.979
12542SOL     OW49279   4.373   2.396   4.921
12542SOL    HW149280   4.365   2.324   4.990
12542SOL    HW249281   4.283   2.415   4.883
12543SOL     OW49282   6.591   9.150   3.093
12543SOL    HW149283   6.505   9.202   3.093
12543SOL    HW249284   6.633   9.158   3.184
12544SOL     OW49285   8.605   8.500   4.024
12544SOL    HW149286   8.591   8.403   4.003
12544SOL    HW249287   8.686   8.533   3.976
12545SOL     OW49288   6.351   0.371   3.144
12545SOL    HW149289   6.363   0.316   3.227
12545SOL    HW249290   6.307   0.316   3.073
12546SOL     OW49291   8.298   7.534   3.809
12546SOL    HW149292   8.370   7.495   3.752
12546SOL    HW249293   8.220   7.558   3.751
12547SOL     OW49294   8.542   9.049   5.159
12547SOL    HW149295   8.609   9.048   5.233
12547SOL    HW249296   8.523   8.955   5.130
12548SOL     OW49297   7.838   0.272   0.204
12548SOL    HW149298   7.746   0.301   0.175
12548SOL    HW249299   7.895   0.353   0.215
12549SOL     OW49300   3.302   2.839   2.218
12549SOL    HW149301   3.284   2.913   2.152
12549SOL    HW249302   3.326   2.755   2.168
12550SOL     OW49303   2.886   0.567   5.543
12550SOL    HW149304   2.896   0.620   5.627
12550SOL    HW249305   2.878   0.470   5.565
12551SOL     OW49306   9.405   5.407   2.672
12551SOL    HW149307   9.416   5.319   2.626
12551SOL    HW249308   9.408   5.394   2.771
12552SOL     OW49309   5.456   3.127   0.577
12552SOL    HW149310   5.480   3.164   0.667
12552SOL    HW249311   5.380   3.062   0.587
12553SOL     OW49312   4.312   5.489   4.005
12553SOL    HW149313   4.228   5.489   4.060
12553SOL    HW249314   4.386   5.531   4.058
12554SOL     OW49315   8.507   4.737   2.002
12554SOL    HW149316   8.415   4.698   1.995
12554SOL    HW249317   8.520   4.806   1.931
12555SOL     OW49318   6.662   9.418   1.872
12555SOL    HW149319   6.758   9.434   1.849
12555SOL    HW249320   6.613   9.505   1.873
12556SOL     OW49321   9.582   7.186   1.341
12556SOL    HW149322   9.508   7.124   1.368
12556SOL    HW249323   9.651   7.136   1.289
12557SOL     OW49324   0.268   3.218   6.635
12557SOL    HW149325   0.191   3.282   6.643
12557SOL    HW249326   0.269   3.158   6.715
12558SOL     OW49327   8.824   5.028   5.489
12558SOL    HW149328   8.776   5.065   5.568
12558SOL    HW249329   8.805   5.084   5.408
12559SOL     OW49330   8.784   7.028   0.428
12559SOL    HW149331   8.739   7.048   0.515
12559SOL    HW249332   8.740   7.080   0.354
12560SOL     OW49333   2.132   3.627   6.469
12560SOL    HW149334   2.142   3.684   6.388
12560SOL    HW249335   2.036   3.617   6.492
12561SOL     OW49336   9.093   1.412   2.273
12561SOL    HW149337   9.130   1.479   2.208
12561SOL    HW249338   9.048   1.339   2.223
12562SOL     OW49339   0.277   7.541   1.420
12562SOL    HW149340   0.318   7.453   1.443
12562SOL    HW249341   0.317   7.575   1.335
12563SOL     OW49342   8.157   7.595   0.943
12563SOL    HW149343   8.125   7.689   0.953
12563SOL    HW249344   8.165   7.573   0.846
12564SOL     OW49345   1.442   2.137   0.276
12564SOL    HW149346   1.532   2.166   0.244
12564SOL    HW249347   1.452   2.089   0.364
12565SOL     OW49348   0.647   6.156   1.503
12565SOL    HW149349   0.581   6.089   1.469
12565SOL    HW249350   0.706   6.185   1.428
12566SOL     OW49351   3.139   1.252   4.983
12566SOL    HW149352   3.044   1.242   5.013
12566SOL    HW249353   3.185   1.163   4.988
12567SOL     OW49354   7.202   0.459   5.211
12567SOL    HW149355   7.107   0.465   5.180
12567SOL    HW249356   7.254   0.536   5.174
12568SOL     OW49357   5.833   9.104   2.782
12568SOL    HW149358   5.804   9.161   2.705
12568SOL    HW249359   5.764   9.034   2.800
12569SOL     OW49360   4.316   0.830   2.274
12569SOL    HW149361   4.403   0.804   2.233
12569SOL    HW249362   4.282   0.913   2.230
12570SOL     OW49363   1.003   9.263   4.912
12570SOL    HW149364   1.000   9.169   4.946
12570SOL    HW249365   0.913   9.306   4.925
12571SOL     OW49366   3.335   0.955   5.678
12571SOL    HW149367   3.316   0.857   5.681
12571SOL    HW249368   3.338   0.991   5.771
12572SOL     OW49369   1.417   8.521   7.016
12572SOL    HW149370   1.388   8.617   7.010
12572SOL    HW249371   1.371   8.477   7.093
12573SOL     OW49372   8.188   5.484   6.805
12573SOL    HW149373   8.139   5.465   6.720
12573SOL    HW249374   8.171   5.579   6.833
12574SOL     OW49375   5.116   2.509   1.499
12574SOL    HW149376   5.150   2.437   1.559
12574SOL    HW249377   5.146   2.598   1.532
12575SOL     OW49378   7.673   2.975   3.331
12575SOL    HW149379   7.729   3.054   3.357
12575SOL    HW249380   7.675   2.907   3.404
12576SOL     OW49381   9.783   1.561   2.100
12576SOL    HW149382   9.851   1.494   2.130
12576SOL    HW249383   9.723   1.519   2.032
12577SOL     OW49384   4.198   5.807   4.147
12577SOL    HW149385   4.219   5.756   4.231
12577SOL    HW249386   4.280   5.811   4.090
12578SOL     OW49387   8.031   7.803   3.098
12578SOL    HW149388   8.072   7.714   3.081
12578SOL    HW249389   8.095   7.876   3.071
12579SOL     OW49390   9.385   9.936   7.061
12579SOL    HW149391   9.341   9.879   7.130
12579SOL    HW249392   9.475   9.964   7.094
12580SOL     OW49393   8.249   4.618   1.943
12580SOL    HW149394   8.168   4.657   1.988
12580SOL    HW249395   8.269   4.669   1.860
12581SOL     OW49396   4.038   7.411   2.160
12581SOL    HW149397   4.091   7.496   2.156
12581SOL    HW249398   4.079   7.349   2.226
12582SOL     OW49399   2.766   6.789   4.792
12582SOL    HW149400   2.746   6.691   4.801
12582SOL    HW249401   2.809   6.806   4.704
12583SOL     OW49402   3.837   3.757   6.201
12583SOL    HW149403   3.894   3.839   6.205
12583SOL    HW249404   3.894   3.678   6.181
12584SOL     OW49405   0.583   8.444   1.717
12584SOL    HW149406   0.602   8.357   1.671
12584SOL    HW249407   0.522   8.499   1.661
12585SOL     OW49408   4.536   1.872   7.658
12585SOL    HW149409   4.447   1.828   7.668
12585SOL    HW249410   4.573   1.852   7.567
12586SOL     OW49411   3.895   7.592   3.248
12586SOL    HW149412   3.974   7.621   3.194
12586SOL    HW249413   3.817   7.575   3.188
12587SOL     OW49414   4.097   9.715   7.211
12587SOL    HW149415   4.191   9.706   7.243
12587SOL    HW249416   4.092   9.791   7.145
12588SOL     OW49417   7.240   5.108   7.071
12588SOL    HW149418   7.320   5.129   7.127
12588SOL    HW249419   7.184   5.040   7.117
12589SOL     OW49420   6.202   7.596   3.404
12589SOL    HW149421   6.102   7.597   3.403
12589SOL    HW249422   6.237   7.629   3.317
12590SOL     OW49423   1.419   9.999   4.553
12590SOL    HW149424   1.439   0.036   4.644
12590SOL    HW249425   1.504   9.987   4.502
12591SOL     OW49426   8.391   4.858   2.306
12591SOL    HW149427   8.372   4.946   2.348
12591SOL    HW249428   8.485   4.855   2.273
12592SOL     OW49429   7.303   6.213   6.051
12592SOL    HW149430   7.322   6.311   6.053
12592SOL    HW249431   7.218   6.194   6.099
12593SOL     OW49432   8.861   0.098   2.496
12593SOL    HW149433   8.908   0.052   2.420
12593SOL    HW249434   8.882   0.196   2.494
12594SOL     OW49435   7.993   6.691   2.215
12594SOL    HW149436   8.049   6.616   2.249
12594SOL    HW249437   7.953   6.665   2.127
12595SOL     OW49438   7.883   1.653   0.248
12595SOL    HW149439   7.798   1.601   0.243
12595SOL    HW249440   7.868   1.745   0.212
12596SOL     OW49441   7.938   1.333   0.176
12596SOL    HW149442   7.990   1.413   0.146
12596SOL    HW249443   7.995   1.277   0.237
12597SOL     OW49444   9.902   2.368   0.597
12597SOL    HW149445   9.900   2.269   0.602
12597SOL    HW249446   9.808   2.402   0.583
12598SOL     OW49447   1.903   5.724   6.972
12598SOL    HW149448   1.865   5.632   6.983
12598SOL    HW249449   2.000   5.723   6.995
12599SOL     OW49450   0.552   0.860   3.770
12599SOL    HW149451   0.596   0.844   3.682
12599SOL    HW249452   0.464   0.812   3.773
12600SOL     OW49453   1.421   9.460   1.014
12600SOL    HW149454   1.495   9.435   1.076
12600SOL    HW249455   1.357   9.520   1.061
12601SOL     OW49456   9.233   3.953   7.117
12601SOL    HW149457   9.304   3.882   7.115
12601SOL    HW249458   9.143   3.910   7.104
12602SOL     OW49459   4.724   9.467   1.007
12602SOL    HW149460   4.633   9.426   1.010
12602SOL    HW249461   4.747   9.501   1.098
12603SOL     OW49462   1.759   1.298   4.215
12603SOL    HW149463   1.732   1.369   4.280
12603SOL    HW249464   1.717   1.316   4.126
12604SOL     OW49465   8.174   9.747   3.901
12604SOL    HW149466   8.262   9.786   3.929
12604SOL    HW249467   8.181   9.712   3.808
12605SOL     OW49468   2.012   4.319   4.118
12605SOL    HW149469   2.023   4.286   4.211
12605SOL    HW249470   2.050   4.253   4.054
12606SOL     OW49471   8.428   2.357   0.232
12606SOL    HW149472   8.388   2.266   0.245
12606SOL    HW249473   8.527   2.351   0.242
12607SOL     OW49474   2.815   1.457   5.187
12607SOL    HW149475   2.732   1.499   5.151
12607SOL    HW249476   2.798   1.423   5.280
12608SOL     OW49477   2.535   5.819   1.800
12608SOL    HW149478   2.584   5.906   1.797
12608SOL    HW249479   2.599   5.745   1.825
12609SOL     OW49480   3.424   6.358   0.343
12609SOL    HW149481   3.421   6.446   0.295
12609SOL    HW249482   3.351   6.355   0.411
12610SOL     OW49483   4.775   3.898   5.565
12610SOL    HW149484   4.709   3.927   5.495
12610SOL    HW249485   4.859   3.951   5.554
12611SOL     OW49486   1.618   2.133   3.930
12611SOL    HW149487   1.636   2.074   3.852
12611SOL    HW249488   1.614   2.079   4.014
12612SOL     OW49489   1.815   9.297   4.979
12612SOL    HW149490   1.859   9.314   5.067
12612SOL    HW249491   1.857   9.217   4.936
12613SOL     OW49492   0.178   2.010   3.128
12613SOL    HW149493   0.273   2.007   3.098
12613SOL    HW249494   0.125   1.939   3.082
12614SOL     OW49495   2.618   1.881   0.672
12614SOL    HW149496   2.683   1.939   0.722
12614SOL    HW249497   2.647   1.786   0.678
12615SOL     OW49498   2.527   7.514   5.526
12615SOL    HW149499   2.433   7.529   5.495
12615SOL    HW249500   2.545   7.415   5.533
12616SOL     OW49501   3.745   0.426   1.283
12616SOL    HW149502   3.794   0.340   1.299
12616SOL    HW249503   3.745   0.446   1.186
12617SOL     OW49504   1.352   9.340   6.502
12617SOL    HW149505   1.275   9.279   6.521
12617SOL    HW249506   1.438   9.289   6.513
12618SOL     OW49507   0.989   8.946   0.731
12618SOL    HW149508   0.919   8.992   0.785
12618SOL    HW249509   0.959   8.939   0.636
12619SOL     OW49510   4.376   8.200   0.803
12619SOL    HW149511   4.368   8.179   0.706
12619SOL    HW249512   4.425   8.126   0.849
12620SOL     OW49513   5.384   3.476   0.567
12620SOL    HW149514   5.413   3.409   0.499
12620SOL    HW249515   5.345   3.556   0.522
12621SOL     OW49516   9.350   9.233   6.839
12621SOL    HW149517   9.337   9.149   6.786
12621SOL    HW249518   9.371   9.309   6.777
12622SOL     OW49519   7.991   3.602   3.076
12622SOL    HW149520   7.931   3.585   2.998
12622SOL    HW249521   8.026   3.695   3.071
12623SOL     OW49522   6.260   1.058   3.825
12623SOL    HW149523   6.271   0.974   3.877
12623SOL    HW249524   6.164   1.086   3.826
12624SOL     OW49525   9.279   0.466   3.478
12624SOL    HW149526   9.252   0.395   3.413
12624SOL    HW249527   9.372   0.447   3.511
12625SOL     OW49528   3.097   8.059   0.594
12625SOL    HW149529   3.103   7.996   0.517
12625SOL    HW249530   3.182   8.053   0.647
12626SOL     OW49531   0.844   2.961   4.439
12626SOL    HW149532   0.750   2.987   4.459
12626SOL    HW249533   0.884   3.027   4.375
12627SOL     OW49534   2.416   4.805   4.518
12627SOL    HW149535   2.440   4.858   4.437
12627SOL    HW249536   2.335   4.843   4.561
12628SOL     OW49537   9.919   3.520   7.296
12628SOL    HW149538   9.971   3.562   7.371
12628SOL    HW249539   9.977   3.514   7.215
12629SOL     OW49540   2.484   7.231   5.275
12629SOL    HW149541   2.483   7.140   5.234
12629SOL    HW249542   2.517   7.225   5.369
12630SOL     OW49543   6.541   0.747   1.812
12630SOL    HW149544   6.477   0.770   1.738
12630SOL    HW249545   6.520   0.802   1.892
12631SOL     OW49546   3.367   2.089   2.230
12631SOL    HW149547   3.356   1.995   2.262
12631SOL    HW249548   3.464   2.109   2.217
12632SOL     OW49549   1.235   4.154   6.760
12632SOL    HW149550   1.208   4.207   6.841
12632SOL    HW249551   1.249   4.216   6.683
12633SOL     OW49552   4.467   7.629   0.441
12633SOL    HW149553   4.380   7.580   0.439
12633SOL    HW249554   4.541   7.565   0.461
12634SOL     OW49555   8.514   1.274   1.253
12634SOL    HW149556   8.558   1.254   1.341
12634SOL    HW249557   8.415   1.266   1.263
12635SOL     OW49558   1.599   2.806   3.045
12635SOL    HW149559   1.506   2.774   3.064
12635SOL    HW249560   1.642   2.837   3.129
12636SOL     OW49561   8.407   1.146   3.954
12636SOL    HW149562   8.323   1.200   3.949
12636SOL    HW249563   8.433   1.135   4.050
12637SOL     OW49564   1.495   3.911   1.449
12637SOL    HW149565   1.432   3.984   1.476
12637SOL    HW249566   1.521   3.857   1.529
12638SOL     OW49567   5.090   2.533   7.142
12638SOL    HW149568   5.171   2.561   7.194
12638SOL    HW249569   5.015   2.514   7.206
12639SOL     OW49570   3.780   4.936   0.795
12639SOL    HW149571   3.696   4.884   0.811
12639SOL    HW249572   3.808   4.925   0.699
12640SOL     OW49573   0.212   4.013   5.009
12640SOL    HW149574   0.190   4.085   4.943
12640SOL    HW249575   0.265   4.051   5.084
12641SOL     OW49576   7.099   2.304   0.312
12641SOL    HW149577   7.048   2.221   0.334
12641SOL    HW249578   7.171   2.282   0.246
12642SOL     OW49579   8.629   5.748   6.008
12642SOL    HW149580   8.701   5.818   6.003
12642SOL    HW249581   8.551   5.776   5.953
12643SOL     OW49582   4.081   2.268   1.927
12643SOL    HW149583   4.063   2.335   1.999
12643SOL    HW249584   4.051   2.177   1.957
12644SOL     OW49585   1.510   9.761   1.540
12644SOL    HW149586   1.519   9.733   1.444
12644SOL    HW249587   1.421   9.735   1.575
12645SOL     OW49588   1.098   4.657   1.843
12645SOL    HW149589   1.114   4.754   1.824
12645SOL    HW249590   1.008   4.630   1.808
12646SOL     OW49591   4.682   0.634   7.419
12646SOL    HW149592   4.618   0.669   7.351
12646SOL    HW249593   4.718   0.545   7.389
12647SOL     OW49594   7.252   2.736   2.011
12647SOL    HW149595   7.316   2.670   2.052
12647SOL    HW249596   7.248   2.721   1.913
12648SOL     OW49597   9.856   2.438   6.680
12648SOL    HW149598   9.905   2.466   6.762
12648SOL    HW249599   9.771   2.490   6.673
12649SOL     OW49600   8.688   8.744   0.665
12649SOL    HW149601   8.597   8.769   0.631
12649SOL    HW249602   8.747   8.724   0.587
12650SOL     OW49603   1.617   2.063   5.577
12650SOL    HW149604   1.523   2.052   5.610
12650SOL    HW249605   1.675   2.095   5.652
12651SOL     OW49606   8.381   1.617   4.145
12651SOL    HW149607   8.336   1.596   4.058
12651SOL    HW249608   8.467   1.665   4.128
12652SOL     OW49609   7.413   5.743   2.654
12652SOL    HW149610   7.344   5.801   2.612
12652SOL    HW249611   7.494   5.798   2.675
12653SOL     OW49612   3.976   3.931   7.399
12653SOL    HW149613   4.072   3.903   7.399
12653SOL    HW249614   3.934   3.903   7.312
12654SOL     OW49615   1.307   0.262   1.214
12654SOL    HW149616   1.350   0.294   1.298
12654SOL    HW249617   1.358   0.296   1.135
12655SOL     OW49618   9.569   4.323   3.792
12655SOL    HW149619   9.556   4.276   3.880
12655SOL    HW249620   9.590   4.419   3.808
12656SOL     OW49621   9.571   5.063   4.044
12656SOL    HW149622   9.541   5.119   4.121
12656SOL    HW249623   9.655   5.103   4.005
12657SOL     OW49624   7.905   5.103   1.617
12657SOL    HW149625   7.865   5.075   1.530
12657SOL    HW249626   7.969   5.032   1.648
12658SOL     OW49627   0.134   1.689   0.092
12658SOL    HW149628   0.068   1.757   0.124
12658SOL    HW249629   0.107   1.599   0.125
12659SOL     OW49630   0.871   4.207   1.327
12659SOL    HW149631   0.850   4.137   1.259
12659SOL    HW249632   0.806   4.283   1.317
12660SOL     OW49633   0.627   6.972   0.913
12660SOL    HW149634   0.700   6.981   0.845
12660SOL    HW249635   0.608   6.875   0.929
12661SOL     OW49636   7.620   2.003   4.404
12661SOL    HW149637   7.678   2.023   4.483
12661SOL    HW249638   7.585   2.088   4.365
12662SOL     OW49639   2.834   8.095   5.285
12662SOL    HW149640   2.815   8.119   5.380
12662SOL    HW249641   2.752   8.107   5.229
12663SOL     OW49642   0.309   3.778   1.729
12663SOL    HW149643   0.279   3.854   1.787
12663SOL    HW249644   0.307   3.807   1.634
12664SOL     OW49645   0.405   9.065   2.292
12664SOL    HW149646   0.490   9.069   2.344
12664SOL    HW249647   0.412   9.122   2.210
12665SOL     OW49648   3.522   2.708   4.875
12665SOL    HW149649   3.461   2.691   4.797
12665SOL    HW249650   3.560   2.622   4.907
12666SOL     OW49651   5.690   0.399   5.971
12666SOL    HW149652   5.765   0.354   6.020
12666SOL    HW249653   5.607   0.345   5.980
12667SOL     OW49654   6.706   7.611   4.949
12667SOL    HW149655   6.719   7.677   4.876
12667SOL    HW249656   6.673   7.658   5.031
12668SOL     OW49657   8.097   5.981   0.995
12668SOL    HW149658   8.057   5.891   0.980
12668SOL    HW249659   8.054   6.048   0.935
12669SOL     OW49660   5.560   6.152   0.152
12669SOL    HW149661   5.652   6.163   0.191
12669SOL    HW249662   5.491   6.167   0.223
12670SOL     OW49663   0.473   8.439   4.521
12670SOL    HW149664   0.399   8.374   4.500
12670SOL    HW249665   0.435   8.531   4.529
12671SOL     OW49666   1.462   5.163   2.490
12671SOL    HW149667   1.376   5.116   2.472
12671SOL    HW249668   1.445   5.248   2.539
12672SOL     OW49669   0.076   6.482   4.641
12672SOL    HW149670   0.076   6.565   4.696
12672SOL    HW249671   0.025   6.410   4.690
12673SOL     OW49672   1.003   4.343   0.193
12673SOL    HW149673   1.032   4.344   0.289
12673SOL    HW249674   1.031   4.429   0.150
12674SOL     OW49675   5.443   2.104   1.861
12674SOL    HW149676   5.503   2.024   1.864
12674SOL    HW249677   5.486   2.176   1.808
12675SOL     OW49678   5.493   0.336   3.232
12675SOL    HW149679   5.517   0.281   3.313
12675SOL    HW249680   5.406   0.383   3.249
12676SOL     OW49681   1.040   5.280   6.679
12676SOL    HW149682   1.003   5.372   6.688
12676SOL    HW249683   0.995   5.232   6.603
12677SOL     OW49684   6.915   1.745   2.552
12677SOL    HW149685   6.966   1.683   2.492
12677SOL    HW249686   6.887   1.826   2.499
12678SOL     OW49687   3.229   5.529   0.907
12678SOL    HW149688   3.319   5.570   0.896
12678SOL    HW249689   3.199   5.490   0.820
12679SOL     OW49690   8.783   5.738   7.716
12679SOL    HW149691   8.817   5.644   7.714
12679SOL    HW249692   8.754   5.765   7.624
12680SOL     OW49693   9.337   5.913   2.859
12680SOL    HW149694   9.352   5.893   2.956
12680SOL    HW249695   9.415   5.881   2.806
12681SOL     OW49696   2.498   5.655   5.753
12681SOL    HW149697   2.582   5.702   5.777
12681SOL    HW249698   2.431   5.721   5.718
12682SOL     OW49699   9.970   0.086   3.243
12682SOL    HW149700   0.063   0.083   3.281
12682SOL    HW249701   9.958   0.171   3.191
12683SOL     OW49702   1.675   6.899   5.921
12683SOL    HW149703   1.691   6.806   5.890
12683SOL    HW249704   1.719   6.913   6.010
12684SOL     OW49705   2.380   8.322   6.884
12684SOL    HW149706   2.441   8.264   6.832
12684SOL    HW249707   2.319   8.266   6.940
12685SOL     OW49708   1.642   8.013   0.144
12685SOL    HW149709   1.632   8.110   0.126
12685SOL    HW249710   1.658   7.964   0.059
12686SOL     OW49711   3.396   2.321   1.324
12686SOL    HW149712   3.381   2.378   1.243
12686SOL    HW249713   3.487   2.281   1.320
12687SOL     OW49714   9.270   0.227   3.785
12687SOL    HW149715   9.336   0.219   3.861
12687SOL    HW249716   9.186   0.270   3.819
12688SOL     OW49717   0.926   7.905   7.509
12688SOL    HW149718   0.907   7.893   7.412
12688SOL    HW249719   0.927   7.816   7.555
12689SOL     OW49720   8.889   9.783   1.457
12689SOL    HW149721   8.894   9.882   1.453
12689SOL    HW249722   8.932   9.743   1.376
12690SOL     OW49723   0.444   3.749   2.209
12690SOL    HW149724   0.539   3.722   2.200
12690SOL    HW249725   0.424   3.826   2.148
12691SOL     OW49726   7.658   3.563   4.709
12691SOL    HW149727   7.669   3.483   4.767
12691SOL    HW249728   7.580   3.617   4.741
12692SOL     OW49729   0.555   8.998   2.685
12692SOL    HW149730   0.494   8.934   2.639
12692SOL    HW249731   0.503   9.051   2.752
12693SOL     OW49732   0.264   8.357   5.460
12693SOL    HW149733   0.265   8.293   5.537
12693SOL    HW249734   0.183   8.339   5.403
12694SOL     OW49735   2.590   1.566   4.455
12694SOL    HW149736   2.656   1.582   4.381
12694SOL    HW249737   2.497   1.567   4.418
12695SOL     OW49738   6.594   6.161   0.256
12695SOL    HW149739   6.688   6.128   0.268
12695SOL    HW249740   6.578   6.179   0.159
12696SOL     OW49741   4.405   9.323   7.775
12696SOL    HW149742   4.441   9.230   7.783
12696SOL    HW249743   4.305   9.320   7.780
12697SOL     OW49744   4.750   9.594   5.485
12697SOL    HW149745   4.755   9.515   5.425
12697SOL    HW249746   4.772   9.566   5.579
12698SOL     OW49747   0.267   0.909   3.314
12698SOL    HW149748   0.322   0.988   3.344
12698SOL    HW249749   0.318   0.857   3.246
12699SOL     OW49750   0.715   4.392   2.381
12699SOL    HW149751   0.695   4.300   2.347
12699SOL    HW249752   0.656   4.410   2.460
12700SOL     OW49753   2.974   1.301   1.852
12700SOL    HW149754   3.043   1.238   1.816
12700SOL    HW249755   3.003   1.335   1.941
12701SOL     OW49756   2.978   6.592   4.215
12701SOL    HW149757   2.959   6.690   4.203
12701SOL    HW249758   2.923   6.540   4.150
12702SOL     OW49759   5.297   1.182   6.457
12702SOL    HW149760   5.239   1.159   6.379
12702SOL    HW249761   5.327   1.099   6.502
12703SOL     OW49762   9.698   6.196   7.268
12703SOL    HW149763   9.626   6.138   7.306
12703SOL    HW249764   9.731   6.157   7.182
12704SOL     OW49765   7.089   6.506   3.753
12704SOL    HW149766   7.163   6.557   3.797
12704SOL    HW249767   7.090   6.412   3.786
12705SOL     OW49768   8.928   9.553   7.830
12705SOL    HW149769   8.937   9.645   7.790
12705SOL    HW249770   8.833   9.523   7.824
12706SOL     OW49771   2.639   3.625   2.287
12706SOL    HW149772   2.722   3.667   2.325
12706SOL    HW249773   2.568   3.695   2.279
12707SOL     OW49774   4.661   4.710   1.147
12707SOL    HW149775   4.633   4.618   1.176
12707SOL    HW249776   4.757   4.708   1.121
12708SOL     OW49777   2.076   7.957   6.205
12708SOL    HW149778   2.120   8.014   6.136
12708SOL    HW249779   2.141   7.890   6.240
12709SOL     OW49780   4.616   1.432   5.427
12709SOL    HW149781   4.538   1.431   5.365
12709SOL    HW249782   4.672   1.350   5.412
12710SOL     OW49783   5.400   8.925   5.113
12710SOL    HW149784   5.391   8.881   5.202
12710SOL    HW249785   5.497   8.940   5.093
12711SOL     OW49786   9.963   1.265   6.854
12711SOL    HW149787   9.955   1.225   6.945
12711SOL    HW249788   9.885   1.236   6.798
12712SOL     OW49789   0.243   5.732   4.454
12712SOL    HW149790   0.274   5.737   4.359
12712SOL    HW249791   0.173   5.661   4.463
12713SOL     OW49792   7.676   3.322   4.845
12713SOL    HW149793   7.643   3.267   4.922
12713SOL    HW249794   7.665   3.270   4.760
12714SOL     OW49795   7.268   2.921   2.211
12714SOL    HW149796   7.263   2.851   2.140
12714SOL    HW249797   7.323   2.887   2.288
12715SOL     OW49798   0.230   1.293   3.832
12715SOL    HW149799   0.265   1.225   3.766
12715SOL    HW249800   0.150   1.256   3.878
12716SOL     OW49801   1.916   9.886   6.645
12716SOL    HW149802   1.993   9.853   6.591
12716SOL    HW249803   1.923   9.849   6.738
12717SOL     OW49804   4.472   8.357   1.177
12717SOL    HW149805   4.407   8.385   1.248
12717SOL    HW249806   4.435   8.382   1.087
12718SOL     OW49807   8.416   2.335   2.352
12718SOL    HW149808   8.332   2.360   2.304
12718SOL    HW249809   8.456   2.254   2.310
12719SOL     OW49810   4.060   0.427   0.064
12719SOL    HW149811   4.056   0.469   0.154
12719SOL    HW249812   4.093   0.333   0.073
12720SOL     OW49813   4.262   4.531   3.319
12720SOL    HW149814   4.248   4.611   3.261
12720SOL    HW249815   4.271   4.560   3.414
12721SOL     OW49816   6.686   9.444   3.407
12721SOL    HW149817   6.614   9.490   3.354
12721SOL    HW249818   6.738   9.512   3.459
12722SOL     OW49819   6.021   3.716   0.997
12722SOL    HW149820   5.989   3.640   1.052
12722SOL    HW249821   6.111   3.745   1.030
12723SOL     OW49822   2.743   8.318   1.517
12723SOL    HW149823   2.742   8.255   1.440
12723SOL    HW249824   2.739   8.412   1.484
12724SOL     OW49825   4.770   1.761   5.143
12724SOL    HW149826   4.837   1.786   5.073
12724SOL    HW249827   4.766   1.832   5.213
12725SOL     OW49828   8.467   6.861   5.467
12725SOL    HW149829   8.380   6.909   5.458
12725SOL    HW249830   8.455   6.780   5.525
12726SOL     OW49831   9.271   4.001   1.268
12726SOL    HW149832   9.190   3.948   1.289
12726SOL    HW249833   9.347   3.971   1.326
12727SOL     OW49834   7.290   5.004   0.575
12727SOL    HW149835   7.205   4.951   0.575
12727SOL    HW249836   7.280   5.085   0.517
12728SOL     OW49837   9.973   6.147   6.681
12728SOL    HW149838   9.919   6.206   6.741
12728SOL    HW249839   0.060   6.125   6.725
12729SOL     OW49840   5.011   2.429   6.566
12729SOL    HW149841   5.004   2.522   6.602
12729SOL    HW249842   4.928   2.406   6.516
12730SOL     OW49843   6.202   8.125   5.496
12730SOL    HW149844   6.204   8.225   5.508
12730SOL    HW249845   6.295   8.093   5.480
12731SOL     OW49846   8.987   7.223   5.499
12731SOL    HW149847   9.084   7.200   5.509
12731SOL    HW249848   8.943   7.158   5.436
12732SOL     OW49849   1.687   4.091   1.348
12732SOL    HW149850   1.701   4.125   1.441
12732SOL    HW249851   1.612   4.025   1.348
12733SOL     OW49852   4.408   4.179   6.455
12733SOL    HW149853   4.320   4.221   6.477
12733SOL    HW249854   4.445   4.134   6.536
12734SOL     OW49855   1.056   6.332   6.179
12734SOL    HW149856   1.151   6.330   6.149
12734SOL    HW249857   1.052   6.328   6.279
12735SOL     OW49858   0.555   0.941   4.828
12735SOL    HW149859   0.470   0.939   4.774
12735SOL    HW249860   0.534   0.918   4.923
12736SOL     OW49861   6.928   4.423   7.175
12736SOL    HW149862   6.863   4.376   7.116
12736SOL    HW249863   6.967   4.501   7.126
12737SOL     OW49864   2.467   4.281   5.044
12737SOL    HW149865   2.552   4.243   5.081
12737SOL    HW249866   2.451   4.371   5.084
12738SOL     OW49867   8.752   5.508   5.949
12738SOL    HW149868   8.703   5.595   5.955
12738SOL    HW249869   8.810   5.497   6.031
12739SOL     OW49870   8.437   0.994   7.130
12739SOL    HW149871   8.476   0.969   7.041
12739SOL    HW249872   8.469   0.930   7.200
12740SOL     OW49873   1.339   1.015   0.455
12740SOL    HW149874   1.422   1.030   0.400
12740SOL    HW249875   1.348   0.930   0.506
12741SOL     OW49876   3.656   6.591   3.996
12741SOL    HW149877   3.647   6.628   4.089
12741SOL    HW249878   3.582   6.625   3.939
12742SOL     OW49879   9.546   5.754   0.903
12742SOL    HW149880   9.592   5.753   0.992
12742SOL    HW249881   9.447   5.756   0.917
12743SOL     OW49882   6.394   6.936   4.099
12743SOL    HW149883   6.470   6.912   4.038
12743SOL    HW249884   6.431   6.960   4.189
12744SOL     OW49885   9.005   2.099   2.893
12744SOL    HW149886   8.994   2.150   2.808
12744SOL    HW249887   9.075   2.141   2.950
12745SOL     OW49888   2.844   9.868   3.929
12745SOL    HW149889   2.899   9.914   4.000
12745SOL    HW249890   2.747   9.878   3.950
12746SOL     OW49891   8.643   7.660   1.469
12746SOL    HW149892   8.556   7.644   1.424
12746SOL    HW249893   8.718   7.646   1.404
12747SOL     OW49894   9.279   2.140   4.457
12747SOL    HW149895   9.285   2.186   4.545
12747SOL    HW249896   9.350   2.176   4.396
12748SOL     OW49897   2.898   3.316   1.412
12748SOL    HW149898   2.815   3.279   1.369
12748SOL    HW249899   2.873   3.388   1.476
12749SOL     OW49900   9.811   7.947   4.557
12749SOL    HW149901   9.789   7.936   4.654
12749SOL    HW249902   9.854   7.863   4.524
12750SOL     OW49903   2.467   2.962   1.679
12750SOL    HW149904   2.414   2.939   1.597
12750SOL    HW249905   2.511   3.051   1.667
12751SOL     OW49906   5.384   8.828   4.156
12751SOL    HW149907   5.407   8.782   4.242
12751SOL    HW249908   5.292   8.867   4.163
12752SOL     OW49909   3.754   5.135   2.359
12752SOL    HW149910   3.752   5.093   2.268
12752SOL    HW249911   3.834   5.102   2.409
12753SOL     OW49912   0.988   2.313   3.084
12753SOL    HW149913   0.967   2.398   3.036
12753SOL    HW249914   0.907   2.253   3.081
12754SOL     OW49915   1.325   5.968   7.835
12754SOL    HW149916   1.260   6.028   7.881
12754SOL    HW249917   1.328   5.880   7.881
12755SOL     OW49918   5.123   4.867   7.074
12755SOL    HW149919   5.029   4.880   7.104
12755SOL    HW249920   5.184   4.923   7.130
12756SOL     OW49921   3.299   7.554   1.571
12756SOL    HW149922   3.278   7.595   1.660
12756SOL    HW249923   3.214   7.531   1.525
12757SOL     OW49924   7.847   5.624   6.285
12757SOL    HW149925   7.871   5.549   6.223
12757SOL    HW249926   7.920   5.637   6.352
12758SOL     OW49927   0.586   9.892   2.149
12758SOL    HW149928   0.609   9.922   2.242
12758SOL    HW249929   0.614   9.962   2.083
12759SOL     OW49930   4.999   3.452   0.889
12759SOL    HW149931   4.960   3.420   0.803
12759SOL    HW249932   5.097   3.469   0.877
12760SOL     OW49933   9.872   5.897   6.603
12760SOL    HW149934   9.774   5.894   6.622
12760SOL    HW249935   9.909   5.986   6.632
12761SOL     OW49936   4.609   7.724   3.302
12761SOL    HW149937   4.565   7.637   3.282
12761SOL    HW249938   4.575   7.794   3.239
12762SOL     OW49939   7.291   2.360   4.207
12762SOL    HW149940   7.242   2.318   4.130
12762SOL    HW249941   7.225   2.392   4.275
12763SOL     OW49942   8.467   5.499   1.110
12763SOL    HW149943   8.414   5.582   1.091
12763SOL    HW249944   8.415   5.440   1.171
12764SOL     OW49945   6.105   3.681   2.030
12764SOL    HW149946   6.118   3.775   2.000
12764SOL    HW249947   6.192   3.644   2.063
12765SOL     OW49948   7.118   7.288   3.567
12765SOL    HW149949   7.154   7.373   3.527
12765SOL    HW249950   7.184   7.215   3.554
12766SOL     OW49951   8.084   4.346   3.894
12766SOL    HW149952   8.106   4.434   3.850
12766SOL    HW249953   8.130   4.342   3.983
12767SOL     OW49954   7.402   9.887   5.162
12767SOL    HW149955   7.392   9.945   5.244
12767SOL    HW249956   7.368   9.795   5.182
12768SOL     OW49957   5.415   8.351   2.651
12768SOL    HW149958   5.452   8.287   2.719
12768SOL    HW249959   5.346   8.408   2.695
12769SOL     OW49960   1.929   9.012   1.511
12769SOL    HW149961   1.853   8.947   1.505
12769SOL    HW249962   1.894   9.105   1.508
12770SOL     OW49963   4.040   9.463   5.177
12770SOL    HW149964   4.058   9.370   5.211
12770SOL    HW249965   4.011   9.521   5.252
12771SOL     OW49966   5.513   8.824   3.748
12771SOL    HW149967   5.553   8.911   3.777
12771SOL    HW249968   5.436   8.842   3.686
12772SOL     OW49969   3.447   1.758   4.153
12772SOL    HW149970   3.410   1.730   4.241
12772SOL    HW249971   3.440   1.682   4.088
12773SOL     OW49972   4.446   8.028   1.511
12773SOL    HW149973   4.372   7.968   1.544
12773SOL    HW249974   4.485   8.078   1.588
12774SOL     OW49975   1.518   9.313   1.408
12774SOL    HW149976   1.421   9.304   1.384
12774SOL    HW249977   1.565   9.367   1.338
12775SOL     OW49978   3.703   0.122   2.310
12775SOL    HW149979   3.740   0.071   2.233
12775SOL    HW249980   3.647   0.061   2.367
12776SOL     OW49981   2.104   4.940   6.898
12776SOL    HW149982   2.089   4.848   6.932
12776SOL    HW249983   2.190   4.976   6.934
12777SOL     OW49984   7.858   6.606   1.988
12777SOL    HW149985   7.892   6.549   1.913
12777SOL    HW249986   7.815   6.688   1.951
12778SOL     OW49987   8.579   9.161   6.167
12778SOL    HW149988   8.490   9.198   6.141
12778SOL    HW249989   8.587   9.159   6.267
12779SOL     OW49990   1.500   3.285   0.276
12779SOL    HW149991   1.525   3.219   0.347
12779SOL    HW249992   1.574   3.350   0.263
12780SOL     OW49993   4.476   9.281   0.693
12780SOL    HW149994   4.405   9.289   0.763
12780SOL    HW249995   4.484   9.185   0.665
12781SOL     OW49996   1.194   7.923   5.573
12781SOL    HW149997   1.219   7.904   5.668
12781SOL    HW249998   1.252   7.995   5.537
12782SOL     OW49999   4.458   3.454   2.775
12782SOL    HW150000   4.454   3.491   2.868
12782SOL    HW250001   4.524   3.507   2.721
12783SOL     OW50002   1.549   4.950   5.976
12783SOL    HW150003   1.544   5.003   5.892
12783SOL    HW250004   1.537   5.010   6.055
12784SOL     OW50005   0.379   7.628   1.177
12784SOL    HW150006   0.392   7.719   1.215
12784SOL    HW250007   0.465   7.597   1.135
12785SOL     OW50008   5.940   3.403   0.828
12785SOL    HW150009   5.879   3.366   0.758
12785SOL    HW250010   5.887   3.454   0.896
12786SOL     OW50011   8.838   4.294   6.901
12786SOL    HW150012   8.821   4.311   6.804
12786SOL    HW250013   8.761   4.327   6.955
12787SOL     OW50014   4.556   8.873   3.410
12787SOL    HW150015   4.584   8.793   3.463
12787SOL    HW250016   4.586   8.862   3.315
12788SOL     OW50017   4.023   2.746   5.660
12788SOL    HW150018   4.102   2.692   5.689
12788SOL    HW250019   3.988   2.710   5.573
12789SOL     OW50020   6.902   1.577   5.941
12789SOL    HW150021   6.883   1.572   5.842
12789SOL    HW250022   6.993   1.618   5.955
12790SOL     OW50023   8.833   7.086   4.243
12790SOL    HW150024   8.920   7.078   4.196
12790SOL    HW250025   8.809   7.183   4.253
12791SOL     OW50026   2.093   5.092   4.331
12791SOL    HW150027   2.051   5.168   4.381
12791SOL    HW250028   2.125   5.124   4.242
12792SOL     OW50029   9.890   0.953   4.926
12792SOL    HW150030   9.820   0.940   4.997
12792SOL    HW250031   9.872   0.892   4.850
12793SOL     OW50032   2.391   0.329   5.444
12793SOL    HW150033   2.387   0.307   5.542
12793SOL    HW250034   2.393   0.244   5.392
12794SOL     OW50035   2.804   8.826   6.791
12794SOL    HW150036   2.729   8.771   6.827
12794SOL    HW250037   2.891   8.778   6.805
12795SOL     OW50038   3.979   7.009   6.319
12795SOL    HW150039   4.025   7.034   6.405
12795SOL    HW250040   3.880   7.009   6.333
12796SOL     OW50041   9.250   4.887   2.722
12796SOL    HW150042   9.298   4.836   2.650
12796SOL    HW250043   9.310   4.897   2.802
12797SOL     OW50044   9.363   8.704   1.788
12797SOL    HW150045   9.349   8.605   1.795
12797SOL    HW250046   9.310   8.739   1.712
12798SOL     OW50047   7.305   0.216   5.139
12798SOL    HW150048   7.275   0.307   5.168
12798SOL    HW250049   7.333   0.163   5.218
12799SOL     OW50050   1.441   0.964   2.613
12799SOL    HW150051   1.436   0.911   2.529
12799SOL    HW250052   1.449   1.061   2.591
12800SOL     OW50053   3.131   5.931   2.974
12800SOL    HW150054   3.045   5.938   2.925
12800SOL    HW250055   3.196   5.878   2.920
12801SOL     OW50056   5.637   9.151   6.711
12801SOL    HW150057   5.689   9.106   6.638
12801SOL    HW250058   5.612   9.084   6.781
12802SOL     OW50059   0.882   5.149   5.250
12802SOL    HW150060   0.787   5.122   5.258
12802SOL    HW250061   0.935   5.075   5.209
12803SOL     OW50062   9.477   5.235   4.243
12803SOL    HW150063   9.393   5.192   4.276
12803SOL    HW250064   9.462   5.334   4.235
12804SOL     OW50065   9.769   3.026   4.901
12804SOL    HW150066   9.813   2.951   4.952
12804SOL    HW250067   9.706   3.074   4.961
12805SOL     OW50068   7.149   4.484   3.600
12805SOL    HW150069   7.098   4.456   3.518
12805SOL    HW250070   7.180   4.578   3.589
12806SOL     OW50071   6.548   4.278   2.562
12806SOL    HW150072   6.532   4.179   2.565
12806SOL    HW250073   6.635   4.296   2.517
12807SOL     OW50074   2.281   6.477   0.471
12807SOL    HW150075   2.255   6.423   0.391
12807SOL    HW250076   2.374   6.511   0.459
12808SOL     OW50077   9.851   2.247   5.543
12808SOL    HW150078   9.881   2.330   5.589
12808SOL    HW250079   9.924   2.213   5.483
12809SOL     OW50080   4.113   8.219   1.773
12809SOL    HW150081   4.056   8.252   1.849
12809SOL    HW250082   4.124   8.120   1.780
12810SOL     OW50083   8.857   6.843   7.039
12810SOL    HW150084   8.870   6.940   7.059
12810SOL    HW250085   8.802   6.801   7.112
12811SOL     OW50086   9.812   7.455   0.787
12811SOL    HW150087   9.747   7.407   0.845
12811SOL    HW250088   9.777   7.458   0.693
12812SOL     OW50089   8.232   3.072   7.815
12812SOL    HW150090   8.177   3.088   7.898
12812SOL    HW250091   8.231   3.154   7.758
12813SOL     OW50092   7.040   1.470   5.253
12813SOL    HW150093   6.958   1.523   5.231
12813SOL    HW250094   7.015   1.376   5.275
12814SOL     OW50095   4.809   1.502   1.049
12814SOL    HW150096   4.836   1.559   1.127
12814SOL    HW250097   4.865   1.525   0.970
12815SOL     OW50098   9.941   1.859   5.403
12815SOL    HW150099   9.884   1.850   5.485
12815SOL    HW250100   9.888   1.905   5.331
12816SOL     OW50101   4.126   8.495   0.254
12816SOL    HW150102   4.120   8.592   0.231
12816SOL    HW250103   4.048   8.446   0.216
12817SOL     OW50104   6.587   2.283   3.213
12817SOL    HW150105   6.602   2.308   3.309
12817SOL    HW250106   6.524   2.349   3.171
12818SOL     OW50107   1.650   9.481   3.706
12818SOL    HW150108   1.596   9.480   3.790
12818SOL    HW250109   1.639   9.570   3.661
12819SOL     OW50110   6.935   8.093   3.177
12819SOL    HW150111   6.843   8.066   3.204
12819SOL    HW250112   6.988   8.013   3.150
12820SOL     OW50113   3.250   5.198   4.384
12820SOL    HW150114   3.335   5.229   4.426
12820SOL    HW250115   3.197   5.146   4.451
12821SOL     OW50116   2.344   5.248   2.461
12821SOL    HW150117   2.327   5.151   2.447
12821SOL    HW250118   2.355   5.293   2.373
12822SOL     OW50119   9.656   8.160   4.475
12822SOL    HW150120   9.716   8.082   4.494
12822SOL    HW250121   9.670   8.190   4.381
12823SOL     OW50122   7.228   5.641   1.212
12823SOL    HW150123   7.225   5.544   1.185
12823SOL    HW250124   7.321   5.676   1.200
12824SOL     OW50125   0.237   1.108   4.538
12824SOL    HW150126   0.308   1.175   4.564
12824SOL    HW250127   0.158   1.157   4.500
12825SOL     OW50128   3.921   3.320   2.899
12825SOL    HW150129   3.904   3.222   2.883
12825SOL    HW250130   4.016   3.333   2.928
12826SOL     OW50131   2.472   3.679   3.540
12826SOL    HW150132   2.572   3.675   3.537
12826SOL    HW250133   2.442   3.727   3.622
12827SOL     OW50134   9.814   9.335   2.175
12827SOL    HW150135   9.720   9.354   2.148
12827SOL    HW250136   9.831   9.370   2.267
12828SOL     OW50137   2.539   9.936   6.059
12828SOL    HW150138   2.492   9.969   5.976
12828SOL    HW250139   2.608   9.869   6.033
12829SOL     OW50140   0.571   6.723   2.935
12829SOL    HW150141   0.564   6.796   3.003
12829SOL    HW250142   0.524   6.641   2.969
12830SOL     OW50143   2.922   7.032   7.846
12830SOL    HW150144   3.012   7.028   7.803
12830SOL    HW250145   2.875   6.945   7.832
12831SOL     OW50146   0.394   8.490   5.073
12831SOL    HW150147   0.461   8.506   5.001
12831SOL    HW250148   0.433   8.430   5.143
12832SOL     OW50149   3.780   3.312   5.974
12832SOL    HW150150   3.845   3.276   5.908
12832SOL    HW250151   3.819   3.306   6.066
12833SOL     OW50152   3.459   4.554   1.608
12833SOL    HW150153   3.476   4.610   1.526
12833SOL    HW250154   3.395   4.481   1.586
12834SOL     OW50155   4.038   4.594   5.280
12834SOL    HW150156   3.943   4.609   5.308
12834SOL    HW250157   4.049   4.619   5.184
12835SOL     OW50158   7.863   5.229   1.143
12835SOL    HW150159   7.905   5.144   1.113
12835SOL    HW250160   7.774   5.210   1.183
12836SOL     OW50161   5.626   2.279   0.878
12836SOL    HW150162   5.725   2.263   0.882
12836SOL    HW250163   5.599   2.295   0.783
12837SOL     OW50164   3.874   7.128   5.340
12837SOL    HW150165   3.914   7.220   5.345
12837SOL    HW250166   3.909   7.081   5.260
12838SOL     OW50167   1.412   4.147   2.920
12838SOL    HW150168   1.368   4.120   2.834
12838SOL    HW250169   1.345   4.195   2.978
12839SOL     OW50170   1.463   1.202   6.576
12839SOL    HW150171   1.453   1.289   6.625
12839SOL    HW250172   1.557   1.194   6.542
12840SOL     OW50173   7.980   7.958   4.877
12840SOL    HW150174   7.972   7.987   4.781
12840SOL    HW250175   7.904   7.897   4.900
12841SOL     OW50176   7.554   9.870   2.288
12841SOL    HW150177   7.639   9.877   2.340
12841SOL    HW250178   7.574   9.837   2.196
12842SOL     OW50179   3.994   3.264   1.784
12842SOL    HW150180   4.017   3.331   1.714
12842SOL    HW250181   3.979   3.175   1.742
12843SOL     OW50182   7.070   2.574   5.247
12843SOL    HW150183   6.973   2.575   5.269
12843SOL    HW250184   7.123   2.584   5.332
12844SOL     OW50185   1.374   9.041   3.210
12844SOL    HW150186   1.373   9.136   3.241
12844SOL    HW250187   1.289   8.996   3.238
12845SOL     OW50188   3.360   6.612   1.654
12845SOL    HW150189   3.398   6.703   1.669
12845SOL    HW250190   3.261   6.614   1.669
12846SOL     OW50191   9.921   5.671   4.120
12846SOL    HW150192   9.938   5.714   4.031
12846SOL    HW250193   9.925   5.571   4.111
12847SOL     OW50194   9.927   5.439   7.850
12847SOL    HW150195   9.854   5.496   7.887
12847SOL    HW250196   0.014   5.488   7.857
12848SOL     OW50197   5.683   3.070   2.405
12848SOL    HW150198   5.766   3.085   2.352
12848SOL    HW250199   5.676   3.139   2.477
12849SOL     OW50200   9.589   9.311   1.401
12849SOL    HW150201   9.663   9.265   1.351
12849SOL    HW250202   9.621   9.334   1.493
12850SOL     OW50203   9.828   5.499   5.987
12850SOL    HW150204   9.852   5.556   5.908
12850SOL    HW250205   9.837   5.554   6.071
12851SOL     OW50206   2.166   9.428   2.404
12851SOL    HW150207   2.156   9.361   2.331
12851SOL    HW250208   2.078   9.440   2.449
12852SOL     OW50209   3.073   1.043   4.676
12852SOL    HW150210   3.036   1.011   4.764
12852SOL    HW250211   3.138   0.975   4.641
12853SOL     OW50212   8.241   3.028   0.150
12853SOL    HW150213   8.160   3.002   0.203
12853SOL    HW250214   8.222   3.113   0.100
12854SOL     OW50215   6.821   9.681   3.492
12854SOL    HW150216   6.768   9.708   3.573
12854SOL    HW250217   6.824   9.758   3.428
12855SOL     OW50218   4.083   0.931   7.459
12855SOL    HW150219   3.991   0.935   7.419
12855SOL    HW250220   4.149   0.968   7.394
12856SOL     OW50221   1.077   5.635   2.558
12856SOL    HW150222   1.035   5.574   2.626
12856SOL    HW250223   1.022   5.634   2.474
12857SOL     OW50224   8.850   7.232   5.769
12857SOL    HW150225   8.762   7.250   5.724
12857SOL    HW250226   8.921   7.219   5.700
12858SOL     OW50227   3.293   1.665   7.194
12858SOL    HW150228   3.355   1.630   7.265
12858SOL    HW250229   3.258   1.588   7.140
12859SOL     OW50230   5.907   0.566   2.371
12859SOL    HW150231   5.934   0.470   2.381
12859SOL    HW250232   5.868   0.582   2.280
12860SOL     OW50233   1.936   8.992   6.566
12860SOL    HW150234   1.985   9.021   6.648
12860SOL    HW250235   1.958   9.053   6.490
12861SOL     OW50236   9.201   1.142   1.944
12861SOL    HW150237   9.231   1.068   1.883
12861SOL    HW250238   9.211   1.229   1.897
12862SOL     OW50239   9.915   2.111   3.977
12862SOL    HW150240   9.852   2.179   3.940
12862SOL    HW250241   9.929   2.127   4.075
12863SOL     OW50242   1.377   3.401   0.765
12863SOL    HW150243   1.445   3.340   0.724
12863SOL    HW250244   1.318   3.350   0.826
12864SOL     OW50245   1.682   7.900   1.660
12864SOL    HW150246   1.648   7.886   1.566
12864SOL    HW250247   1.782   7.902   1.659
12865SOL     OW50248   1.852   3.011   6.877
12865SOL    HW150249   1.924   2.943   6.889
12865SOL    HW250250   1.863   3.085   6.944
12866SOL     OW50251   1.123   7.782   0.635
12866SOL    HW150252   1.074   7.869   0.633
12866SOL    HW250253   1.137   7.749   0.542
12867SOL     OW50254   2.664   1.766   2.204
12867SOL    HW150255   2.726   1.845   2.197
12867SOL    HW250256   2.582   1.793   2.254
12868SOL     OW50257   8.546   9.979   1.267
12868SOL    HW150258   8.566   9.886   1.234
12868SOL    HW250259   8.450   9.999   1.251
12869SOL     OW50260   7.249   6.321   1.195
12869SOL    HW150261   7.180   6.273   1.250
12869SOL    HW250262   7.337   6.319   1.244
12870SOL     OW50263   4.480   0.855   3.828
12870SOL    HW150264   4.437   0.815   3.908
12870SOL    HW250265   4.566   0.807   3.808
12871SOL     OW50266   9.620   6.636   6.220
12871SOL    HW150267   9.653   6.624   6.127
12871SOL    HW250268   9.565   6.720   6.225
12872SOL     OW50269   3.753   5.933   0.644
12872SOL    HW150270   3.666   5.884   0.649
12872SOL    HW250271   3.824   5.879   0.689
12873SOL     OW50272   5.062   0.366   7.680
12873SOL    HW150273   4.984   0.313   7.715
12873SOL    HW250274   5.078   0.341   7.584
12874SOL     OW50275   3.699   1.245   4.291
12874SOL    HW150276   3.702   1.275   4.196
12874SOL    HW250277   3.651   1.312   4.346
12875SOL     OW50278   3.236   3.459   5.847
12875SOL    HW150279   3.324   3.472   5.801
12875SOL    HW250280   3.236   3.371   5.895
12876SOL     OW50281   7.719   2.779   0.715
12876SOL    HW150282   7.630   2.733   0.712
12876SOL    HW250283   7.707   2.876   0.692
12877SOL     OW50284   7.062   4.880   6.930
12877SOL    HW150285   6.989   4.930   6.884
12877SOL    HW250286   7.063   4.904   7.027
12878SOL     OW50287   1.904   3.241   2.773
12878SOL    HW150288   1.836   3.170   2.755
12878SOL    HW250289   1.860   3.331   2.773
12879SOL     OW50290   1.873   7.005   5.054
12879SOL    HW150291   1.860   6.919   5.005
12879SOL    HW250292   1.878   6.988   5.152
12880SOL     OW50293   7.731   0.099   6.866
12880SOL    HW150294   7.748   0.071   6.771
12880SOL    HW250295   7.703   0.019   6.919
12881SOL     OW50296   4.711   2.628   4.641
12881SOL    HW150297   4.669   2.570   4.711
12881SOL    HW250298   4.662   2.715   4.637
12882SOL     OW50299   6.187   8.596   1.863
12882SOL    HW150300   6.214   8.512   1.910
12882SOL    HW250301   6.132   8.574   1.782
12883SOL     OW50302   6.613   3.265   2.708
12883SOL    HW150303   6.584   3.233   2.798
12883SOL    HW250304   6.622   3.186   2.646
12884SOL     OW50305   9.001   5.412   6.881
12884SOL    HW150306   9.091   5.404   6.838
12884SOL    HW250307   8.934   5.442   6.812
12885SOL     OW50308   8.426   2.430   3.056
12885SOL    HW150309   8.369   2.373   2.997
12885SOL    HW250310   8.442   2.383   3.143
12886SOL     OW50311   6.720   2.365   1.045
12886SOL    HW150312   6.788   2.435   1.029
12886SOL    HW250313   6.639   2.406   1.087
12887SOL     OW50314   1.105   8.563   6.557
12887SOL    HW150315   1.030   8.621   6.588
12887SOL    HW250316   1.173   8.554   6.630
12888SOL     OW50317   0.024   1.673   6.651
12888SOL    HW150318   0.025   1.593   6.591
12888SOL    HW250319   9.979   1.749   6.605
12889SOL     OW50320   8.306   3.883   1.435
12889SOL    HW150321   8.380   3.901   1.499
12889SOL    HW250322   8.238   3.956   1.441
12890SOL     OW50323   0.496   5.691   4.830
12890SOL    HW150324   0.456   5.599   4.837
12890SOL    HW250325   0.595   5.684   4.832
12891SOL     OW50326   0.545   3.409   3.605
12891SOL    HW150327   0.551   3.494   3.553
12891SOL    HW250328   0.606   3.414   3.684
12892SOL     OW50329   9.143   3.827   2.161
12892SOL    HW150330   9.172   3.785   2.247
12892SOL    HW250331   9.203   3.797   2.087
12893SOL     OW50332   9.591   0.837   7.090
12893SOL    HW150333   9.556   0.747   7.064
12893SOL    HW250334   9.561   0.859   7.182
12894SOL     OW50335   4.076   0.811   5.107
12894SOL    HW150336   3.978   0.828   5.095
12894SOL    HW250337   4.090   0.745   5.182
12895SOL     OW50338   3.281   8.571   4.956
12895SOL    HW150339   3.192   8.587   4.914
12895SOL    HW250340   3.353   8.610   4.897
12896SOL     OW50341   8.231   9.264   1.963
12896SOL    HW150342   8.294   9.335   1.995
12896SOL    HW250343   8.197   9.211   2.041
12897SOL     OW50344   7.522   8.932   7.798
12897SOL    HW150345   7.598   8.996   7.804
12897SOL    HW250346   7.455   8.965   7.731
12898SOL     OW50347   3.030   3.366   2.565
12898SOL    HW150348   3.011   3.339   2.470
12898SOL    HW250349   2.967   3.439   2.592
12899SOL     OW50350   1.413   5.481   3.171
12899SOL    HW150351   1.406   5.576   3.140
12899SOL    HW250352   1.438   5.480   3.268
12900SOL     OW50353   4.364   0.701   7.734
12900SOL    HW150354   4.282   0.691   7.678
12900SOL    HW250355   4.397   0.611   7.762
12901SOL     OW50356   7.594   0.668   3.216
12901SOL    HW150357   7.570   0.641   3.122
12901SOL    HW250358   7.651   0.597   3.257
12902SOL     OW50359   7.763   1.712   2.833
12902SOL    HW150360   7.800   1.671   2.750
12902SOL    HW250361   7.764   1.644   2.906
12903SOL     OW50362   1.000   9.846   2.117
12903SOL    HW150363   0.970   9.754   2.091
12903SOL    HW250364   0.987   9.909   2.040
12904SOL     OW50365   4.431   9.884   0.396
12904SOL    HW150366   4.522   9.842   0.393
12904SOL    HW250367   4.362   9.816   0.370
12905SOL     OW50368   9.726   7.073   1.790
12905SOL    HW150369   9.744   7.149   1.727
12905SOL    HW250370   9.797   7.073   1.861
12906SOL     OW50371   1.042   4.086   4.922
12906SOL    HW150372   1.029   4.077   5.021
12906SOL    HW250373   0.979   4.154   4.886
12907SOL     OW50374   6.562   2.053   2.025
12907SOL    HW150375   6.529   2.038   1.932
12907SOL    HW250376   6.632   1.985   2.047
12908SOL     OW50377   1.809   6.275   7.217
12908SOL    HW150378   1.830   6.178   7.203
12908SOL    HW250379   1.721   6.297   7.174
12909SOL     OW50380   4.429   0.756   0.164
12909SOL    HW150381   4.335   0.783   0.186
12909SOL    HW250382   4.427   0.674   0.107
12910SOL     OW50383   9.709   1.713   6.333
12910SOL    HW150384   9.729   1.700   6.235
12910SOL    HW250385   9.722   1.626   6.380
12911SOL     OW50386   8.277   1.625   5.250
12911SOL    HW150387   8.368   1.597   5.281
12911SOL    HW250388   8.271   1.613   5.151
12912SOL     OW50389   4.740   5.718   3.829
12912SOL    HW150390   4.816   5.682   3.775
12912SOL    HW250391   4.771   5.732   3.923
12913SOL     OW50392   3.297   2.011   0.267
12913SOL    HW150393   3.200   2.030   0.280
12913SOL    HW250394   3.329   1.951   0.340
12914SOL     OW50395   8.493   3.348   0.408
12914SOL    HW150396   8.528   3.337   0.316
12914SOL    HW250397   8.482   3.258   0.451
12915SOL     OW50398   2.015   0.517   6.437
12915SOL    HW150399   2.075   0.502   6.516
12915SOL    HW250400   2.038   0.604   6.394
12916SOL     OW50401   6.863   7.071   5.337
12916SOL    HW150402   6.912   7.008   5.277
12916SOL    HW250403   6.851   7.159   5.291
12917SOL     OW50404   5.550   3.684   1.333
12917SOL    HW150405   5.561   3.591   1.298
12917SOL    HW250406   5.528   3.680   1.431
12918SOL     OW50407   2.933   2.073   6.472
12918SOL    HW150408   2.898   2.142   6.536
12918SOL    HW250409   2.868   2.061   6.397
12919SOL     OW50410   6.639   8.525   5.202
12919SOL    HW150411   6.596   8.461   5.265
12919SOL    HW250412   6.661   8.610   5.249
12920SOL     OW50413   1.321   0.708   7.112
12920SOL    HW150414   1.280   0.678   7.026
12920SOL    HW250415   1.289   0.800   7.134
12921SOL     OW50416   4.251   0.800   1.852
12921SOL    HW150417   4.347   0.790   1.879
12921SOL    HW250418   4.217   0.712   1.818
12922SOL     OW50419   6.422   1.252   3.726
12922SOL    HW150420   6.365   1.181   3.767
12922SOL    HW250421   6.506   1.211   3.690
12923SOL     OW50422   3.613   9.018   2.516
12923SOL    HW150423   3.536   8.964   2.481
12923SOL    HW250424   3.579   9.106   2.551
12924SOL     OW50425   8.261   1.976   0.786
12924SOL    HW150426   8.243   1.897   0.844
12924SOL    HW250427   8.219   2.057   0.826
12925SOL     OW50428   2.682   4.500   1.393
12925SOL    HW150429   2.711   4.574   1.332
12925SOL    HW250430   2.757   4.434   1.403
12926SOL     OW50431   5.281   9.897   4.984
12926SOL    HW150432   5.325   9.819   4.937
12926SOL    HW250433   5.325   9.911   5.072
12927SOL     OW50434   1.702   6.760   1.940
12927SOL    HW150435   1.631   6.812   1.987
12927SOL    HW250436   1.716   6.673   1.986
12928SOL     OW50437   8.427   9.820   3.270
12928SOL    HW150438   8.423   9.852   3.175
12928SOL    HW250439   8.431   9.898   3.331
12929SOL     OW50440   3.759   0.537   3.785
12929SOL    HW150441   3.732   0.443   3.764
12929SOL    HW250442   3.735   0.558   3.880
12930SOL     OW50443   3.321   6.850   3.660
12930SOL    HW150444   3.269   6.910   3.722
12930SOL    HW250445   3.271   6.841   3.574
12931SOL     OW50446   7.989   0.368   7.565
12931SOL    HW150447   7.947   0.300   7.505
12931SOL    HW250448   7.994   0.332   7.658
12932SOL     OW50449   0.286   5.716   1.981
12932SOL    HW150450   0.382   5.736   1.960
12932SOL    HW250451   0.279   5.686   2.076
12933SOL     OW50452   4.237   7.962   6.061
12933SOL    HW150453   4.277   7.981   5.972
12933SOL    HW250454   4.178   7.881   6.054
12934SOL     OW50455   5.926   8.006   3.133
12934SOL    HW150456   5.996   7.969   3.193
12934SOL    HW250457   5.960   8.089   3.089
12935SOL     OW50458   3.345   2.210   5.151
12935SOL    HW150459   3.263   2.165   5.114
12935SOL    HW250460   3.401   2.142   5.198
12936SOL     OW50461   7.867   8.357   1.561
12936SOL    HW150462   7.957   8.395   1.584
12936SOL    HW250463   7.878   8.290   1.487
12937SOL     OW50464   0.322   0.415   6.516
12937SOL    HW150465   0.405   0.420   6.572
12937SOL    HW250466   0.287   0.321   6.518
12938SOL     OW50467   7.268   1.976   1.890
12938SOL    HW150468   7.210   2.025   1.825
12938SOL    HW250469   7.249   1.878   1.884
12939SOL     OW50470   4.017   4.941   4.276
12939SOL    HW150471   4.031   4.927   4.374
12939SOL    HW250472   3.950   4.874   4.242
12940SOL     OW50473   9.473   6.965   7.790
12940SOL    HW150474   9.513   7.029   7.856
12940SOL    HW250475   9.530   6.883   7.784
12941SOL     OW50476   7.289   0.841   2.350
12941SOL    HW150477   7.277   0.873   2.255
12941SOL    HW250478   7.216   0.777   2.373
12942SOL     OW50479   3.013   1.916   0.859
12942SOL    HW150480   2.982   1.820   0.859
12942SOL    HW250481   3.035   1.944   0.952
12943SOL     OW50482   8.007   7.879   7.191
12943SOL    HW150483   7.979   7.887   7.286
12943SOL    HW250484   8.056   7.962   7.164
12944SOL     OW50485   4.359   9.795   2.738
12944SOL    HW150486   4.411   9.879   2.723
12944SOL    HW250487   4.313   9.800   2.827
12945SOL     OW50488   0.296   1.885   0.252
12945SOL    HW150489   0.356   1.827   0.196
12945SOL    HW250490   0.202   1.877   0.218
12946SOL     OW50491   1.236   0.364   1.999
12946SOL    HW150492   1.290   0.348   2.082
12946SOL    HW250493   1.216   0.462   1.990
12947SOL     OW50494   3.739   0.066   7.504
12947SOL    HW150495   3.639   0.071   7.510
12947SOL    HW250496   3.778   0.067   7.596
12948SOL     OW50497   4.937   0.041   2.989
12948SOL    HW150498   4.901   0.112   3.050
12948SOL    HW250499   4.861   9.984   2.957
12949SOL     OW50500   0.936   1.218   3.138
12949SOL    HW150501   1.028   1.225   3.177
12949SOL    HW250502   0.868   1.238   3.209
12950SOL     OW50503   5.060   7.072   3.272
12950SOL    HW150504   5.063   7.067   3.371
12950SOL    HW250505   4.976   7.118   3.243
12951SOL     OW50506   3.729   2.426   1.885
12951SOL    HW150507   3.684   2.391   1.967
12951SOL    HW250508   3.663   2.431   1.810
12952SOL     OW50509   4.884   8.599   1.589
12952SOL    HW150510   4.859   8.535   1.517
12952SOL    HW250511   4.919   8.549   1.668
12953SOL     OW50512   3.656   6.463   6.677
12953SOL    HW150513   3.750   6.495   6.667
12953SOL    HW250514   3.607   6.521   6.742
12954SOL     OW50515   5.587   4.444   0.837
12954SOL    HW150516   5.495   4.410   0.818
12954SOL    HW250517   5.582   4.541   0.861
12955SOL     OW50518   8.666   4.446   5.695
12955SOL    HW150519   8.693   4.351   5.684
12955SOL    HW250520   8.627   4.460   5.786
12956SOL     OW50521   4.222   7.158   1.864
12956SOL    HW150522   4.259   7.075   1.823
12956SOL    HW250523   4.267   7.238   1.824
12957SOL     OW50524   8.269   1.346   6.116
12957SOL    HW150525   8.345   1.282   6.125
12957SOL    HW250526   8.295   1.435   6.152
12958SOL     OW50527   6.091   0.498   5.579
12958SOL    HW150528   6.158   0.571   5.588
12958SOL    HW250529   6.107   0.449   5.493
12959SOL     OW50530   8.514   2.242   6.100
12959SOL    HW150531   8.483   2.240   6.005
12959SOL    HW250532   8.446   2.196   6.158
12960SOL     OW50533   9.236   8.402   5.568
12960SOL    HW150534   9.181   8.327   5.531
12960SOL    HW250535   9.331   8.391   5.539
12961SOL     OW50536   0.050   0.959   4.209
12961SOL    HW150537   0.106   0.876   4.201
12961SOL    HW250538   0.089   1.019   4.279
12962SOL     OW50539   7.504   8.326   6.738
12962SOL    HW150540   7.420   8.375   6.761
12962SOL    HW250541   7.547   8.292   6.822
12963SOL     OW50542   3.129   6.176   2.372
12963SOL    HW150543   3.184   6.224   2.303
12963SOL    HW250544   3.078   6.102   2.329
12964SOL     OW50545   9.088   7.766   6.042
12964SOL    HW150546   9.171   7.744   5.990
12964SOL    HW250547   9.009   7.721   5.999
12965SOL     OW50548   8.375   2.793   7.444
12965SOL    HW150549   8.463   2.785   7.492
12965SOL    HW250550   8.304   2.822   7.509
12966SOL     OW50551   7.974   0.513   7.854
12966SOL    HW150552   8.066   0.551   7.852
12966SOL    HW250553   7.979   0.413   7.856
12967SOL     OW50554   4.744   8.635   7.790
12967SOL    HW150555   4.688   8.566   7.745
12967SOL    HW250556   4.840   8.621   7.766
12968SOL     OW50557   5.268   2.575   7.354
12968SOL    HW150558   5.246   2.481   7.381
12968SOL    HW250559   5.203   2.638   7.396
12969SOL     OW50560   2.125   4.569   6.753
12969SOL    HW150561   2.070   4.612   6.825
12969SOL    HW250562   2.221   4.594   6.765
12970SOL     OW50563   8.740   7.546   4.470
12970SOL    HW150564   8.664   7.597   4.429
12970SOL    HW250565   8.713   7.516   4.562
12971SOL     OW50566   5.236   9.966   2.036
12971SOL    HW150567   5.204   9.972   2.131
12971SOL    HW250568   5.307   9.897   2.029
12972SOL     OW50569   5.758   8.758   5.382
12972SOL    HW150570   5.737   8.840   5.435
12972SOL    HW250571   5.840   8.774   5.326
12973SOL     OW50572   0.938   8.166   6.701
12973SOL    HW150573   0.937   8.083   6.645
12973SOL    HW250574   0.866   8.161   6.770
12974SOL     OW50575   4.550   0.849   4.848
12974SOL    HW150576   4.572   0.800   4.763
12974SOL    HW250577   4.475   0.913   4.830
12975SOL     OW50578   0.494   8.988   4.916
12975SOL    HW150579   0.443   8.919   4.865
12975SOL    HW250580   0.553   8.943   4.983
12976SOL     OW50581   9.067   1.507   4.977
12976SOL    HW150582   9.013   1.427   5.003
12976SOL    HW250583   9.140   1.521   5.043
12977SOL     OW50584   2.155   8.510   4.371
12977SOL    HW150585   2.213   8.482   4.295
12977SOL    HW250586   2.070   8.457   4.370
12978SOL     OW50587   7.767   1.451   6.101
12978SOL    HW150588   7.827   1.391   6.155
12978SOL    HW250589   7.672   1.422   6.113
12979SOL     OW50590   6.071   5.488   1.542
12979SOL    HW150591   6.163   5.475   1.578
12979SOL    HW250592   6.049   5.586   1.539
12980SOL     OW50593   2.101   5.708   1.012
12980SOL    HW150594   2.067   5.743   1.100
12980SOL    HW250595   2.189   5.664   1.026
12981SOL     OW50596   8.831   5.995   2.562
12981SOL    HW150597   8.764   5.923   2.578
12981SOL    HW250598   8.901   5.962   2.498
12982SOL     OW50599   1.096   4.887   5.861
12982SOL    HW150600   1.150   4.875   5.944
12982SOL    HW250601   0.999   4.878   5.884
12983SOL     OW50602   1.630   0.526   2.402
12983SOL    HW150603   1.631   0.586   2.482
12983SOL    HW250604   1.713   0.472   2.399
12984SOL     OW50605   4.665   5.304   2.662
12984SOL    HW150606   4.686   5.387   2.714
12984SOL    HW250607   4.571   5.275   2.682
12985SOL     OW50608   1.426   4.341   4.988
12985SOL    HW150609   1.491   4.394   4.934
12985SOL    HW250610   1.475   4.274   5.043
12986SOL     OW50611   6.973   9.226   5.415
12986SOL    HW150612   7.005   9.247   5.323
12986SOL    HW250613   6.875   9.204   5.412
12987SOL     OW50614   4.487   8.286   4.793
12987SOL    HW150615   4.501   8.281   4.694
12987SOL    HW250616   4.529   8.370   4.828
12988SOL     OW50617   9.042   5.785   0.404
12988SOL    HW150618   9.018   5.757   0.497
12988SOL    HW250619   9.134   5.754   0.382
12989SOL     OW50620   5.357   0.204   1.989
12989SOL    HW150621   5.308   0.118   2.006
12989SOL    HW250622   5.294   0.270   1.947
12990SOL     OW50623   3.486   1.958   5.620
12990SOL    HW150624   3.551   1.923   5.553
12990SOL    HW250625   3.515   2.049   5.651
12991SOL     OW50626   2.111   4.045   7.549
12991SOL    HW150627   2.089   3.957   7.593
12991SOL    HW250628   2.031   4.104   7.551
12992SOL     OW50629   1.794   6.620   3.190
12992SOL    HW150630   1.796   6.720   3.182
12992SOL    HW250631   1.699   6.589   3.187
12993SOL     OW50632   8.336   4.127   3.143
12993SOL    HW150633   8.361   4.221   3.167
12993SOL    HW250634   8.242   4.124   3.111
12994SOL     OW50635   6.849   8.369   4.632
12994SOL    HW150636   6.915   8.301   4.599
12994SOL    HW250637   6.896   8.441   4.682
12995SOL     OW50638   3.050   6.578   3.719
12995SOL    HW150639   3.001   6.615   3.640
12995SOL    HW250640   3.053   6.647   3.791
12996SOL     OW50641   9.821   5.651   6.225
12996SOL    HW150642   9.849   5.569   6.274
12996SOL    HW250643   9.869   5.730   6.262
12997SOL     OW50644   6.385   9.879   3.104
12997SOL    HW150645   6.288   9.896   3.088
12997SOL    HW250646   6.402   9.874   3.203
12998SOL     OW50647   3.074   0.869   5.301
12998SOL    HW150648   3.012   0.939   5.336
12998SOL    HW250649   3.057   0.857   5.203
12999SOL     OW50650   8.116   4.386   5.103
12999SOL    HW150651   8.079   4.460   5.047
12999SOL    HW250652   8.191   4.341   5.053
13000SOL     OW50653   0.456   9.796   7.073
13000SOL    HW150654   0.498   9.711   7.104
13000SOL    HW250655   0.520   9.845   7.014
13001SOL     OW50656   1.274   2.143   4.997
13001SOL    HW150657   1.225   2.208   5.056
13001SOL    HW250658   1.348   2.101   5.049
13002SOL     OW50659   9.779   8.470   7.881
13002SOL    HW150660   9.757   8.551   7.826
13002SOL    HW250661   9.737   8.478   7.971
13003SOL     OW50662   1.931   6.539   5.269
13003SOL    HW150663   2.010   6.574   5.218
13003SOL    HW250664   1.906   6.606   5.339
13004SOL     OW50665   7.122   8.028   5.731
13004SOL    HW150666   7.023   8.037   5.720
13004SOL    HW250667   7.143   7.934   5.759
13005SOL     OW50668   1.991   4.715   6.449
13005SOL    HW150669   2.001   4.781   6.523
13005SOL    HW250670   2.063   4.646   6.456
13006SOL     OW50671   1.464   0.105   0.528
13006SOL    HW150672   1.529   0.143   0.595
13006SOL    HW250673   1.447   0.009   0.550
13007SOL     OW50674   4.740   9.807   1.308
13007SOL    HW150675   4.669   9.850   1.251
13007SOL    HW250676   4.746   9.710   1.285
13008SOL     OW50677   7.222   8.977   3.350
13008SOL    HW150678   7.229   8.878   3.340
13008SOL    HW250679   7.281   9.022   3.282
13009SOL     OW50680   4.088   8.758   0.194
13009SOL    HW150681   4.136   8.839   0.162
13009SOL    HW250682   3.996   8.783   0.226
13010SOL     OW50683   1.974   8.539   5.510
13010SOL    HW150684   2.002   8.464   5.569
13010SOL    HW250685   2.030   8.620   5.529
13011SOL     OW50686   0.816   3.251   2.267
13011SOL    HW150687   0.864   3.334   2.295
13011SOL    HW250688   0.808   3.189   2.346
13012SOL     OW50689   4.927   2.302   6.213
13012SOL    HW150690   4.926   2.207   6.182
13012SOL    HW250691   4.871   2.312   6.294
13013SOL     OW50692   5.569   3.510   7.805
13013SOL    HW150693   5.545   3.495   7.709
13013SOL    HW250694   5.654   3.561   7.811
13014SOL     OW50695   3.870   8.337   6.737
13014SOL    HW150696   3.925   8.267   6.691
13014SOL    HW250697   3.879   8.327   6.836
13015SOL     OW50698   2.732   7.312   5.173
13015SOL    HW150699   2.724   7.407   5.141
13015SOL    HW250700   2.644   7.279   5.205
13016SOL     OW50701   8.749   5.125   3.762
13016SOL    HW150702   8.700   5.054   3.711
13016SOL    HW250703   8.786   5.192   3.698
13017SOL     OW50704   0.269   8.151   2.879
13017SOL    HW150705   0.183   8.200   2.889
13017SOL    HW250706   0.272   8.075   2.944
13018SOL     OW50707   2.598   7.522   2.875
13018SOL    HW150708   2.652   7.505   2.792
13018SOL    HW250709   2.501   7.517   2.852
13019SOL     OW50710   9.917   0.034   7.446
13019SOL    HW150711   9.950   9.960   7.506
13019SOL    HW250712   9.822   0.055   7.469
13020SOL     OW50713   6.764   4.724   7.594
13020SOL    HW150714   6.787   4.656   7.525
13020SOL    HW250715   6.848   4.759   7.636
13021SOL     OW50716   6.481   3.539   1.743
13021SOL    HW150717   6.406   3.474   1.745
13021SOL    HW250718   6.541   3.523   1.821
13022SOL     OW50719   2.143   3.102   1.599
13022SOL    HW150720   2.220   3.060   1.551
13022SOL    HW250721   2.074   3.033   1.620
13023SOL     OW50722   9.960   4.265   7.051
13023SOL    HW150723  10.000   4.175   7.035
13023SOL    HW250724   9.960   4.285   7.149
13024SOL     OW50725   4.501   0.341   7.405
13024SOL    HW150726   4.599   0.360   7.406
13024SOL    HW250727   4.451   0.428   7.414
13025SOL     OW50728   2.471   7.650   3.394
13025SOL    HW150729   2.504   7.735   3.352
13025SOL    HW250730   2.533   7.622   3.467
13026SOL     OW50731   3.579   1.265   7.211
13026SOL    HW150732   3.620   1.355   7.230
13026SOL    HW250733   3.604   1.201   7.283
13027SOL     OW50734   9.998   7.324   3.428
13027SOL    HW150735   9.914   7.316   3.374
13027SOL    HW250736   9.999   7.254   3.499
13028SOL     OW50737   2.376   6.020   3.970
13028SOL    HW150738   2.376   5.972   4.057
13028SOL    HW250739   2.327   6.107   3.979
13029SOL     OW50740   8.094   3.526   5.630
13029SOL    HW150741   8.157   3.576   5.689
13029SOL    HW250742   8.030   3.589   5.587
13030SOL     OW50743   2.405   2.104   4.720
13030SOL    HW150744   2.356   2.114   4.633
13030SOL    HW250745   2.372   2.173   4.784
13031SOL     OW50746   2.549   5.467   7.375
13031SOL    HW150747   2.576   5.487   7.469
13031SOL    HW250748   2.512   5.374   7.369
13032SOL     OW50749   2.558   2.502   0.198
13032SOL    HW150750   2.513   2.451   0.271
13032SOL    HW250751   2.541   2.457   0.111
13033SOL     OW50752   3.284   7.541   4.285
13033SOL    HW150753   3.241   7.587   4.207
13033SOL    HW250754   3.354   7.601   4.324
13034SOL     OW50755   5.425   1.636   4.309
13034SOL    HW150756   5.356   1.677   4.250
13034SOL    HW250757   5.497   1.703   4.328
13035SOL     OW50758   1.920   7.868   7.168
13035SOL    HW150759   1.975   7.812   7.230
13035SOL    HW250760   1.823   7.853   7.188
13036SOL     OW50761   0.163   8.342   5.843
13036SOL    HW150762   0.064   8.333   5.832
13036SOL    HW250763   0.209   8.283   5.777
13037SOL     OW50764   7.980   8.787   4.654
13037SOL    HW150765   8.020   8.697   4.634
13037SOL    HW250766   7.956   8.792   4.751
13038SOL     OW50767   2.029   7.865   1.909
13038SOL    HW150768   2.007   7.890   1.815
13038SOL    HW250769   2.127   7.869   1.923
13039SOL     OW50770   0.101   8.778   4.811
13039SOL    HW150771   0.068   8.739   4.896
13039SOL    HW250772   0.201   8.775   4.808
13040SOL     OW50773   0.023   7.238   6.046
13040SOL    HW150774   0.011   7.218   5.948
13040SOL    HW250775   9.937   7.222   6.094
13041SOL     OW50776   4.813   8.929   3.797
13041SOL    HW150777   4.908   8.951   3.818
13041SOL    HW250778   4.755   9.006   3.821
13042SOL     OW50779   2.884   4.394   0.085
13042SOL    HW150780   2.949   4.361   0.153
13042SOL    HW250781   2.909   4.486   0.056
13043SOL     OW50782   2.889   1.402   0.360
13043SOL    HW150783   2.901   1.310   0.324
13043SOL    HW250784   2.798   1.410   0.402
13044SOL     OW50785   7.714   6.126   0.862
13044SOL    HW150786   7.653   6.148   0.786
13044SOL    HW250787   7.694   6.035   0.896
13045SOL     OW50788   2.601   5.852   0.613
13045SOL    HW150789   2.548   5.932   0.643
13045SOL    HW250790   2.544   5.770   0.621
13046SOL     OW50791   1.114   1.811   3.892
13046SOL    HW150792   1.178   1.799   3.816
13046SOL    HW250793   1.114   1.907   3.920
13047SOL     OW50794   9.915   4.259   4.566
13047SOL    HW150795   9.990   4.219   4.619
13047SOL    HW250796   9.949   4.284   4.476
13048SOL     OW50797   2.220   7.653   3.291
13048SOL    HW150798   2.315   7.654   3.324
13048SOL    HW250799   2.162   7.608   3.358
13049SOL     OW50800   3.381   8.206   7.460
13049SOL    HW150801   3.337   8.116   7.464
13049SOL    HW250802   3.475   8.198   7.494
13050SOL     OW50803   4.498   5.411   7.412
13050SOL    HW150804   4.588   5.454   7.405
13050SOL    HW250805   4.510   5.313   7.428
13051SOL     OW50806   9.207   6.010   0.107
13051SOL    HW150807   9.140   6.026   0.179
13051SOL    HW250808   9.254   6.095   0.085
13052SOL     OW50809   8.408   3.194   6.016
13052SOL    HW150810   8.438   3.253   6.090
13052SOL    HW250811   8.432   3.099   6.037
13053SOL     OW50812   0.985   5.810   5.353
13053SOL    HW150813   0.921   5.868   5.303
13053SOL    HW250814   1.034   5.865   5.420
13054SOL     OW50815   1.280   4.907   4.572
13054SOL    HW150816   1.314   4.886   4.481
13054SOL    HW250817   1.264   4.823   4.623
13055SOL     OW50818   0.724   2.310   7.890
13055SOL    HW150819   0.819   2.325   7.863
13055SOL    HW250820   0.690   2.389   7.941
13056SOL     OW50821   3.306   6.340   6.829
13056SOL    HW150822   3.292   6.351   6.730
13056SOL    HW250823   3.397   6.301   6.845
13057SOL     OW50824   9.980   8.852   5.439
13057SOL    HW150825   0.056   8.915   5.450
13057SOL    HW250826   9.935   8.837   5.527
13058SOL     OW50827   0.121   6.936   4.196
13058SOL    HW150828   0.050   6.982   4.143
13058SOL    HW250829   0.176   7.004   4.244
13059SOL     OW50830   1.935   7.106   6.617
13059SOL    HW150831   2.025   7.113   6.574
13059SOL    HW250832   1.864   7.126   6.549
13060SOL     OW50833   5.603   0.141   4.041
13060SOL    HW150834   5.550   0.059   4.062
13060SOL    HW250835   5.617   0.194   4.124
13061SOL     OW50836   6.529   1.494   1.419
13061SOL    HW150837   6.433   1.474   1.436
13061SOL    HW250838   6.580   1.409   1.408
13062SOL     OW50839   0.316   6.952   7.013
13062SOL    HW150840   0.330   6.980   7.108
13062SOL    HW250841   0.248   7.011   6.970
13063SOL     OW50842   0.493   2.083   6.098
13063SOL    HW150843   0.515   2.007   6.037
13063SOL    HW250844   0.577   2.128   6.128
13064SOL     OW50845   6.593   7.305   4.120
13064SOL    HW150846   6.604   7.258   4.207
13064SOL    HW250847   6.519   7.261   4.069
13065SOL     OW50848   9.515   3.096   0.824
13065SOL    HW150849   9.520   3.165   0.897
13065SOL    HW250850   9.591   3.031   0.833
13066SOL     OW50851   8.786   0.111   3.814
13066SOL    HW150852   8.869   0.056   3.829
13066SOL    HW250853   8.805   0.182   3.746
13067SOL     OW50854   7.622   6.299   7.097
13067SOL    HW150855   7.526   6.318   7.118
13067SOL    HW250856   7.675   6.383   7.106
13068SOL     OW50857   7.509   9.345   6.819
13068SOL    HW150858   7.490   9.433   6.776
13068SOL    HW250859   7.431   9.284   6.807
13069SOL     OW50860   0.198   2.235   6.767
13069SOL    HW150861   0.274   2.224   6.704
13069SOL    HW250862   0.131   2.162   6.752
13070SOL     OW50863   4.485   2.873   1.134
13070SOL    HW150864   4.443   2.845   1.047
13070SOL    HW250865   4.487   2.972   1.140
13071SOL     OW50866   0.529   1.588   6.831
13071SOL    HW150867   0.453   1.619   6.888
13071SOL    HW250868   0.494   1.525   6.761
13072SOL     OW50869   6.415   1.385   2.705
13072SOL    HW150870   6.476   1.331   2.763
13072SOL    HW250871   6.358   1.324   2.650
13073SOL     OW50872   5.997   9.191   4.982
13073SOL    HW150873   5.935   9.252   4.933
13073SOL    HW250874   6.017   9.111   4.925
13074SOL     OW50875   4.691   8.945   1.316
13074SOL    HW150876   4.716   8.989   1.403
13074SOL    HW250877   4.635   9.008   1.262
13075SOL     OW50878   3.331   1.227   0.374
13075SOL    HW150879   3.312   1.283   0.293
13075SOL    HW250880   3.427   1.236   0.399
13076SOL     OW50881   6.277   3.855   1.065
13076SOL    HW150882   6.326   3.808   1.139
13076SOL    HW250883   6.214   3.922   1.105
13077SOL     OW50884   4.682   6.247   3.820
13077SOL    HW150885   4.778   6.261   3.843
13077SOL    HW250886   4.625   6.310   3.874
13078SOL     OW50887   7.030   3.547   3.576
13078SOL    HW150888   7.025   3.498   3.663
13078SOL    HW250889   7.125   3.545   3.543
13079SOL     OW50890   8.170   2.569   5.020
13079SOL    HW150891   8.156   2.649   5.078
13079SOL    HW250892   8.264   2.538   5.028
13080SOL     OW50893   1.874   3.591   6.555
13080SOL    HW150894   1.856   3.514   6.615
13080SOL    HW250895   1.805   3.593   6.482
13081SOL     OW50896   7.476   5.853   3.915
13081SOL    HW150897   7.531   5.907   3.979
13081SOL    HW250898   7.485   5.756   3.936
13082SOL     OW50899   9.010   5.154   0.963
13082SOL    HW150900   9.093   5.122   0.919
13082SOL    HW250901   8.930   5.127   0.909
13083SOL     OW50902   0.230   9.651   7.815
13083SOL    HW150903   0.266   9.611   7.730
13083SOL    HW250904   0.142   9.609   7.836
13084SOL     OW50905   1.562   7.604   5.854
13084SOL    HW150906   1.571   7.654   5.768
13084SOL    HW250907   1.561   7.506   5.837
13085SOL     OW50908   9.460   5.509   0.456
13085SOL    HW150909   9.423   5.473   0.541
13085SOL    HW250910   9.443   5.444   0.382
13086SOL     OW50911   0.546   4.312   5.997
13086SOL    HW150912   0.635   4.324   6.041
13086SOL    HW250913   0.559   4.278   5.904
13087SOL     OW50914   9.855   0.420   6.455
13087SOL    HW150915   9.815   0.332   6.426
13087SOL    HW250916   9.781   0.481   6.485
13088SOL     OW50917   3.708   1.344   3.464
13088SOL    HW150918   3.723   1.261   3.411
13088SOL    HW250919   3.617   1.342   3.506
13089SOL     OW50920   7.430   4.280   2.801
13089SOL    HW150921   7.529   4.282   2.815
13089SOL    HW250922   7.385   4.331   2.874
13090SOL     OW50923   2.161   9.839   7.478
13090SOL    HW150924   2.182   9.895   7.397
13090SOL    HW250925   2.070   9.799   7.468
13091SOL     OW50926   4.024   1.416   0.208
13091SOL    HW150927   4.002   1.319   0.198
13091SOL    HW250928   3.944   1.465   0.241
13092SOL     OW50929   9.014   0.050   1.190
13092SOL    HW150930   8.948   0.058   1.265
13092SOL    HW250931   9.100   0.013   1.225
13093SOL     OW50932   8.579   2.680   3.949
13093SOL    HW150933   8.599   2.774   3.977
13093SOL    HW250934   8.483   2.673   3.923
13094SOL     OW50935   2.236   2.735   6.240
13094SOL    HW150936   2.305   2.691   6.182
13094SOL    HW250937   2.232   2.688   6.328
13095SOL     OW50938   2.753   0.213   4.244
13095SOL    HW150939   2.757   0.273   4.323
13095SOL    HW250940   2.787   0.262   4.163
13096SOL     OW50941   5.604   9.344   7.099
13096SOL    HW150942   5.611   9.408   7.176
13096SOL    HW250943   5.696   9.325   7.064
13097SOL     OW50944   6.081   8.950   5.675
13097SOL    HW150945   6.161   8.970   5.731
13097SOL    HW250946   6.050   8.856   5.695
13098SOL     OW50947   4.503   7.559   0.175
13098SOL    HW150948   4.424   7.591   0.123
13098SOL    HW250949   4.497   7.594   0.269
13099SOL     OW50950   9.857   8.510   1.213
13099SOL    HW150951   9.867   8.415   1.241
13099SOL    HW250952   9.845   8.568   1.293
13100SOL     OW50953   5.052   0.407   6.540
13100SOL    HW150954   5.130   0.439   6.486
13100SOL    HW250955   5.069   0.314   6.572
13101SOL     OW50956   6.500   6.047   1.435
13101SOL    HW150957   6.515   6.107   1.514
13101SOL    HW250958   6.520   6.098   1.351
13102SOL     OW50959   8.528   7.777   6.608
13102SOL    HW150960   8.569   7.837   6.677
13102SOL    HW250961   8.430   7.767   6.626
13103SOL     OW50962   7.366   3.176   2.958
13103SOL    HW150963   7.380   3.102   2.892
13103SOL    HW250964   7.440   3.173   3.026
13104SOL     OW50965   2.332   5.021   1.376
13104SOL    HW150966   2.240   5.008   1.413
13104SOL    HW250967   2.338   4.979   1.286
13105SOL     OW50968   7.125   2.490   4.393
13105SOL    HW150969   7.185   2.548   4.447
13105SOL    HW250970   7.051   2.455   4.451
13106SOL     OW50971   0.365   6.833   4.524
13106SOL    HW150972   0.409   6.764   4.582
13106SOL    HW250973   0.389   6.817   4.428
13107SOL     OW50974   4.891   8.271   5.252
13107SOL    HW150975   4.983   8.258   5.214
13107SOL    HW250976   4.896   8.279   5.351
13108SOL     OW50977   4.659   7.824   6.077
13108SOL    HW150978   4.686   7.833   5.982
13108SOL    HW250979   4.735   7.852   6.136
13109SOL     OW50980   5.170   0.628   2.470
13109SOL    HW150981   5.169   0.585   2.560
13109SOL    HW250982   5.081   0.616   2.426
13110SOL     OW50983   0.203   3.843   2.807
13110SOL    HW150984   0.227   3.897   2.727
13110SOL    HW250985   0.107   3.855   2.829
13111SOL     OW50986   9.905   4.962   1.717
13111SOL    HW150987   9.855   4.907   1.650
13111SOL    HW250988   9.851   5.043   1.740
13112SOL     OW50989   9.684   7.729   1.130
13112SOL    HW150990   9.626   7.648   1.131
13112SOL    HW250991   9.779   7.702   1.147
13113SOL     OW50992   2.400   5.533   0.048
13113SOL    HW150993   2.477   5.470   0.045
13113SOL    HW250994   2.425   5.614   0.101
13114SOL     OW50995   0.844   3.704   5.119
13114SOL    HW150996   0.798   3.792   5.107
13114SOL    HW250997   0.779   3.630   5.101
13115SOL     OW50998   7.921   3.063   2.808
13115SOL    HW150999   7.901   3.054   2.711
13115SOL    HW251000   7.844   3.030   2.862
13116SOL     OW51001   1.342   4.029   3.299
13116SOL    HW151002   1.327   4.067   3.390
13116SOL    HW251003   1.391   4.096   3.243
13117SOL     OW51004   1.023   4.406   0.954
13117SOL    HW151005   1.033   4.439   1.048
13117SOL    HW251006   1.104   4.431   0.901
13118SOL     OW51007   2.895   9.041   2.346
13118SOL    HW151008   2.812   9.096   2.358
13118SOL    HW251009   2.934   9.021   2.435
13119SOL     OW51010   1.891   0.493   5.150
13119SOL    HW151011   1.936   0.404   5.152
13119SOL    HW251012   1.806   0.486   5.099
13120SOL     OW51013   7.008   0.892   6.668
13120SOL    HW151014   7.094   0.842   6.680
13120SOL    HW251015   6.943   0.836   6.618
13121SOL     OW51016   7.604   5.903   2.018
13121SOL    HW151017   7.587   6.001   2.025
13121SOL    HW251018   7.568   5.868   1.932
13122SOL     OW51019   2.003   6.436   7.110
13122SOL    HW151020   1.954   6.517   7.078
13122SOL    HW251021   1.939   6.373   7.153
13123SOL     OW51022   8.600   7.894   3.697
13123SOL    HW151023   8.546   7.896   3.782
13123SOL    HW251024   8.562   7.961   3.633
13124SOL     OW51025   0.495   6.562   1.137
13124SOL    HW151026   0.566   6.512   1.187
13124SOL    HW251027   0.407   6.517   1.150
13125SOL     OW51028   7.574   2.045   2.197
13125SOL    HW151029   7.602   2.003   2.283
13125SOL    HW251030   7.553   1.973   2.131
13126SOL     OW51031   9.703   6.895   4.082
13126SOL    HW151032   9.779   6.959   4.098
13126SOL    HW251033   9.622   6.947   4.056
13127SOL     OW51034   0.611   0.574   5.977
13127SOL    HW151035   0.616   0.670   5.949
13127SOL    HW251036   0.607   0.516   5.896
13128SOL     OW51037   4.233   9.161   0.317
13128SOL    HW151038   4.222   9.140   0.414
13128SOL    HW251039   4.203   9.255   0.299
13129SOL     OW51040   3.408   0.076   5.010
13129SOL    HW151041   3.365   0.142   5.072
13129SOL    HW251042   3.344   0.002   4.990
13130SOL     OW51043   8.491   1.377   0.663
13130SOL    HW151044   8.587   1.351   0.668
13130SOL    HW251045   8.483   1.475   0.683
13131SOL     OW51046   1.333   0.616   0.115
13131SOL    HW151047   1.326   0.615   0.214
13131SOL    HW251048   1.429   0.631   0.088
13132SOL     OW51049   4.966   8.571   5.456
13132SOL    HW151050   4.970   8.576   5.357
13132SOL    HW251051   4.945   8.477   5.485
13133SOL     OW51052   5.720   9.036   7.626
13133SOL    HW151053   5.723   9.132   7.600
13133SOL    HW251054   5.675   9.026   7.715
13134SOL     OW51055   0.670   2.429   0.899
13134SOL    HW151056   0.632   2.510   0.855
13134SOL    HW251057   0.671   2.353   0.833
13135SOL     OW51058   5.959   4.093   1.814
13135SOL    HW151059   5.990   4.073   1.721
13135SOL    HW251060   5.963   4.192   1.830
13136SOL     OW51061   0.636   3.340   7.895
13136SOL    HW151062   0.705   3.268   7.902
13136SOL    HW251063   0.546   3.298   7.879
13137SOL     OW51064   7.625   7.843   3.232
13137SOL    HW151065   7.612   7.928   3.182
13137SOL    HW251066   7.572   7.770   3.188
13138SOL     OW51067   1.759   5.472   0.878
13138SOL    HW151068   1.683   5.513   0.828
13138SOL    HW251069   1.724   5.409   0.947
13139SOL     OW51070   0.955   5.191   5.520
13139SOL    HW151071   0.926   5.167   5.428
13139SOL    HW251072   0.987   5.286   5.522
13140SOL     OW51073   2.293   5.410   6.010
13140SOL    HW151074   2.348   5.343   6.060
13140SOL    HW251075   2.218   5.441   6.069
13141SOL     OW51076   0.961   7.882   7.833
13141SOL    HW151077   1.056   7.894   7.861
13141SOL    HW251078   0.923   7.970   7.803
13142SOL     OW51079   2.691   8.885   0.660
13142SOL    HW151080   2.704   8.959   0.726
13142SOL    HW251081   2.778   8.838   0.646
13143SOL     OW51082   9.671   1.043   0.836
13143SOL    HW151083   9.602   1.017   0.768
13143SOL    HW251084   9.690   1.141   0.829
13144SOL     OW51085   0.214   8.288   0.072
13144SOL    HW151086   0.161   8.208   0.045
13144SOL    HW251087   0.178   8.324   0.158
13145SOL     OW51088   1.999   3.270   7.439
13145SOL    HW151089   2.009   3.232   7.531
13145SOL    HW251090   2.069   3.232   7.379
13146SOL     OW51091   1.726   8.782   4.338
13146SOL    HW151092   1.673   8.823   4.264
13146SOL    HW251093   1.811   8.832   4.351
13147SOL     OW51094   9.251   0.005   0.636
13147SOL    HW151095   9.179   0.072   0.655
13147SOL    HW251096   9.288   9.971   0.722
13148SOL     OW51097   7.408   9.080   3.157
13148SOL    HW151098   7.410   8.996   3.103
13148SOL    HW251099   7.493   9.089   3.208
13149SOL     OW51100   8.318   2.120   6.262
13149SOL    HW151101   8.349   2.171   6.342
13149SOL    HW251102   8.239   2.063   6.286
13150SOL     OW51103   3.597   3.412   2.525
13150SOL    HW151104   3.680   3.416   2.470
13150SOL    HW251105   3.618   3.435   2.620
13151SOL     OW51106   5.482   6.353   1.163
13151SOL    HW151107   5.444   6.277   1.111
13151SOL    HW251108   5.579   6.334   1.183
13152SOL     OW51109   7.988   1.690   4.312
13152SOL    HW151110   8.050   1.635   4.368
13152SOL    HW251111   7.904   1.709   4.364
13153SOL     OW51112   0.722   7.904   0.095
13153SOL    HW151113   0.820   7.893   0.108
13153SOL    HW251114   0.690   7.984   0.145
13154SOL     OW51115   3.887   5.536   1.118
13154SOL    HW151116   3.894   5.633   1.095
13154SOL    HW251117   3.978   5.501   1.142
13155SOL     OW51118   5.270   0.224   6.234
13155SOL    HW151119   5.197   0.221   6.166
13155SOL    HW251120   5.253   0.299   6.298
13156SOL     OW51121   5.114   7.068   1.046
13156SOL    HW151122   5.172   6.992   1.074
13156SOL    HW251123   5.101   7.065   0.947
13157SOL     OW51124   9.161   9.204   3.095
13157SOL    HW151125   9.092   9.179   3.163
13157SOL    HW251126   9.230   9.131   3.090
13158SOL     OW51127   2.428   0.780   3.780
13158SOL    HW151128   2.463   0.858   3.832
13158SOL    HW251129   2.344   0.808   3.733
13159SOL     OW51130   0.893   7.460   2.387
13159SOL    HW151131   0.973   7.500   2.342
13159SOL    HW251132   0.825   7.531   2.405
13160SOL     OW51133   0.772   4.025   5.576
13160SOL    HW151134   0.739   3.937   5.542
13160SOL    HW251135   0.815   4.012   5.666
13161SOL     OW51136   2.442   5.614   2.187
13161SOL    HW151137   2.392   5.653   2.110
13161SOL    HW251138   2.407   5.523   2.207
13162SOL     OW51139   0.104   4.569   4.662
13162SOL    HW151140   0.005   4.575   4.655
13162SOL    HW251141   0.145   4.573   4.571
13163SOL     OW51142   9.225   6.853   4.777
13163SOL    HW151143   9.210   6.929   4.840
13163SOL    HW251144   9.180   6.874   4.690
13164SOL     OW51145   4.308   1.147   1.518
13164SOL    HW151146   4.232   1.117   1.461
13164SOL    HW251147   4.288   1.128   1.614
13165SOL     OW51148   6.572   3.111   1.355
13165SOL    HW151149   6.506   3.182   1.380
13165SOL    HW251150   6.539   3.060   1.276
13166SOL     OW51151   9.554   6.462   2.672
13166SOL    HW151152   9.461   6.475   2.707
13166SOL    HW251153   9.579   6.539   2.614
13167SOL     OW51154   0.007   6.574   4.393
13167SOL    HW151155   9.943   6.506   4.357
13167SOL    HW251156   0.037   6.546   4.484
13168SOL     OW51157   6.715   1.118   4.293
13168SOL    HW151158   6.684   1.213   4.300
13168SOL    HW251159   6.672   1.065   4.366
13169SOL     OW51160   8.762   7.037   6.580
13169SOL    HW151161   8.859   7.012   6.580
13169SOL    HW251162   8.736   7.071   6.671
13170SOL     OW51163   3.392   9.807   0.460
13170SOL    HW151164   3.350   9.843   0.377
13170SOL    HW251165   3.448   9.879   0.502
13171SOL     OW51166   4.687   6.658   2.042
13171SOL    HW151167   4.655   6.583   2.100
13171SOL    HW251168   4.760   6.708   2.089
13172SOL     OW51169   1.255   8.728   0.305
13172SOL    HW151170   1.338   8.712   0.359
13172SOL    HW251171   1.218   8.818   0.328
13173SOL     OW51172   2.652   3.627   4.257
13173SOL    HW151173   2.653   3.605   4.355
13173SOL    HW251174   2.741   3.606   4.218
13174SOL     OW51175   7.274   3.117   2.013
13174SOL    HW151176   7.279   3.039   2.075
13174SOL    HW251177   7.225   3.192   2.058
13175SOL     OW51178   1.418   1.885   4.518
13175SOL    HW151179   1.319   1.894   4.529
13175SOL    HW251180   1.462   1.900   4.606
13176SOL     OW51181   0.291   8.878   7.935
13176SOL    HW151182   0.214   8.874   7.870
13176SOL    HW251183   0.352   8.800   7.918
13177SOL     OW51184   6.558   9.675   4.157
13177SOL    HW151185   6.641   9.727   4.175
13177SOL    HW251186   6.478   9.726   4.191
13178SOL     OW51187   8.658   0.501   5.131
13178SOL    HW151188   8.620   0.490   5.039
13178SOL    HW251189   8.751   0.466   5.133
13179SOL     OW51190   4.537   9.172   6.661
13179SOL    HW151191   4.503   9.149   6.571
13179SOL    HW251192   4.611   9.239   6.653
13180SOL     OW51193   2.978   3.332   1.952
13180SOL    HW151194   2.915   3.369   2.021
13180SOL    HW251195   3.069   3.371   1.966
13181SOL     OW51196   4.348   7.353   1.706
13181SOL    HW151197   4.329   7.452   1.707
13181SOL    HW251198   4.430   7.335   1.652
13182SOL     OW51199   4.343   8.458   7.806
13182SOL    HW151200   4.435   8.441   7.772
13182SOL    HW251201   4.303   8.536   7.758
13183SOL     OW51202   1.686   9.612   0.738
13183SOL    HW151203   1.727   9.560   0.814
13183SOL    HW251204   1.648   9.548   0.671
13184SOL     OW51205   2.695   0.960   3.414
13184SOL    HW151206   2.644   0.992   3.494
13184SOL    HW251207   2.782   0.920   3.444
13185SOL     OW51208   9.615   0.722   5.856
13185SOL    HW151209   9.654   0.684   5.940
13185SOL    HW251210   9.587   0.647   5.796
13186SOL     OW51211   8.674   8.217   6.964
13186SOL    HW151212   8.593   8.270   6.940
13186SOL    HW251213   8.715   8.179   6.882
13187SOL     OW51214   3.092   3.916   0.208
13187SOL    HW151215   3.043   3.896   0.293
13187SOL    HW251216   3.027   3.935   0.135
13188SOL     OW51217   3.714   9.843   6.150
13188SOL    HW151218   3.760   9.876   6.232
13188SOL    HW251219   3.757   9.759   6.119
13189SOL     OW51220   1.561   2.666   3.436
13189SOL    HW151221   1.504   2.586   3.455
13189SOL    HW251222   1.509   2.749   3.457
13190SOL     OW51223   5.050   3.129   0.598
13190SOL    HW151224   5.126   3.066   0.615
13190SOL    HW251225   5.030   3.133   0.500
13191SOL     OW51226   8.370   1.397   6.810
13191SOL    HW151227   8.469   1.400   6.801
13191SOL    HW251228   8.340   1.470   6.872
13192SOL     OW51229   2.327   0.334   4.114
13192SOL    HW151230   2.243   0.332   4.169
13192SOL    HW251231   2.372   0.423   4.126
13193SOL     OW51232   5.093   0.303   7.416
13193SOL    HW151233   5.077   0.393   7.376
13193SOL    HW251234   5.109   0.236   7.344
13194SOL     OW51235   7.943   6.042   4.385
13194SOL    HW151236   8.018   6.027   4.448
13194SOL    HW251237   7.962   6.122   4.327
13195SOL     OW51238   4.379   4.229   0.225
13195SOL    HW151239   4.292   4.183   0.242
13195SOL    HW251240   4.387   4.251   0.128
13196SOL     OW51241   3.595   0.905   0.197
13196SOL    HW151242   3.612   0.873   0.290
13196SOL    HW251243   3.550   0.833   0.145
13197SOL     OW51244   6.264   1.605   1.036
13197SOL    HW151245   6.253   1.535   1.106
13197SOL    HW251246   6.346   1.587   0.983
13198SOL     OW51247   1.259   7.268   7.315
13198SOL    HW151248   1.179   7.321   7.288
13198SOL    HW251249   1.340   7.327   7.311
13199SOL     OW51250   8.152   6.634   7.189
13199SOL    HW151251   8.190   6.676   7.108
13199SOL    HW251252   8.210   6.558   7.219
13200SOL     OW51253   7.604   3.952   4.240
13200SOL    HW151254   7.592   3.935   4.338
13200SOL    HW251255   7.679   3.896   4.205
13201SOL     OW51256   8.016   5.348   1.667
13201SOL    HW151257   8.073   5.368   1.588
13201SOL    HW251258   7.972   5.259   1.656
13202SOL     OW51259   0.545   1.898   2.339
13202SOL    HW151260   0.612   1.836   2.382
13202SOL    HW251261   0.591   1.951   2.267
13203SOL     OW51262   9.993   1.889   0.224
13203SOL    HW151263  10.000   1.988   0.241
13203SOL    HW251264   9.975   1.842   0.310
13204SOL     OW51265   8.261   9.413   1.687
13204SOL    HW151266   8.271   9.411   1.787
13204SOL    HW251267   8.320   9.343   1.647
13205SOL     OW51268   2.181   8.979   3.644
13205SOL    HW151269   2.164   8.998   3.741
13205SOL    HW251270   2.279   8.984   3.626
13206SOL     OW51271   0.434   3.707   0.464
13206SOL    HW151272   0.381   3.695   0.547
13206SOL    HW251273   0.450   3.618   0.420
13207SOL     OW51274   9.809   4.922   2.348
13207SOL    HW151275   9.901   4.891   2.369
13207SOL    HW251276   9.763   4.853   2.291
13208SOL     OW51277   2.100   6.177   0.819
13208SOL    HW151278   2.066   6.083   0.817
13208SOL    HW251279   2.025   6.239   0.841
13209SOL     OW51280   4.448   8.265   2.721
13209SOL    HW151281   4.412   8.358   2.723
13209SOL    HW251282   4.409   8.216   2.643
13210SOL     OW51283   6.376   9.865   5.099
13210SOL    HW151284   6.419   9.775   5.095
13210SOL    HW251285   6.355   9.888   5.194
13211SOL     OW51286   2.653   8.255   2.835
13211SOL    HW151287   2.644   8.160   2.805
13211SOL    HW251288   2.563   8.298   2.838
13212SOL     OW51289   4.140   9.545   3.854
13212SOL    HW151290   4.081   9.465   3.863
13212SOL    HW251291   4.235   9.515   3.843
13213SOL     OW51292   7.948   6.260   2.052
13213SOL    HW151293   7.866   6.269   1.995
13213SOL    HW251294   8.028   6.247   1.994
13214SOL     OW51295   4.832   1.391   4.464
13214SOL    HW151296   4.774   1.310   4.477
13214SOL    HW251297   4.893   1.377   4.387
13215SOL     OW51298   6.955   7.848   5.964
13215SOL    HW151299   6.940   7.773   6.029
13215SOL    HW251300   7.038   7.830   5.911
13216SOL     OW51301   9.492   9.759   3.658
13216SOL    HW151302   9.409   9.705   3.641
13216SOL    HW251303   9.511   9.816   3.578
13217SOL     OW51304   4.515   9.842   6.025
13217SOL    HW151305   4.502   9.784   6.106
13217SOL    HW251306   4.562   9.926   6.051
13218SOL     OW51307   8.507   9.087   2.237
13218SOL    HW151308   8.538   9.166   2.185
13218SOL    HW251309   8.483   9.013   2.174
13219SOL     OW51310   2.228   8.979   3.018
13219SOL    HW151311   2.212   8.882   3.002
13219SOL    HW251312   2.141   9.028   3.020
13220SOL     OW51313   3.834   9.157   3.711
13220SOL    HW151314   3.753   9.154   3.770
13220SOL    HW251315   3.814   9.211   3.629
13221SOL     OW51316   2.502   3.850   4.214
13221SOL    HW151317   2.557   3.769   4.232
13221SOL    HW251318   2.421   3.850   4.273
13222SOL     OW51319   2.017   4.468   2.217
13222SOL    HW151320   1.961   4.540   2.178
13222SOL    HW251321   2.111   4.500   2.228
13223SOL     OW51322   8.530   6.886   0.803
13223SOL    HW151323   8.546   6.811   0.867
13223SOL    HW251324   8.437   6.881   0.768
13224SOL     OW51325   3.054   9.641   6.333
13224SOL    HW151326   3.127   9.673   6.393
13224SOL    HW251327   3.094   9.595   6.253
13225SOL     OW51328   2.389   5.668   0.627
13225SOL    HW151329   2.339   5.586   0.657
13225SOL    HW251330   2.331   5.748   0.638
13226SOL     OW51331   9.883   3.362   7.677
13226SOL    HW151332   9.982   3.372   7.675
13226SOL    HW251333   9.849   3.340   7.585
13227SOL     OW51334   1.745   3.633   3.863
13227SOL    HW151335   1.713   3.584   3.945
13227SOL    HW251336   1.749   3.570   3.786
13228SOL     OW51337   0.458   4.098   1.594
13228SOL    HW151338   0.535   4.071   1.651
13228SOL    HW251339   0.476   4.188   1.554
13229SOL     OW51340   8.427   7.281   7.310
13229SOL    HW151341   8.462   7.358   7.363
13229SOL    HW251342   8.333   7.260   7.337
13230SOL     OW51343   1.043   7.358   5.093
13230SOL    HW151344   1.050   7.438   5.152
13230SOL    HW251345   1.025   7.277   5.149
13231SOL     OW51346   7.790   6.373   2.459
13231SOL    HW151347   7.731   6.406   2.533
13231SOL    HW251348   7.762   6.414   2.373
13232SOL     OW51349   4.746   3.297   1.989
13232SOL    HW151350   4.845   3.292   1.978
13232SOL    HW251351   4.710   3.206   2.010
13233SOL     OW51352   9.811   6.496   7.896
13233SOL    HW151353   9.756   6.413   7.899
13233SOL    HW251354   9.892   6.480   7.840
13234SOL     OW51355   2.399   6.664   4.888
13234SOL    HW151356   2.479   6.692   4.942
13234SOL    HW251357   2.320   6.719   4.913
13235SOL     OW51358   8.510   9.410   4.738
13235SOL    HW151359   8.413   9.410   4.717
13235SOL    HW251360   8.527   9.353   4.818
13236SOL     OW51361   3.545   8.473   2.314
13236SOL    HW151362   3.595   8.392   2.348
13236SOL    HW251363   3.598   8.555   2.335
13237SOL     OW51364   5.781   2.412   1.555
13237SOL    HW151365   5.800   2.505   1.588
13237SOL    HW251366   5.764   2.415   1.456
13238SOL     OW51367   8.559   7.965   6.389
13238SOL    HW151368   8.555   7.900   6.465
13238SOL    HW251369   8.629   7.936   6.324
13239SOL     OW51370   9.759   2.851   2.371
13239SOL    HW151371   9.857   2.852   2.353
13239SOL    HW251372   9.743   2.867   2.469
13240SOL     OW51373   2.423   2.718   2.593
13240SOL    HW151374   2.336   2.759   2.619
13240SOL    HW251375   2.453   2.756   2.505
13241SOL     OW51376   1.208   6.316   0.415
13241SOL    HW151377   1.128   6.338   0.469
13241SOL    HW251378   1.196   6.227   0.371
13242SOL     OW51379   7.031   6.626   6.857
13242SOL    HW151380   7.121   6.602   6.894
13242SOL    HW251381   6.988   6.544   6.819
13243SOL     OW51382   5.920   9.595   6.679
13243SOL    HW151383   5.883   9.505   6.703
13243SOL    HW251384   6.007   9.583   6.631
13244SOL     OW51385   3.567   8.952   6.323
13244SOL    HW151386   3.493   8.886   6.309
13244SOL    HW251387   3.563   9.022   6.252
13245SOL     OW51388   1.350   6.924   4.259
13245SOL    HW151389   1.341   6.849   4.324
13245SOL    HW251390   1.261   6.942   4.217
13246SOL     OW51391   6.613   7.718   6.198
13246SOL    HW151392   6.664   7.645   6.244
13246SOL    HW251393   6.671   7.798   6.188
13247SOL     OW51394   9.507   3.511   5.414
13247SOL    HW151395   9.554   3.456   5.345
13247SOL    HW251396   9.456   3.585   5.369
13248SOL     OW51397   2.691   9.521   2.135
13248SOL    HW151398   2.650   9.535   2.225
13248SOL    HW251399   2.785   9.489   2.146
13249SOL     OW51400   9.881   1.705   4.397
13249SOL    HW151401   9.927   1.679   4.313
13249SOL    HW251402   9.797   1.754   4.376
13250SOL     OW51403   8.542   4.459   5.445
13250SOL    HW151404   8.504   4.369   5.426
13250SOL    HW251405   8.584   4.458   5.537
13251SOL     OW51406   7.893   8.056   2.866
13251SOL    HW151407   7.962   8.005   2.815
13251SOL    HW251408   7.937   8.109   2.938
13252SOL     OW51409   1.447   0.327   0.978
13252SOL    HW151410   1.529   0.273   1.001
13252SOL    HW251411   1.475   0.409   0.929
13253SOL     OW51412   8.964   7.255   0.198
13253SOL    HW151413   8.934   7.170   0.155
13253SOL    HW251414   9.045   7.238   0.255
13254SOL     OW51415   6.385   0.193   2.204
13254SOL    HW151416   6.439   0.270   2.171
13254SOL    HW251417   6.415   0.109   2.157
13255SOL     OW51418   8.624   2.236   5.455
13255SOL    HW151419   8.663   2.244   5.546
13255SOL    HW251420   8.651   2.148   5.415
13256SOL     OW51421   2.559   0.527   2.064
13256SOL    HW151422   2.519   0.435   2.065
13256SOL    HW251423   2.639   0.528   2.005
13257SOL     OW51424   6.253   0.469   5.131
13257SOL    HW151425   6.180   0.497   5.068
13257SOL    HW251426   6.342   0.497   5.094
13258SOL     OW51427   3.648   4.975   3.545
13258SOL    HW151428   3.663   4.965   3.447
13258SOL    HW251429   3.581   4.908   3.577
13259SOL     OW51430   8.227   3.515   1.140
13259SOL    HW151431   8.200   3.575   1.215
13259SOL    HW251432   8.192   3.551   1.054
13260SOL     OW51433   6.679   4.624   2.357
13260SOL    HW151434   6.767   4.578   2.340
13260SOL    HW251435   6.668   4.699   2.293
13261SOL     OW51436   1.007   0.079   6.015
13261SOL    HW151437   1.066   0.146   5.971
13261SOL    HW251438   0.962   0.022   5.945
13262SOL     OW51439   6.584   3.950   2.121
13262SOL    HW151440   6.618   4.044   2.125
13262SOL    HW251441   6.515   3.936   2.192
13263SOL     OW51442   8.258   0.567   0.604
13263SOL    HW151443   8.340   0.540   0.655
13263SOL    HW251444   8.248   0.508   0.524
13264SOL     OW51445   6.965   1.669   1.606
13264SOL    HW151446   6.933   1.576   1.619
13264SOL    HW251447   6.915   1.731   1.667
13265SOL     OW51448   2.302   3.057   7.590
13265SOL    HW151449   2.326   3.134   7.649
13265SOL    HW251450   2.383   2.999   7.577
13266SOL     OW51451   7.411   0.648   5.633
13266SOL    HW151452   7.389   0.585   5.559
13266SOL    HW251453   7.331   0.661   5.692
13267SOL     OW51454   5.378   9.205   6.559
13267SOL    HW151455   5.350   9.144   6.484
13267SOL    HW251456   5.467   9.176   6.594
13268SOL     OW51457   2.254   1.539   6.847
13268SOL    HW151458   2.350   1.537   6.818
13268SOL    HW251459   2.207   1.457   6.813
13269SOL     OW51460   8.446   1.390   2.949
13269SOL    HW151461   8.352   1.396   2.914
13269SOL    HW251462   8.445   1.385   3.049
13270SOL     OW51463   9.182   2.491   3.195
13270SOL    HW151464   9.187   2.413   3.133
13270SOL    HW251465   9.141   2.463   3.281
13271SOL     OW51466   2.368   6.238   3.294
13271SOL    HW151467   2.390   6.155   3.344
13271SOL    HW251468   2.297   6.218   3.226
13272SOL     OW51469   9.327   7.377   4.875
13272SOL    HW151470   9.247   7.359   4.933
13272SOL    HW251471   9.314   7.462   4.825
13273SOL     OW51472   0.953   1.373   0.166
13273SOL    HW151473   0.986   1.458   0.206
13273SOL    HW251474   1.031   1.321   0.129
13274SOL     OW51475   4.661   9.724   0.376
13274SOL    HW151476   4.717   9.708   0.457
13274SOL    HW251477   4.620   9.638   0.347
13275SOL     OW51478   1.156   7.266   6.088
13275SOL    HW151479   1.165   7.217   6.002
13275SOL    HW251480   1.131   7.201   6.161
13276SOL     OW51481   8.166   6.939   3.718
13276SOL    HW151482   8.209   7.020   3.758
13276SOL    HW251483   8.132   6.880   3.792
13277SOL     OW51484   2.270   5.704   3.583
13277SOL    HW151485   2.244   5.756   3.502
13277SOL    HW251486   2.207   5.725   3.658
13278SOL     OW51487   0.201   1.931   7.595
13278SOL    HW151488   0.176   1.947   7.500
13278SOL    HW251489   0.269   1.998   7.624
13279SOL     OW51490   1.747   4.762   5.933
13279SOL    HW151491   1.680   4.835   5.942
13279SOL    HW251492   1.839   4.800   5.931
13280SOL     OW51493   7.860   8.789   3.662
13280SOL    HW151494   7.796   8.866   3.672
13280SOL    HW251495   7.824   8.710   3.711
13281SOL     OW51496   9.499   0.540   3.245
13281SOL    HW151497   9.405   0.573   3.232
13281SOL    HW251498   9.563   0.600   3.197
13282SOL     OW51499   0.874   3.531   6.563
13282SOL    HW151500   0.973   3.534   6.555
13282SOL    HW251501   0.846   3.573   6.649
13283SOL     OW51502   9.866   6.050   1.936
13283SOL    HW151503   9.921   5.971   1.963
13283SOL    HW251504   9.871   6.062   1.837
13284SOL     OW51505   8.513   0.152   4.468
13284SOL    HW151506   8.554   0.063   4.492
13284SOL    HW251507   8.570   0.225   4.504
13285SOL     OW51508   5.610   1.123   3.426
13285SOL    HW151509   5.519   1.089   3.401
13285SOL    HW251510   5.637   1.083   3.514
13286SOL     OW51511   3.140   4.914   5.533
13286SOL    HW151512   3.235   4.945   5.533
13286SOL    HW251513   3.095   4.946   5.450
13287SOL     OW51514   0.342   0.456   1.736
13287SOL    HW151515   0.323   0.429   1.642
13287SOL    HW251516   0.367   0.553   1.738
13288SOL     OW51517   8.979   5.437   1.305
13288SOL    HW151518   8.976   5.486   1.392
13288SOL    HW251519   8.899   5.462   1.250
13289SOL     OW51520   1.980   4.718   0.754
13289SOL    HW151521   2.029   4.642   0.798
13289SOL    HW251522   1.882   4.708   0.772
13290SOL     OW51523   1.918   4.960   2.877
13290SOL    HW151524   1.916   4.866   2.912
13290SOL    HW251525   1.825   4.996   2.873
13291SOL     OW51526   0.837   8.244   6.178
13291SOL    HW151527   0.852   8.273   6.083
13291SOL    HW251528   0.807   8.322   6.233
13292SOL     OW51529   3.407   6.460   7.860
13292SOL    HW151530   3.391   6.372   7.905
13292SOL    HW251531   3.505   6.473   7.846
13293SOL     OW51532   6.423   8.893   7.391
13293SOL    HW151533   6.437   8.980   7.440
13293SOL    HW251534   6.343   8.846   7.429
13294SOL     OW51535   3.080   1.311   6.717
13294SOL    HW151536   3.110   1.230   6.667
13294SOL    HW251537   3.044   1.283   6.806
13295SOL     OW51538   1.176   0.860   3.549
13295SOL    HW151539   1.245   0.859   3.621
13295SOL    HW251540   1.106   0.791   3.568
13296SOL     OW51541   9.259   9.629   4.501
13296SOL    HW151542   9.251   9.534   4.531
13296SOL    HW251543   9.308   9.632   4.414
13297SOL     OW51544   2.087   1.439   2.884
13297SOL    HW151545   2.058   1.523   2.930
13297SOL    HW251546   2.112   1.371   2.953
13298SOL     OW51547   8.971   2.056   4.116
13298SOL    HW151548   8.985   2.155   4.122
13298SOL    HW251549   9.043   2.009   4.166
13299SOL     OW51550   1.547   8.414   1.477
13299SOL    HW151551   1.640   8.450   1.477
13299SOL    HW251552   1.520   8.390   1.570
13300SOL     OW51553   8.001   9.177   1.452
13300SOL    HW151554   8.087   9.151   1.410
13300SOL    HW251555   7.944   9.096   1.466
13301SOL     OW51556   4.932   7.740   1.238
13301SOL    HW151557   4.919   7.641   1.243
13301SOL    HW251558   4.977   7.763   1.151
13302SOL     OW51559   7.012   1.227   2.658
13302SOL    HW151560   7.082   1.239   2.729
13302SOL    HW251561   7.052   1.179   2.580
13303SOL     OW51562   8.740   5.041   6.428
13303SOL    HW151563   8.703   5.017   6.338
13303SOL    HW251564   8.668   5.030   6.496
13304SOL     OW51565   8.512   5.670   3.953
13304SOL    HW151566   8.440   5.667   3.883
13304SOL    HW251567   8.512   5.759   3.998
13305SOL     OW51568   7.790   8.287   3.166
13305SOL    HW151569   7.879   8.246   3.148
13305SOL    HW251570   7.764   8.345   3.089
13306SOL     OW51571   3.582   8.927   2.075
13306SOL    HW151572   3.613   8.991   2.004
13306SOL    HW251573   3.626   8.838   2.062
13307SOL     OW51574   0.494   1.040   6.393
13307SOL    HW151575   0.489   0.986   6.478
13307SOL    HW251576   0.472   0.981   6.316
13308SOL     OW51577   8.061   5.498   1.093
13308SOL    HW151578   8.040   5.579   1.037
13308SOL    HW251579   8.009   5.502   1.178
13309SOL     OW51580   0.997   7.133   5.242
13309SOL    HW151581   0.973   7.162   5.335
13309SOL    HW251582   0.932   7.064   5.211
13310SOL     OW51583   0.048   7.250   1.689
13310SOL    HW151584   0.085   7.173   1.637
13310SOL    HW251585   9.951   7.261   1.667
13311SOL     OW51586   8.004   4.982   5.960
13311SOL    HW151587   8.037   4.939   6.044
13311SOL    HW251588   8.040   4.933   5.881
13312SOL     OW51589   6.961   8.529   2.656
13312SOL    HW151590   6.999   8.518   2.748
13312SOL    HW251591   7.021   8.484   2.590
13313SOL     OW51592   9.644   2.305   4.882
13313SOL    HW151593   9.636   2.342   4.789
13313SOL    HW251594   9.583   2.226   4.892
13314SOL     OW51595   6.863   1.824   0.655
13314SOL    HW151596   6.764   1.839   0.656
13314SOL    HW251597   6.910   1.911   0.669
13315SOL     OW51598   8.949   0.026   3.235
13315SOL    HW151599   9.036   0.042   3.188
13315SOL    HW251600   8.901   9.950   3.191
13316SOL     OW51601   1.365   5.636   4.078
13316SOL    HW151602   1.418   5.567   4.127
13316SOL    HW251603   1.312   5.593   4.005
13317SOL     OW51604   6.945   9.796   7.612
13317SOL    HW151605   6.889   9.819   7.533
13317SOL    HW251606   6.897   9.820   7.696
13318SOL     OW51607   3.453   5.245   6.798
13318SOL    HW151608   3.424   5.164   6.849
13318SOL    HW251609   3.415   5.327   6.841
13319SOL     OW51610   4.928   7.975   3.115
13319SOL    HW151611   4.843   8.027   3.114
13319SOL    HW251612   4.954   7.956   3.210
13320SOL     OW51613   8.866   1.732   0.653
13320SOL    HW151614   8.939   1.788   0.692
13320SOL    HW251615   8.853   1.757   0.557
13321SOL     OW51616   8.462   7.460   7.092
13321SOL    HW151617   8.558   7.446   7.068
13321SOL    HW251618   8.433   7.389   7.157
13322SOL     OW51619   1.091   0.974   3.888
13322SOL    HW151620   1.064   1.066   3.861
13322SOL    HW251621   1.185   0.976   3.924
13323SOL     OW51622   8.200   9.933   0.259
13323SOL    HW151623   8.175   9.844   0.299
13323SOL    HW251624   8.118   9.977   0.222
13324SOL     OW51625   3.855   0.339   2.008
13324SOL    HW151626   3.843   0.248   1.969
13324SOL    HW251627   3.785   0.355   2.078
13325SOL     OW51628   6.911   2.566   0.991
13325SOL    HW151629   6.957   2.630   0.930
13325SOL    HW251630   6.978   2.527   1.055
13326SOL     OW51631   8.887   1.945   2.445
13326SOL    HW151632   8.978   1.960   2.406
13326SOL    HW251633   8.859   1.851   2.430
13327SOL     OW51634   9.159   8.109   3.893
13327SOL    HW151635   9.094   8.183   3.908
13327SOL    HW251636   9.110   8.021   3.893
13328SOL     OW51637   1.325   6.536   7.828
13328SOL    HW151638   1.352   6.495   7.740
13328SOL    HW251639   1.332   6.467   7.900
13329SOL     OW51640   4.879   7.350   1.784
13329SOL    HW151641   4.856   7.409   1.862
13329SOL    HW251642   4.869   7.402   1.699
13330SOL     OW51643   4.903   8.063   3.603
13330SOL    HW151644   4.936   7.983   3.654
13330SOL    HW251645   4.911   8.144   3.661
13331SOL     OW51646   4.592   7.063   0.407
13331SOL    HW151647   4.645   6.980   0.390
13331SOL    HW251648   4.498   7.038   0.429
13332SOL     OW51649   6.199   2.585   4.688
13332SOL    HW151650   6.109   2.589   4.729
13332SOL    HW251651   6.257   2.657   4.727
13333SOL     OW51652   7.420   6.343   6.694
13333SOL    HW151653   7.473   6.426   6.713
13333SOL    HW251654   7.481   6.264   6.695
13334SOL     OW51655   0.201   5.488   1.840
13334SOL    HW151656   0.221   5.578   1.877
13334SOL    HW251657   0.153   5.498   1.752
13335SOL     OW51658   0.339   2.815   0.336
13335SOL    HW151659   0.253   2.814   0.387
13335SOL    HW251660   0.321   2.841   0.241
13336SOL     OW51661   0.905   9.508   5.159
13336SOL    HW151662   0.854   9.471   5.081
13336SOL    HW251663   0.937   9.432   5.216
13337SOL     OW51664   1.391   7.557   2.162
13337SOL    HW151665   1.298   7.570   2.128
13337SOL    HW251666   1.453   7.543   2.085
13338SOL     OW51667   0.347   1.677   1.172
13338SOL    HW151668   0.270   1.715   1.121
13338SOL    HW251669   0.422   1.744   1.173
13339SOL     OW51670   3.676   9.052   4.117
13339SOL    HW151671   3.767   9.021   4.141
13339SOL    HW251672   3.637   9.105   4.193
13340SOL     OW51673   8.208   1.625   1.669
13340SOL    HW151674   8.245   1.615   1.577
13340SOL    HW251675   8.177   1.536   1.702
13341SOL     OW51676   9.682   0.672   6.791
13341SOL    HW151677   9.608   0.698   6.852
13341SOL    HW251678   9.742   0.750   6.775
13342SOL     OW51679   9.454   4.736   7.267
13342SOL    HW151680   9.423   4.767   7.357
13342SOL    HW251681   9.392   4.666   7.233
13343SOL     OW51682   9.646   1.503   2.577
13343SOL    HW151683   9.727   1.558   2.556
13343SOL    HW251684   9.647   1.478   2.674
13344SOL     OW51685   0.493   1.097   7.476
13344SOL    HW151686   0.403   1.086   7.434
13344SOL    HW251687   0.493   1.057   7.568
13345SOL     OW51688   7.239   2.584   5.463
13345SOL    HW151689   7.308   2.654   5.443
13345SOL    HW251690   7.284   2.501   5.493
13346SOL     OW51691   2.062   9.204   5.400
13346SOL    HW151692   2.082   9.261   5.480
13346SOL    HW251693   2.147   9.169   5.362
13347SOL     OW51694   2.857   5.186   0.376
13347SOL    HW151695   2.785   5.117   0.372
13347SOL    HW251696   2.941   5.146   0.412
13348SOL     OW51697   3.589   7.090   1.432
13348SOL    HW151698   3.662   7.022   1.427
13348SOL    HW251699   3.622   7.169   1.484
13349SOL     OW51700   4.304   2.140   4.055
13349SOL    HW151701   4.313   2.040   4.058
13349SOL    HW251702   4.333   2.178   4.143
13350SOL     OW51703   8.881   2.194   4.646
13350SOL    HW151704   8.829   2.109   4.651
13350SOL    HW251705   8.922   2.203   4.555
13351SOL     OW51706   9.542   8.789   2.399
13351SOL    HW151707   9.523   8.872   2.452
13351SOL    HW251708   9.577   8.718   2.461
13352SOL     OW51709   4.099   1.056   1.353
13352SOL    HW151710   4.111   1.064   1.254
13352SOL    HW251711   4.017   1.002   1.372
13353SOL     OW51712   4.819   5.726   4.094
13353SOL    HW151713   4.766   5.755   4.174
13353SOL    HW251714   4.833   5.627   4.098
13354SOL     OW51715   7.036   5.850   3.204
13354SOL    HW151716   6.997   5.852   3.295
13354SOL    HW251717   7.012   5.934   3.155
13355SOL     OW51718   5.476   9.946   5.186
13355SOL    HW151719   5.494   0.031   5.136
13355SOL    HW251720   5.456   9.967   5.282
13356SOL     OW51721   8.827   5.471   6.683
13356SOL    HW151722   8.839   5.552   6.626
13356SOL    HW251723   8.839   5.389   6.627
13357SOL     OW51724   4.549   7.322   1.512
13357SOL    HW151725   4.578   7.416   1.493
13357SOL    HW251726   4.628   7.267   1.540
13358SOL     OW51727   3.773   3.187   6.865
13358SOL    HW151728   3.718   3.110   6.833
13358SOL    HW251729   3.780   3.256   6.792
13359SOL     OW51730   5.773   0.701   1.868
13359SOL    HW151731   5.685   0.669   1.834
13359SOL    HW251732   5.767   0.799   1.888
13360SOL     OW51733   7.959   5.904   4.954
13360SOL    HW151734   7.936   5.820   4.904
13360SOL    HW251735   7.886   5.925   5.019
13361SOL     OW51736   9.222   2.965   1.634
13361SOL    HW151737   9.129   2.998   1.650
13361SOL    HW251738   9.269   2.953   1.722
13362SOL     OW51739   8.467   8.275   7.679
13362SOL    HW151740   8.474   8.176   7.692
13362SOL    HW251741   8.535   8.321   7.736
13363SOL     OW51742   1.981   2.278   5.164
13363SOL    HW151743   2.024   2.361   5.200
13363SOL    HW251744   1.884   2.295   5.146
13364SOL     OW51745   0.681   7.403   3.590
13364SOL    HW151746   0.729   7.490   3.583
13364SOL    HW251747   0.678   7.373   3.685
13365SOL     OW51748   9.652   9.736   7.078
13365SOL    HW151749   9.691   9.703   7.164
13365SOL    HW251750   9.580   9.674   7.048
13366SOL     OW51751   5.939   9.913   2.087
13366SOL    HW151752   6.025   9.864   2.077
13366SOL    HW251753   5.864   9.854   2.058
13367SOL     OW51754   5.470   0.274   2.234
13367SOL    HW151755   5.436   0.250   2.143
13367SOL    HW251756   5.546   0.213   2.258
13368SOL     OW51757   2.425   8.616   2.848
13368SOL    HW151758   2.472   8.640   2.932
13368SOL    HW251759   2.456   8.675   2.774
13369SOL     OW51760   4.140   8.732   2.321
13369SOL    HW151761   4.068   8.800   2.314
13369SOL    HW251762   4.116   8.652   2.266
13370SOL     OW51763   8.087   8.888   5.476
13370SOL    HW151764   8.032   8.848   5.403
13370SOL    HW251765   8.113   8.818   5.542
13371SOL     OW51766   1.738   3.373   4.471
13371SOL    HW151767   1.767   3.335   4.558
13371SOL    HW251768   1.720   3.298   4.406
13372SOL     OW51769   6.892   6.094   0.554
13372SOL    HW151770   6.904   5.995   0.565
13372SOL    HW251771   6.867   6.114   0.460
13373SOL     OW51772   9.647   1.995   0.864
13373SOL    HW151773   9.592   2.078   0.875
13373SOL    HW251774   9.667   1.955   0.954
13374SOL     OW51775   4.719   5.890   2.437
13374SOL    HW151776   4.745   5.941   2.518
13374SOL    HW251777   4.698   5.796   2.462
13375SOL     OW51778   4.050   2.324   4.576
13375SOL    HW151779   4.080   2.419   4.590
13375SOL    HW251780   4.060   2.300   4.479
13376SOL     OW51781   4.134   4.112   0.262
13376SOL    HW151782   4.124   4.050   0.340
13376SOL    HW251783   4.091   4.072   0.181
13377SOL     OW51784   3.949   4.636   2.240
13377SOL    HW151785   3.902   4.618   2.327
13377SOL    HW251786   3.955   4.551   2.187
13378SOL     OW51787   9.232   9.651   3.270
13378SOL    HW151788   9.277   9.736   3.242
13378SOL    HW251789   9.238   9.640   3.369
13379SOL     OW51790   0.745   4.236   4.334
13379SOL    HW151791   0.819   4.281   4.284
13379SOL    HW251792   0.671   4.212   4.271
13380SOL     OW51793   7.582   0.346   0.151
13380SOL    HW151794   7.541   0.365   0.240
13380SOL    HW251795   7.510   0.334   0.083
13381SOL     OW51796   4.237   5.739   1.404
13381SOL    HW151797   4.335   5.728   1.386
13381SOL    HW251798   4.194   5.649   1.412
13382SOL     OW51799   8.115   6.881   2.376
13382SOL    HW151800   8.177   6.949   2.336
13382SOL    HW251801   8.085   6.817   2.306
13383SOL     OW51802   8.530   8.479   3.456
13383SOL    HW151803   8.590   8.401   3.469
13383SOL    HW251804   8.579   8.551   3.407
13384SOL     OW51805   3.177   9.819   4.086
13384SOL    HW151806   3.199   9.772   4.172
13384SOL    HW251807   3.187   9.917   4.099
13385SOL     OW51808   2.962   8.004   7.837
13385SOL    HW151809   2.903   8.063   7.892
13385SOL    HW251810   3.018   8.061   7.776
13386SOL     OW51811   7.503   9.304   3.445
13386SOL    HW151812   7.423   9.250   3.471
13386SOL    HW251813   7.540   9.351   3.526
13387SOL     OW51814   4.835   3.655   6.407
13387SOL    HW151815   4.890   3.625   6.328
13387SOL    HW251816   4.740   3.667   6.379
13388SOL     OW51817   8.804   5.719   1.841
13388SOL    HW151818   8.750   5.677   1.767
13388SOL    HW251819   8.830   5.811   1.815
13389SOL     OW51820   0.186   5.685   5.554
13389SOL    HW151821   0.228   5.740   5.626
13389SOL    HW251822   0.243   5.605   5.536
13390SOL     OW51823   8.202   7.826   1.415
13390SOL    HW151824   8.106   7.852   1.402
13390SOL    HW251825   8.262   7.898   1.382
13391SOL     OW51826   9.891   1.135   2.916
13391SOL    HW151827   9.953   1.083   2.975
13391SOL    HW251828   9.866   1.221   2.961
13392SOL     OW51829   2.566   2.219   2.694
13392SOL    HW151830   2.515   2.304   2.705
13392SOL    HW251831   2.503   2.142   2.695
13393SOL     OW51832   7.494   9.193   7.242
13393SOL    HW151833   7.530   9.143   7.321
13393SOL    HW251834   7.508   9.139   7.159
13394SOL     OW51835   9.670   0.474   4.747
13394SOL    HW151836   9.718   0.402   4.796
13394SOL    HW251837   9.680   0.461   4.648
13395SOL     OW51838   3.660   7.514   6.910
13395SOL    HW151839   3.631   7.437   6.967
13395SOL    HW251840   3.582   7.548   6.857
13396SOL     OW51841   9.253   3.979   3.449
13396SOL    HW151842   9.291   4.071   3.460
13396SOL    HW251843   9.181   3.964   3.517
13397SOL     OW51844   1.226   7.561   1.894
13397SOL    HW151845   1.155   7.518   1.839
13397SOL    HW251846   1.191   7.648   1.931
13398SOL     OW51847   8.875   5.304   2.030
13398SOL    HW151848   8.799   5.366   2.009
13398SOL    HW251849   8.843   5.210   2.025
13399SOL     OW51850   2.730   3.233   3.243
13399SOL    HW151851   2.685   3.145   3.227
13399SOL    HW251852   2.825   3.228   3.213
13400SOL     OW51853   2.993   2.307   1.656
13400SOL    HW151854   3.068   2.349   1.605
13400SOL    HW251855   2.910   2.308   1.600
13401SOL     OW51856   2.915   8.897   5.214
13401SOL    HW151857   2.923   8.831   5.289
13401SOL    HW251858   2.820   8.928   5.208
13402SOL     OW51859   9.195   2.098   2.583
13402SOL    HW151860   9.104   2.128   2.610
13402SOL    HW251861   9.215   2.131   2.490
13403SOL     OW51862   9.270   4.481   0.935
13403SOL    HW151863   9.350   4.500   0.877
13403SOL    HW251864   9.247   4.384   0.930
13404SOL     OW51865   3.191   7.214   1.116
13404SOL    HW151866   3.282   7.211   1.159
13404SOL    HW251867   3.140   7.292   1.151
13405SOL     OW51868   0.577   8.602   6.110
13405SOL    HW151869   0.651   8.556   6.159
13405SOL    HW251870   0.612   8.639   6.024
13406SOL     OW51871   5.268   8.675   6.123
13406SOL    HW151872   5.179   8.711   6.152
13406SOL    HW251873   5.262   8.576   6.114
13407SOL     OW51874   6.817   3.555   0.308
13407SOL    HW151875   6.832   3.620   0.234
13407SOL    HW251876   6.816   3.462   0.271
13408SOL     OW51877   3.314   9.410   1.741
13408SOL    HW151878   3.304   9.506   1.767
13408SOL    HW251879   3.280   9.397   1.648
13409SOL     OW51880   3.795   3.184   3.528
13409SOL    HW151881   3.722   3.131   3.571
13409SOL    HW251882   3.766   3.216   3.438
13410SOL     OW51883   7.114   5.543   6.660
13410SOL    HW151884   7.200   5.504   6.695
13410SOL    HW251885   7.135   5.607   6.586
13411SOL     OW51886   8.414   0.057   7.376
13411SOL    HW151887   8.469   0.134   7.343
13411SOL    HW251888   8.427   9.979   7.315
13412SOL     OW51889   4.425   6.281   7.760
13412SOL    HW151890   4.470   6.359   7.802
13412SOL    HW251891   4.428   6.203   7.822
13413SOL     OW51892   4.781   9.080   1.998
13413SOL    HW151893   4.838   9.045   1.923
13413SOL    HW251894   4.839   9.114   2.071
13414SOL     OW51895   1.027   2.923   5.571
13414SOL    HW151896   1.013   3.001   5.631
13414SOL    HW251897   0.998   2.946   5.478
13415SOL     OW51898   0.769   1.546   6.953
13415SOL    HW151899   0.679   1.570   6.917
13415SOL    HW251900   0.825   1.628   6.963
13416SOL     OW51901   4.173   0.363   7.060
13416SOL    HW151902   4.254   0.326   7.106
13416SOL    HW251903   4.191   0.369   6.961
13417SOL     OW51904   0.326   3.155   2.405
13417SOL    HW151905   0.363   3.237   2.361
13417SOL    HW251906   0.250   3.120   2.350
13418SOL     OW51907   7.460   0.546   6.288
13418SOL    HW151908   7.554   0.525   6.311
13418SOL    HW251909   7.429   0.625   6.340
13419SOL     OW51910   3.419   3.048   5.873
13419SOL    HW151911   3.498   3.017   5.820
13419SOL    HW251912   3.345   3.073   5.811
13420SOL     OW51913   7.231   9.640   1.829
13420SOL    HW151914   7.184   9.667   1.913
13420SOL    HW251915   7.257   9.544   1.834
13421SOL     OW51916   8.918   4.571   4.251
13421SOL    HW151917   9.006   4.618   4.252
13421SOL    HW251918   8.844   4.638   4.241
13422SOL     OW51919   3.287   6.982   7.296
13422SOL    HW151920   3.295   7.081   7.305
13422SOL    HW251921   3.190   6.958   7.285
13423SOL     OW51922   1.732   1.107   4.615
13423SOL    HW151923   1.727   1.035   4.546
13423SOL    HW251924   1.663   1.091   4.686
13424SOL     OW51925   1.162   3.031   2.196
13424SOL    HW151926   1.095   3.089   2.149
13424SOL    HW251927   1.200   2.966   2.130
13425SOL     OW51928   1.863   2.174   2.212
13425SOL    HW151929   1.879   2.117   2.132
13425SOL    HW251930   1.924   2.146   2.286
13426SOL     OW51931   4.598   1.913   7.214
13426SOL    HW151932   4.507   1.926   7.252
13426SOL    HW251933   4.655   1.993   7.236
13427SOL     OW51934   7.704   6.110   4.890
13427SOL    HW151935   7.710   6.054   4.973
13427SOL    HW251936   7.796   6.134   4.859
13428SOL     OW51937   0.399   5.158   0.088
13428SOL    HW151938   0.430   5.240   0.137
13428SOL    HW251939   0.424   5.165  10.074
13429SOL     OW51940   9.423   0.905   4.942
13429SOL    HW151941   9.454   0.826   4.889
13429SOL    HW251942   9.347   0.949   4.895
13430SOL     OW51943   3.495   9.406   3.470
13430SOL    HW151944   3.507   9.413   3.569
13430SOL    HW251945   3.403   9.372   3.450
13431SOL     OW51946   9.788   9.358   7.306
13431SOL    HW151947   9.750   9.446   7.278
13431SOL    HW251948   9.729   9.284   7.274
13432SOL     OW51949   1.169   0.623   5.861
13432SOL    HW151950   1.234   0.559   5.900
13432SOL    HW251951   1.209   0.715   5.858
13433SOL     OW51952   0.939   4.958   0.691
13433SOL    HW151953   0.964   4.939   0.596
13433SOL    HW251954   0.843   4.987   0.694
13434SOL     OW51955   7.047   4.638   7.070
13434SOL    HW151956   7.066   4.673   7.162
13434SOL    HW251957   7.056   4.712   7.003
13435SOL     OW51958   2.437   3.002   6.011
13435SOL    HW151959   2.526   3.046   5.993
13435SOL    HW251960   2.430   2.919   5.957
13436SOL     OW51961   0.157   1.067   1.796
13436SOL    HW151962   0.158   0.974   1.757
13436SOL    HW251963   0.192   1.132   1.728
13437SOL     OW51964   3.435   3.130   4.945
13437SOL    HW151965   3.345   3.087   4.937
13437SOL    HW251966   3.437   3.211   4.886
13438SOL     OW51967   7.710   1.124   6.375
13438SOL    HW151968   7.769   1.124   6.456
13438SOL    HW251969   7.633   1.186   6.390
13439SOL     OW51970   0.185   6.846   2.735
13439SOL    HW151971   0.222   6.903   2.662
13439SOL    HW251972   0.220   6.877   2.823
13440SOL     OW51973   9.359   9.336   4.257
13440SOL    HW151974   9.390   9.287   4.176
13440SOL    HW251975   9.386   9.432   4.250
13441SOL     OW51976   5.957   4.639   2.195
13441SOL    HW151977   5.986   4.695   2.117
13441SOL    HW251978   6.030   4.575   2.219
13442SOL     OW51979   2.631   6.389   7.591
13442SOL    HW151980   2.708   6.326   7.584
13442SOL    HW251981   2.604   6.397   7.688
13443SOL     OW51982   7.531   9.045   7.024
13443SOL    HW151983   7.437   9.021   6.999
13443SOL    HW251984   7.595   8.996   6.964
13444SOL     OW51985   5.268   4.197   7.878
13444SOL    HW151986   5.308   4.115   7.920
13444SOL    HW251987   5.211   4.169   7.801
13445SOL     OW51988   7.996   0.766   5.664
13445SOL    HW151989   7.992   0.744   5.567
13445SOL    HW251990   7.971   0.862   5.678
13446SOL     OW51991   0.598   3.276   1.430
13446SOL    HW151992   0.673   3.247   1.490
13446SOL    HW251993   0.601   3.223   1.345
13447SOL     OW51994   0.562   3.658   1.718
13447SOL    HW151995   0.582   3.673   1.621
13447SOL    HW251996   0.470   3.691   1.739
13448SOL     OW51997   8.040   4.450   0.976
13448SOL    HW151998   7.967   4.394   0.937
13448SOL    HW251999   8.085   4.501   0.903
13449SOL     OW52000   8.001   7.846   7.698
13449SOL    HW152001   8.078   7.901   7.667
13449SOL    HW252002   8.034   7.757   7.730
13450SOL     OW52003   7.805   0.402   6.334
13450SOL    HW152004   7.749   0.366   6.408
13450SOL    HW252005   7.897   0.364   6.340
13451SOL     OW52006   0.558   4.011   2.501
13451SOL    HW152007   0.607   3.990   2.585
13451SOL    HW252008   0.482   3.947   2.488
13452SOL     OW52009   0.800   6.559   3.830
13452SOL    HW152010   0.790   6.635   3.894
13452SOL    HW252011   0.770   6.588   3.738
13453SOL     OW52012   9.036   4.225   3.314
13453SOL    HW152013   9.016   4.128   3.315
13453SOL    HW252014   9.104   4.244   3.242
13454SOL     OW52015   2.186   6.945   3.610
13454SOL    HW152016   2.121   7.013   3.578
13454SOL    HW252017   2.146   6.893   3.685
13455SOL     OW52018   6.255   5.527   2.069
13455SOL    HW152019   6.159   5.530   2.039
13455SOL    HW252020   6.258   5.530   2.169
13456SOL     OW52021   2.788   6.728   1.236
13456SOL    HW152022   2.799   6.819   1.277
13456SOL    HW252023   2.825   6.728   1.144
13457SOL     OW52024   9.291   0.402   2.222
13457SOL    HW152025   9.264   0.378   2.315
13457SOL    HW252026   9.279   0.323   2.162
13458SOL     OW52027   0.653   9.558   1.273
13458SOL    HW152028   0.633   9.564   1.371
13458SOL    HW252029   0.722   9.627   1.249
13459SOL     OW52030   9.882   7.782   5.430
13459SOL    HW152031   9.927   7.787   5.519
13459SOL    HW252032   9.849   7.689   5.414
13460SOL     OW52033   8.768   7.032   1.621
13460SOL    HW152034   8.722   7.118   1.599
13460SOL    HW252035   8.700   6.960   1.636
13461SOL     OW52036   1.377   1.689   5.850
13461SOL    HW152037   1.328   1.606   5.822
13461SOL    HW252038   1.339   1.767   5.801
13462SOL     OW52039   7.492   8.102   2.664
13462SOL    HW152040   7.526   8.142   2.748
13462SOL    HW252041   7.405   8.145   2.639
13463SOL     OW52042   9.176   2.194   0.565
13463SOL    HW152043   9.087   2.225   0.597
13463SOL    HW252044   9.208   2.255   0.492
13464SOL     OW52045   8.656   7.284   7.931
13464SOL    HW152046   8.694   7.331   7.851
13464SOL    HW252047   8.729   7.265   7.996
13465SOL     OW52048   8.546   3.106   3.229
13465SOL    HW152049   8.513   3.016   3.257
13465SOL    HW252050   8.545   3.112   3.129
13466SOL     OW52051   4.255   9.762   7.751
13466SOL    HW152052   4.319   9.837   7.731
13466SOL    HW252053   4.163   9.799   7.764
13467SOL     OW52054   1.248   6.385   2.241
13467SOL    HW152055   1.151   6.366   2.227
13467SOL    HW252056   1.268   6.381   2.339
13468SOL     OW52057   9.406   3.746   3.425
13468SOL    HW152058   9.354   3.688   3.363
13468SOL    HW252059   9.358   3.834   3.436
13469SOL     OW52060   8.452   7.270   0.278
13469SOL    HW152061   8.438   7.230   0.369
13469SOL    HW252062   8.521   7.217   0.229
13470SOL     OW52063   3.475   8.182   2.662
13470SOL    HW152064   3.430   8.266   2.691
13470SOL    HW252065   3.406   8.119   2.626
13471SOL     OW52066   3.707   7.561   3.037
13471SOL    HW152067   3.712   7.655   3.003
13471SOL    HW252068   3.696   7.498   2.961
13472SOL     OW52069   4.514   4.310   7.791
13472SOL    HW152070   4.494   4.234   7.852
13472SOL    HW252071   4.496   4.396   7.837
13473SOL     OW52072   1.325   6.315   6.108
13473SOL    HW152073   1.384   6.245   6.148
13473SOL    HW252074   1.338   6.315   6.008
13474SOL     OW52075   8.355   0.105   3.986
13474SOL    HW152076   8.302   0.144   3.912
13474SOL    HW252077   8.365   0.006   3.971
13475SOL     OW52078   3.893   8.089   5.115
13475SOL    HW152079   3.877   8.038   5.199
13475SOL    HW252080   3.846   8.177   5.119
13476SOL     OW52081   0.653   1.513   2.884
13476SOL    HW152082   0.707   1.509   2.800
13476SOL    HW252083   0.563   1.551   2.863
13477SOL     OW52084   1.208   4.355   3.354
13477SOL    HW152085   1.115   4.389   3.370
13477SOL    HW252086   1.231   4.289   3.425
13478SOL     OW52087   5.372   2.895   0.889
13478SOL    HW152088   5.405   2.851   0.973
13478SOL    HW252089   5.315   2.973   0.913
13479SOL     OW52090   9.576   0.869   1.840
13479SOL    HW152091   9.593   0.860   1.938
13479SOL    HW252092   9.646   0.819   1.789
13480SOL     OW52093   7.913   0.610   3.876
13480SOL    HW152094   7.820   0.604   3.914
13480SOL    HW252095   7.971   0.542   3.920
13481SOL     OW52096   9.809   7.779   2.688
13481SOL    HW152097   9.875   7.851   2.711
13481SOL    HW252098   9.799   7.774   2.589
13482SOL     OW52099   7.138   8.230   3.309
13482SOL    HW152100   7.062   8.183   3.264
13482SOL    HW252101   7.179   8.296   3.246
13483SOL     OW52102   2.935   3.179   5.635
13483SOL    HW152103   2.874   3.116   5.683
13483SOL    HW252104   2.902   3.192   5.542
13484SOL     OW52105   9.914   1.423   6.160
13484SOL    HW152106   9.834   1.409   6.103
13484SOL    HW252107   9.901   1.376   6.248
13485SOL     OW52108   0.402   7.086   5.736
13485SOL    HW152109   0.356   7.001   5.762
13485SOL    HW252110   0.469   7.111   5.806
13486SOL     OW52111   3.891   8.934   1.284
13486SOL    HW152112   3.807   8.891   1.320
13486SOL    HW252113   3.948   8.963   1.360
13487SOL     OW52114   1.556   1.042   4.806
13487SOL    HW152115   1.501   0.960   4.788
13487SOL    HW252116   1.540   1.073   4.900
13488SOL     OW52117   9.966   5.538   0.571
13488SOL    HW152118   9.876   5.578   0.552
13488SOL    HW252119   9.984   5.465   0.505
13489SOL     OW52120   5.627   2.039   1.393
13489SOL    HW152121   5.709   2.064   1.341
13489SOL    HW252122   5.651   1.973   1.464
13490SOL     OW52123   9.258   8.565   7.699
13490SOL    HW152124   9.247   8.627   7.777
13490SOL    HW252125   9.350   8.574   7.662
13491SOL     OW52126   2.019   0.848   6.675
13491SOL    HW152127   1.980   0.761   6.704
13491SOL    HW252128   2.116   0.852   6.698
13492SOL     OW52129   0.552   4.868   7.302
13492SOL    HW152130   0.505   4.843   7.217
13492SOL    HW252131   0.486   4.906   7.367
13493SOL     OW52132   1.191   2.546   4.553
13493SOL    HW152133   1.161   2.552   4.458
13493SOL    HW252134   1.111   2.539   4.613
13494SOL     OW52135   7.160   3.043   4.380
13494SOL    HW152136   7.208   2.959   4.355
13494SOL    HW252137   7.079   3.021   4.434
13495SOL     OW52138   9.122   8.936   2.389
13495SOL    HW152139   9.182   8.869   2.345
13495SOL    HW252140   9.034   8.893   2.410
13496SOL     OW52141   0.287   3.690   0.696
13496SOL    HW152142   0.192   3.670   0.715
13496SOL    HW252143   0.310   3.781   0.731
13497SOL     OW52144   9.471   7.001   5.478
13497SOL    HW152145   9.513   7.054   5.404
13497SOL    HW252146   9.457   6.907   5.448
13498SOL     OW52147   1.030   3.650   4.925
13498SOL    HW152148   0.967   3.673   4.999
13498SOL    HW252149   1.097   3.583   4.957
13499SOL     OW52150   4.281   6.399   4.228
13499SOL    HW152151   4.308   6.320   4.174
13499SOL    HW252152   4.199   6.377   4.281
13500SOL     OW52153   4.884   0.468   2.733
13500SOL    HW152154   4.808   0.443   2.674
13500SOL    HW252155   4.849   0.504   2.819
13501SOL     OW52156   4.295   9.983   1.831
13501SOL    HW152157   4.223   9.932   1.877
13501SOL    HW252158   4.301   0.075   1.870
13502SOL     OW52159   1.847   5.328   3.684
13502SOL    HW152160   1.842   5.356   3.589
13502SOL    HW252161   1.793   5.390   3.741
13503SOL     OW52162   5.108   0.089   5.760
13503SOL    HW152163   5.176   0.017   5.774
13503SOL    HW252164   5.016   0.048   5.761
13504SOL     OW52165   1.742   3.510   2.451
13504SOL    HW152166   1.833   3.515   2.410
13504SOL    HW252167   1.673   3.517   2.379
13505SOL     OW52168   9.970   2.817   3.105
13505SOL    HW152169   9.897   2.880   3.078
13505SOL    HW252170   0.023   2.791   3.024
13506SOL     OW52171   6.585   0.314   2.648
13506SOL    HW152172   6.522   0.392   2.643
13506SOL    HW252173   6.646   0.316   2.569
13507SOL     OW52174   7.230   8.166   2.565
13507SOL    HW152175   7.194   8.258   2.550
13507SOL    HW252176   7.215   8.110   2.482
13508SOL     OW52177   2.717   5.403   0.465
13508SOL    HW152178   2.739   5.428   0.560
13508SOL    HW252179   2.768   5.322   0.439
13509SOL     OW52180   2.395   5.895   4.217
13509SOL    HW152181   2.328   5.875   4.289
13509SOL    HW252182   2.448   5.813   4.197
13510SOL     OW52183   5.237   8.324   6.693
13510SOL    HW152184   5.244   8.373   6.780
13510SOL    HW252185   5.213   8.388   6.620
13511SOL     OW52186   8.990   8.106   4.573
13511SOL    HW152187   9.059   8.172   4.602
13511SOL    HW252188   8.951   8.134   4.485
13512SOL     OW52189   9.314   7.802   1.353
13512SOL    HW152190   9.288   7.773   1.261
13512SOL    HW252191   9.247   7.768   1.419
13513SOL     OW52192   8.765   4.447   0.931
13513SOL    HW152193   8.711   4.521   0.889
13513SOL    HW252194   8.862   4.469   0.923
13514SOL     OW52195   6.839   5.201   0.933
13514SOL    HW152196   6.882   5.198   0.843
13514SOL    HW252197   6.839   5.295   0.966
13515SOL     OW52198   9.893   1.817   4.651
13515SOL    HW152199   9.969   1.783   4.707
13515SOL    HW252200   9.900   1.778   4.559
13516SOL     OW52201   4.988   0.982   6.975
13516SOL    HW152202   5.044   0.946   7.050
13516SOL    HW252203   4.934   1.060   7.008
13517SOL     OW52204   6.490   1.648   1.645
13517SOL    HW152205   6.523   1.600   1.564
13517SOL    HW252206   6.394   1.674   1.631
13518SOL     OW52207   3.863   6.059   2.677
13518SOL    HW152208   3.916   5.986   2.633
13518SOL    HW252209   3.905   6.083   2.764
13519SOL     OW52210   4.190   4.173   5.966
13519SOL    HW152211   4.254   4.142   6.037
13519SOL    HW252212   4.120   4.231   6.007
13520SOL     OW52213   9.380   8.223   4.018
13520SOL    HW152214   9.305   8.169   3.980
13520SOL    HW252215   9.355   8.320   4.017
13521SOL     OW52216   9.285   9.524   5.658
13521SOL    HW152217   9.237   9.481   5.734
13521SOL    HW252218   9.233   9.511   5.574
13522SOL     OW52219   1.243   2.552   5.574
13522SOL    HW152220   1.241   2.638   5.523
13522SOL    HW252221   1.257   2.572   5.671
13523SOL     OW52222   8.186   4.195   4.731
13523SOL    HW152223   8.143   4.218   4.643
13523SOL    HW252224   8.129   4.130   4.780
13524SOL     OW52225   6.281   9.549   3.163
13524SOL    HW152226   6.209   9.566   3.230
13524SOL    HW252227   6.249   9.577   3.072
13525SOL     OW52228   0.480   0.309   1.173
13525SOL    HW152229   0.449   0.290   1.080
13525SOL    HW252230   0.580   0.309   1.175
13526SOL     OW52231   0.444   0.217   4.064
13526SOL    HW152232   0.439   0.156   4.143
13526SOL    HW252233   0.532   0.265   4.063
13527SOL     OW52234   1.768   4.772   5.208
13527SOL    HW152235   1.726   4.861   5.219
13527SOL    HW252236   1.851   4.781   5.152
13528SOL     OW52237   6.253   1.086   4.914
13528SOL    HW152238   6.278   1.085   5.010
13528SOL    HW252239   6.239   1.180   4.883
13529SOL     OW52240   0.373   5.762   4.206
13529SOL    HW152241   0.459   5.755   4.257
13529SOL    HW252242   0.377   5.701   4.127
13530SOL     OW52243   5.198   8.660   1.425
13530SOL    HW152244   5.111   8.678   1.378
13530SOL    HW252245   5.197   8.567   1.460
13531SOL     OW52246   1.668   3.007   5.156
13531SOL    HW152247   1.725   2.930   5.183
13531SOL    HW252248   1.589   2.973   5.105
13532SOL     OW52249   7.360   6.328   0.756
13532SOL    HW152250   7.363   6.377   0.843
13532SOL    HW252251   7.271   6.284   0.746
13533SOL     OW52252   1.377   5.487   0.409
13533SOL    HW152253   1.282   5.486   0.440
13533SOL    HW252254   1.427   5.411   0.452
13534SOL     OW52255   5.574   0.811   2.317
13534SOL    HW152256   5.561   0.720   2.277
13534SOL    HW252257   5.630   0.804   2.399
13535SOL     OW52258   2.954   6.412   7.542
13535SOL    HW152259   2.997   6.419   7.452
13535SOL    HW252260   2.908   6.324   7.550
13536SOL     OW52261   8.602   6.316   4.762
13536SOL    HW152262   8.597   6.374   4.843
13536SOL    HW252263   8.683   6.258   4.767
13537SOL     OW52264   7.511   4.166   0.227
13537SOL    HW152265   7.450   4.225   0.280
13537SOL    HW252266   7.491   4.070   0.246
13538SOL     OW52267   8.705   0.392   0.748
13538SOL    HW152268   8.741   0.361   0.660
13538SOL    HW252269   8.771   0.371   0.820
13539SOL     OW52270   3.525   1.128   6.735
13539SOL    HW152271   3.580   1.045   6.737
13539SOL    HW252272   3.517   1.161   6.641
13540SOL     OW52273   0.228   5.309   3.576
13540SOL    HW152274   0.145   5.322   3.523
13540SOL    HW252275   0.228   5.217   3.616
13541SOL     OW52276   7.123   6.532   2.516
13541SOL    HW152277   7.066   6.573   2.445
13541SOL    HW252278   7.097   6.567   2.606
13542SOL     OW52279   2.841   6.480   3.270
13542SOL    HW152280   2.897   6.432   3.203
13542SOL    HW252281   2.777   6.541   3.224
13543SOL     OW52282   6.157   0.271   6.093
13543SOL    HW152283   6.204   0.327   6.025
13543SOL    HW252284   6.211   0.189   6.113
13544SOL     OW52285   8.275   2.121   2.127
13544SOL    HW152286   8.257   2.026   2.101
13544SOL    HW252287   8.372   2.141   2.115
13545SOL     OW52288   3.144   6.011   1.611
13545SOL    HW152289   3.093   5.939   1.659
13545SOL    HW252290   3.090   6.045   1.534
13546SOL     OW52291   3.028   6.591   5.138
13546SOL    HW152292   2.946   6.537   5.125
13546SOL    HW252293   3.065   6.618   5.049
13547SOL     OW52294   3.836   9.633   6.767
13547SOL    HW152295   3.836   9.539   6.733
13547SOL    HW252296   3.862   9.695   6.693
13548SOL     OW52297   8.877   0.843   7.141
13548SOL    HW152298   8.837   0.913   7.200
13548SOL    HW252299   8.804   0.789   7.099
13549SOL     OW52300   6.366   0.959   6.640
13549SOL    HW152301   6.392   0.972   6.736
13549SOL    HW252302   6.331   1.045   6.603
13550SOL     OW52303   0.905   0.282   2.709
13550SOL    HW152304   0.958   0.201   2.685
13550SOL    HW252305   0.914   0.300   2.807
13551SOL     OW52306   7.239   0.197   7.033
13551SOL    HW152307   7.302   0.119   7.038
13551SOL    HW252308   7.253   0.245   6.946
13552SOL     OW52309   5.012   8.594   5.186
13552SOL    HW152310   5.100   8.550   5.198
13552SOL    HW252311   5.016   8.655   5.106
13553SOL     OW52312   9.118   4.826   0.412
13553SOL    HW152313   9.039   4.831   0.474
13553SOL    HW252314   9.100   4.883   0.332
13554SOL     OW52315   5.026   5.113   1.339
13554SOL    HW152316   5.124   5.133   1.342
13554SOL    HW252317   4.977   5.181   1.394
13555SOL     OW52318   6.256   3.080   2.772
13555SOL    HW152319   6.298   2.994   2.801
13555SOL    HW252320   6.214   3.069   2.682
13556SOL     OW52321   1.990   0.795   3.470
13556SOL    HW152322   1.971   0.698   3.452
13556SOL    HW252323   2.004   0.842   3.383
13557SOL     OW52324   0.039   4.092   0.522
13557SOL    HW152325   9.968   4.056   0.462
13557SOL    HW252326   0.122   4.037   0.512
13558SOL     OW52327   1.583   5.904   3.742
13558SOL    HW152328   1.656   5.842   3.714
13558SOL    HW252329   1.564   5.892   3.839
13559SOL     OW52330   5.155   6.709   2.259
13559SOL    HW152331   5.194   6.674   2.173
13559SOL    HW252332   5.201   6.666   2.336
13560SOL     OW52333   4.721   1.192   6.639
13560SOL    HW152334   4.720   1.212   6.737
13560SOL    HW252335   4.815   1.183   6.607
13561SOL     OW52336   0.206   4.132   3.008
13561SOL    HW152337   0.236   4.200   3.076
13561SOL    HW252338   0.271   4.057   3.006
13562SOL     OW52339   9.033   7.625   0.469
13562SOL    HW152340   8.975   7.590   0.396
13562SOL    HW252341   9.124   7.583   0.464
13563SOL     OW52342   3.475   4.765   3.587
13563SOL    HW152343   3.515   4.685   3.631
13563SOL    HW252344   3.464   4.748   3.489
13564SOL     OW52345   0.370   2.747   7.056
13564SOL    HW152346   0.395   2.660   7.013
13564SOL    HW252347   0.432   2.818   7.024
13565SOL     OW52348   0.838   9.739   0.952
13565SOL    HW152349   0.798   9.825   0.919
13565SOL    HW252350   0.925   9.722   0.905
13566SOL     OW52351   1.675   8.733   7.461
13566SOL    HW152352   1.631   8.649   7.431
13566SOL    HW252353   1.721   8.777   7.384
13567SOL     OW52354   2.990   8.694   3.710
13567SOL    HW152355   3.029   8.781   3.741
13567SOL    HW252356   2.900   8.710   3.669
13568SOL     OW52357   2.325   4.573   2.784
13568SOL    HW152358   2.344   4.641   2.714
13568SOL    HW252359   2.378   4.490   2.766
13569SOL     OW52360   8.727   0.130   7.098
13569SOL    HW152361   8.691   0.186   7.173
13569SOL    HW252362   8.652   0.083   7.052
13570SOL     OW52363   2.849   9.111   7.679
13570SOL    HW152364   2.879   9.193   7.729
13570SOL    HW252365   2.916   9.089   7.608
13571SOL     OW52366   1.225   7.992   6.538
13571SOL    HW152367   1.307   7.938   6.520
13571SOL    HW252368   1.249   8.089   6.540
13572SOL     OW52369   4.391   1.419   1.566
13572SOL    HW152370   4.382   1.483   1.489
13572SOL    HW252371   4.357   1.330   1.539
13573SOL     OW52372   6.287   3.811   2.634
13573SOL    HW152373   6.306   3.737   2.569
13573SOL    HW252374   6.279   3.897   2.583
13574SOL     OW52375   3.863   1.428   6.844
13574SOL    HW152376   3.787   1.369   6.874
13574SOL    HW252377   3.829   1.521   6.829
13575SOL     OW52378   0.850   4.009   5.843
13575SOL    HW152379   0.756   3.977   5.858
13575SOL    HW252380   0.908   3.977   5.918
13576SOL     OW52381   7.511   0.796   4.082
13576SOL    HW152382   7.416   0.768   4.099
13576SOL    HW252383   7.535   0.870   4.145
13577SOL     OW52384   8.133   7.744   5.504
13577SOL    HW152385   8.053   7.803   5.507
13577SOL    HW252386   8.105   7.648   5.504
13578SOL     OW52387   9.044   2.331   4.150
13578SOL    HW152388   9.007   2.355   4.060
13578SOL    HW252389   9.142   2.351   4.152
13579SOL     OW52390   1.251   4.517   2.373
13579SOL    HW152391   1.167   4.567   2.354
13579SOL    HW252392   1.302   4.502   2.289
13580SOL     OW52393   4.492   3.018   6.111
13580SOL    HW152394   4.552   2.941   6.133
13580SOL    HW252395   4.407   2.983   6.071
13581SOL     OW52396   3.077   8.867   0.420
13581SOL    HW152397   3.059   8.855   0.323
13581SOL    HW252398   3.089   8.964   0.441
13582SOL     OW52399   2.678   3.065   7.845
13582SOL    HW152400   2.651   2.978   7.802
13582SOL    HW252401   2.740   3.047   7.921
13583SOL     OW52402   8.407   1.853   3.899
13583SOL    HW152403   8.343   1.777   3.889
13583SOL    HW252404   8.478   1.828   3.965
13584SOL     OW52405   2.415   1.915   0.179
13584SOL    HW152406   2.465   1.838   0.140
13584SOL    HW252407   2.426   1.914   0.279
13585SOL     OW52408   9.623   4.611   3.818
13585SOL    HW152409   9.572   4.685   3.862
13585SOL    HW252410   9.640   4.634   3.722
13586SOL     OW52411   1.000   0.142   1.471
13586SOL    HW152412   1.020   0.049   1.500
13586SOL    HW252413   0.904   0.148   1.444
13587SOL     OW52414   2.796   2.909   4.153
13587SOL    HW152415   2.893   2.888   4.168
13587SOL    HW252416   2.751   2.925   4.241
13588SOL     OW52417   8.731   6.230   5.919
13588SOL    HW152418   8.736   6.133   5.940
13588SOL    HW252419   8.806   6.278   5.966
13589SOL     OW52420   7.540   8.075   3.099
13589SOL    HW152421   7.581   8.113   3.017
13589SOL    HW252422   7.537   8.146   3.170
13590SOL     OW52423   6.747   2.732   5.075
13590SOL    HW152424   6.773   2.821   5.112
13590SOL    HW252425   6.807   2.708   4.999
13591SOL     OW52426   0.207   3.613   4.331
13591SOL    HW152427   0.136   3.547   4.304
13591SOL    HW252428   0.296   3.567   4.334
13592SOL     OW52429   5.092   2.606   5.724
13592SOL    HW152430   5.049   2.669   5.660
13592SOL    HW252431   5.058   2.513   5.708
13593SOL     OW52432   2.563   8.755   0.110
13593SOL    HW152433   2.498   8.744   0.035
13593SOL    HW252434   2.513   8.774   0.195
13594SOL     OW52435   2.177   2.384   4.646
13594SOL    HW152436   2.237   2.366   4.724
13594SOL    HW252437   2.082   2.368   4.672
13595SOL     OW52438   4.418   5.150   0.150
13595SOL    HW152439   4.473   5.225   0.113
13595SOL    HW252440   4.440   5.066   0.100
13596SOL     OW52441   9.548   2.981   2.253
13596SOL    HW152442   9.472   2.974   2.318
13596SOL    HW252443   9.627   2.931   2.289
13597SOL     OW52444   6.764   0.225   2.209
13597SOL    HW152445   6.863   0.229   2.226
13597SOL    HW252446   6.725   0.147   2.259
13598SOL     OW52447   3.286   6.800   6.062
13598SOL    HW152448   3.334   6.880   6.026
13598SOL    HW252449   3.196   6.793   6.020
13599SOL     OW52450   0.706   2.457   5.239
13599SOL    HW152451   0.757   2.375   5.213
13599SOL    HW252452   0.769   2.534   5.249
13600SOL     OW52453   8.244   6.995   7.129
13600SOL    HW152454   8.325   6.997   7.187
13600SOL    HW252455   8.246   6.914   7.071
13601SOL     OW52456   9.239   6.412   3.808
13601SOL    HW152457   9.319   6.357   3.833
13601SOL    HW252458   9.199   6.376   3.724
13602SOL     OW52459   3.564   9.935   2.457
13602SOL    HW152460   3.541   9.865   2.389
13602SOL    HW252461   3.482   9.960   2.508
13603SOL     OW52462   2.505   3.110   7.320
13603SOL    HW152463   2.518   3.047   7.244
13603SOL    HW252464   2.582   3.101   7.384
13604SOL     OW52465   4.822   9.100   4.843
13604SOL    HW152466   4.817   9.038   4.921
13604SOL    HW252467   4.836   9.194   4.876
13605SOL     OW52468   3.669   9.277   7.836
13605SOL    HW152469   3.731   9.351   7.809
13605SOL    HW252470   3.699   9.191   7.794
13606SOL     OW52471   9.431   0.081   5.306
13606SOL    HW152472   9.398   9.989   5.327
13606SOL    HW252473   9.477   0.081   5.217
13607SOL     OW52474   1.077   2.239   2.675
13607SOL    HW152475   1.123   2.260   2.761
13607SOL    HW252476   0.981   2.217   2.692
13608SOL     OW52477   2.774   8.298   6.007
13608SOL    HW152478   2.738   8.236   5.938
13608SOL    HW252479   2.868   8.272   6.030
13609SOL     OW52480   5.211   8.249   3.517
13609SOL    HW152481   5.130   8.289   3.474
13609SOL    HW252482   5.217   8.152   3.493
13610SOL     OW52483   3.444   5.155   7.233
13610SOL    HW152484   3.436   5.086   7.306
13610SOL    HW252485   3.358   5.159   7.182
13611SOL     OW52486   2.792   5.483   7.850
13611SOL    HW152487   2.867   5.432   7.808
13611SOL    HW252488   2.730   5.419   7.895
13612SOL     OW52489   0.855   0.883   2.147
13612SOL    HW152490   0.908   0.965   2.168
13612SOL    HW252491   0.821   0.888   2.053
13613SOL     OW52492   3.302   6.657   4.026
13613SOL    HW152493   3.315   6.588   3.955
13613SOL    HW252494   3.289   6.611   4.114
13614SOL     OW52495   4.830   0.561   6.474
13614SOL    HW152496   4.866   0.652   6.452
13614SOL    HW252497   4.904   0.502   6.505
13615SOL     OW52498   6.472   4.593   7.926
13615SOL    HW152499   6.388   4.622   7.973
13615SOL    HW252500   6.502   4.665   7.865
13616SOL     OW52501   1.834   9.015   7.608
13616SOL    HW152502   1.820   9.086   7.539
13616SOL    HW252503   1.916   8.962   7.586
13617SOL     OW52504   7.412   7.292   7.126
13617SOL    HW152505   7.504   7.308   7.163
13617SOL    HW252506   7.375   7.208   7.163
13618SOL     OW52507   6.462   9.556   5.456
13618SOL    HW152508   6.462   9.515   5.365
13618SOL    HW252509   6.376   9.607   5.470
13619SOL     OW52510   6.665   2.120   1.489
13619SOL    HW152511   6.637   2.214   1.505
13619SOL    HW252512   6.584   2.060   1.491
13620SOL     OW52513   2.198   8.893   2.030
13620SOL    HW152514   2.128   8.955   2.063
13620SOL    HW252515   2.238   8.843   2.107
13621SOL     OW52516   8.958   4.017   2.563
13621SOL    HW152517   8.877   4.012   2.622
13621SOL    HW252518   9.000   3.926   2.558
13622SOL     OW52519   0.513   4.813   5.344
13622SOL    HW152520   0.495   4.759   5.261
13622SOL    HW252521   0.553   4.901   5.318
13623SOL     OW52522   9.703   8.898   4.714
13623SOL    HW152523   9.694   8.799   4.706
13623SOL    HW252524   9.657   8.929   4.797
13624SOL     OW52525   6.287   0.687   5.589
13624SOL    HW152526   6.370   0.658   5.637
13624SOL    HW252527   6.263   0.781   5.617
13625SOL     OW52528   8.708   6.615   2.364
13625SOL    HW152529   8.748   6.595   2.453
13625SOL    HW252530   8.715   6.535   2.305
13626SOL     OW52531   4.929   4.475   7.119
13626SOL    HW152532   4.946   4.486   7.021
13626SOL    HW252533   4.854   4.411   7.134
13627SOL     OW52534   9.857   7.423   6.630
13627SOL    HW152535   9.827   7.470   6.547
13627SOL    HW252536   9.778   7.383   6.676
13628SOL     OW52537   2.206   4.702   0.021
13628SOL    HW152538   2.301   4.713  10.073
13628SOL    HW252539   2.194   4.611   0.060
13629SOL     OW52540   3.288   3.284   3.827
13629SOL    HW152541   3.315   3.212   3.893
13629SOL    HW252542   3.346   3.278   3.746
13630SOL     OW52543   3.594   9.379   5.022
13630SOL    HW152544   3.621   9.466   5.064
13630SOL    HW252545   3.496   9.381   5.003
13631SOL     OW52546   6.508   5.095   1.718
13631SOL    HW152547   6.557   5.169   1.673
13631SOL    HW252548   6.512   5.107   1.817
13632SOL     OW52549   9.166   2.440   2.841
13632SOL    HW152550   9.203   2.460   2.750
13632SOL    HW252551   9.213   2.360   2.879
13633SOL     OW52552   3.668   1.588   5.100
13633SOL    HW152553   3.663   1.491   5.124
13633SOL    HW252554   3.577   1.623   5.079
13634SOL     OW52555   9.764   6.422   1.091
13634SOL    HW152556   9.664   6.424   1.089
13634SOL    HW252557   9.795   6.387   1.179
13635SOL     OW52558   1.678   9.090   7.182
13635SOL    HW152559   1.705   9.145   7.262
13635SOL    HW252560   1.713   8.997   7.192
13636SOL     OW52561   4.795   8.407   6.354
13636SOL    HW152562   4.755   8.337   6.413
13636SOL    HW252563   4.780   8.382   6.258
13637SOL     OW52564   4.254   9.408   2.794
13637SOL    HW152565   4.328   9.447   2.740
13637SOL    HW252566   4.281   9.406   2.891
13638SOL     OW52567   6.312   5.437   1.654
13638SOL    HW152568   6.336   5.410   1.748
13638SOL    HW252569   6.369   5.516   1.627
13639SOL     OW52570   3.762   7.894   1.793
13639SOL    HW152571   3.790   7.891   1.889
13639SOL    HW252572   3.664   7.876   1.786
13640SOL     OW52573   9.325   7.044   5.850
13640SOL    HW152574   9.384   7.112   5.893
13640SOL    HW252575   9.287   7.081   5.765
13641SOL     OW52576   2.738   1.041   1.192
13641SOL    HW152577   2.648   1.065   1.156
13641SOL    HW252578   2.741   0.943   1.212
13642SOL     OW52579   8.782   6.335   0.657
13642SOL    HW152580   8.686   6.359   0.646
13642SOL    HW252581   8.796   6.241   0.626
13643SOL     OW52582   9.235   1.666   7.464
13643SOL    HW152583   9.294   1.718   7.403
13643SOL    HW252584   9.274   1.575   7.478
13644SOL     OW52585   2.922   0.717   2.382
13644SOL    HW152586   2.911   0.811   2.348
13644SOL    HW252587   2.864   0.705   2.462
13645SOL     OW52588   4.122   9.689   6.480
13645SOL    HW152589   4.057   9.741   6.535
13645SOL    HW252590   4.079   9.603   6.450
13646SOL     OW52591   2.329   7.181   3.872
13646SOL    HW152592   2.275   7.126   3.935
13646SOL    HW252593   2.377   7.120   3.808
13647SOL     OW52594   5.100   8.603   3.579
13647SOL    HW152595   5.080   8.522   3.524
13647SOL    HW252596   5.196   8.603   3.605
13648SOL     OW52597   9.901   7.652   1.646
13648SOL    HW152598   9.961   7.599   1.705
13648SOL    HW252599   9.821   7.598   1.621
13649SOL     OW52600   5.561   0.644   6.018
13649SOL    HW152601   5.621   0.719   6.046
13649SOL    HW252602   5.616   0.561   6.002
13650SOL     OW52603   3.859   1.113   0.863
13650SOL    HW152604   3.900   1.189   0.813
13650SOL    HW252605   3.779   1.080   0.813
13651SOL     OW52606   3.314   6.322   4.762
13651SOL    HW152607   3.334   6.411   4.802
13651SOL    HW252608   3.267   6.265   4.830
13652SOL     OW52609   2.524   2.600   0.990
13652SOL    HW152610   2.477   2.664   0.930
13652SOL    HW252611   2.622   2.601   0.971
13653SOL     OW52612   6.788   8.277   6.445
13653SOL    HW152613   6.810   8.329   6.362
13653SOL    HW252614   6.806   8.180   6.429
13654SOL     OW52615   3.359   0.808   1.100
13654SOL    HW152616   3.442   0.860   1.122
13654SOL    HW252617   3.282   0.846   1.152
13655SOL     OW52618   4.654   6.884   2.993
13655SOL    HW152619   4.588   6.894   3.068
13655SOL    HW252620   4.719   6.959   2.996
13656SOL     OW52621   9.322   0.125   3.539
13656SOL    HW152622   9.301   0.167   3.627
13656SOL    HW252623   9.421   0.119   3.528
13657SOL     OW52624   2.401   3.711   6.967
13657SOL    HW152625   2.453   3.705   6.882
13657SOL    HW252626   2.392   3.807   6.994
13658SOL     OW52627   1.916   7.019   2.138
13658SOL    HW152628   1.920   7.100   2.196
13658SOL    HW252629   1.948   6.940   2.190
13659SOL     OW52630   3.238   6.340   0.537
13659SOL    HW152631   3.143   6.370   0.539
13659SOL    HW252632   3.269   6.322   0.631
13660SOL     OW52633   0.188   6.968   0.608
13660SOL    HW152634   0.150   7.052   0.567
13660SOL    HW252635   0.266   6.992   0.667
13661SOL     OW52636   4.379   4.494   1.936
13661SOL    HW152637   4.469   4.457   1.957
13661SOL    HW252638   4.388   4.567   1.868
13662SOL     OW52639   9.890   3.739   1.342
13662SOL    HW152640   9.952   3.662   1.355
13662SOL    HW252641   9.833   3.750   1.424
13663SOL     OW52642   0.711   5.286   6.877
13663SOL    HW152643   0.675   5.217   6.938
13663SOL    HW252644   0.766   5.352   6.929
13664SOL     OW52645   0.868   7.518   4.110
13664SOL    HW152646   0.902   7.449   4.046
13664SOL    HW252647   0.776   7.547   4.083
13665SOL     OW52648   0.160   7.975   7.794
13665SOL    HW152649   0.086   7.972   7.861
13665SOL    HW252650   0.210   8.061   7.804
13666SOL     OW52651   0.389   0.766   3.108
13666SOL    HW152652   0.472   0.821   3.093
13666SOL    HW252653   0.415   0.670   3.121
13667SOL     OW52654   4.609   1.483   0.324
13667SOL    HW152655   4.531   1.544   0.317
13667SOL    HW252656   4.648   1.467   0.233
13668SOL     OW52657   9.832   1.787   1.600
13668SOL    HW152658   9.910   1.739   1.641
13668SOL    HW252659   9.788   1.844   1.670
13669SOL     OW52660   4.983   3.201   1.627
13669SOL    HW152661   5.003   3.136   1.701
13669SOL    HW252662   4.892   3.238   1.639
13670SOL     OW52663   4.688   0.498   7.664
13670SOL    HW152664   4.678   0.558   7.585
13670SOL    HW252665   4.601   0.493   7.712
13671SOL     OW52666   6.984   6.603   2.294
13671SOL    HW152667   6.995   6.514   2.249
13671SOL    HW252668   6.905   6.650   2.256
13672SOL     OW52669   3.195   3.951   7.904
13672SOL    HW152670   3.201   3.913   7.811
13672SOL    HW252671   3.164   3.879   7.967
13673SOL     OW52672   8.000   7.143   2.215
13673SOL    HW152673   7.935   7.106   2.282
13673SOL    HW252674   8.091   7.144   2.255
13674SOL     OW52675   9.111   8.576   3.028
13674SOL    HW152676   9.034   8.569   3.092
13674SOL    HW252677   9.077   8.578   2.934
13675SOL     OW52678   7.822   1.025   0.816
13675SOL    HW152679   7.790   0.959   0.883
13675SOL    HW252680   7.797   0.994   0.724
13676SOL     OW52681   0.262   5.327   5.972
13676SOL    HW152682   0.245   5.331   5.874
13676SOL    HW252683   0.257   5.232   6.003
13677SOL     OW52684   5.208   1.565   0.629
13677SOL    HW152685   5.160   1.478   0.643
13677SOL    HW252686   5.293   1.548   0.579
13678SOL     OW52687   8.729   0.979   1.473
13678SOL    HW152688   8.790   1.006   1.547
13678SOL    HW252689   8.781   0.927   1.404
13679SOL     OW52690   9.656   8.706   2.153
13679SOL    HW152691   9.632   8.609   2.155
13679SOL    HW252692   9.618   8.752   2.234
13680SOL     OW52693   2.476   3.484   0.786
13680SOL    HW152694   2.538   3.420   0.833
13680SOL    HW252695   2.414   3.434   0.728
13681SOL     OW52696   3.602   8.851   3.926
13681SOL    HW152697   3.505   8.828   3.916
13681SOL    HW252698   3.612   8.923   3.995
13682SOL     OW52699   2.214   1.691   7.931
13682SOL    HW152700   2.186   1.699   7.835
13682SOL    HW252701   2.305   1.731   7.942
13683SOL     OW52702   0.428   0.092   3.168
13683SOL    HW152703   0.392   0.112   3.077
13683SOL    HW252704   0.460   0.176   3.211
13684SOL     OW52705   6.101   7.888   3.302
13684SOL    HW152706   6.116   7.949   3.380
13684SOL    HW252707   6.188   7.846   3.276
13685SOL     OW52708   1.125   1.142   7.788
13685SOL    HW152709   1.179   1.058   7.792
13685SOL    HW252710   1.028   1.120   7.784
13686SOL     OW52711   5.719   3.045   0.557
13686SOL    HW152712   5.718   2.961   0.611
13686SOL    HW252713   5.625   3.077   0.541
13687SOL     OW52714   8.111   4.387   5.381
13687SOL    HW152715   8.099   4.372   5.283
13687SOL    HW252716   8.174   4.463   5.396
13688SOL     OW52717   1.235   0.538   2.723
13688SOL    HW152718   1.260   0.632   2.744
13688SOL    HW252719   1.140   0.534   2.691
13689SOL     OW52720   4.601   0.914   6.111
13689SOL    HW152721   4.583   1.004   6.070
13689SOL    HW252722   4.686   0.877   6.073
13690SOL     OW52723   9.905   2.434   4.871
13690SOL    HW152724   9.970   2.370   4.830
13690SOL    HW252725   9.817   2.389   4.882
13691SOL     OW52726   6.784   2.517   0.743
13691SOL    HW152727   6.752   2.609   0.718
13691SOL    HW252728   6.826   2.520   0.834
13692SOL     OW52729   2.457   1.499   3.506
13692SOL    HW152730   2.509   1.583   3.492
13692SOL    HW252731   2.363   1.521   3.532
13693SOL     OW52732   2.198   1.553   3.592
13693SOL    HW152733   2.169   1.643   3.624
13693SOL    HW252734   2.169   1.483   3.656
13694SOL     OW52735   4.630   4.319   2.535
13694SOL    HW152736   4.666   4.257   2.465
13694SOL    HW252737   4.530   4.313   2.536
13695SOL     OW52738   8.538   5.152   1.221
13695SOL    HW152739   8.454   5.202   1.239
13695SOL    HW252740   8.608   5.178   1.287
13696SOL     OW52741   2.258   1.636   1.398
13696SOL    HW152742   2.216   1.580   1.468
13696SOL    HW252743   2.316   1.579   1.340
13697SOL     OW52744   5.859   0.990   6.491
13697SOL    HW152745   5.797   1.033   6.427
13697SOL    HW252746   5.925   1.057   6.524
13698SOL     OW52747   3.526   7.188   6.401
13698SOL    HW152748   3.428   7.173   6.388
13698SOL    HW252749   3.545   7.206   6.497
13699SOL     OW52750   1.004   9.509   5.958
13699SOL    HW152751   0.905   9.503   5.944
13699SOL    HW252752   1.037   9.599   5.930
13700SOL     OW52753   2.338   1.291   7.217
13700SOL    HW152754   2.306   1.229   7.146
13700SOL    HW252755   2.339   1.385   7.182
13701SOL     OW52756   8.373   6.110   4.430
13701SOL    HW152757   8.297   6.093   4.493
13701SOL    HW252758   8.427   6.187   4.463
13702SOL     OW52759   2.767   0.884   7.201
13702SOL    HW152760   2.819   0.843   7.126
13702SOL    HW252761   2.829   0.906   7.276
13703SOL     OW52762   1.933   8.088   0.933
13703SOL    HW152763   1.949   8.003   0.883
13703SOL    HW252764   1.846   8.082   0.982
13704SOL     OW52765   8.108   5.197   3.980
13704SOL    HW152766   8.171   5.209   3.902
13704SOL    HW252767   8.055   5.281   3.992
13705SOL     OW52768   7.949   0.324   4.268
13705SOL    HW152769   7.858   0.287   4.254
13705SOL    HW252770   7.996   0.271   4.339
13706SOL     OW52771   8.425   8.962   4.497
13706SOL    HW152772   8.475   9.044   4.522
13706SOL    HW252773   8.330   8.971   4.525
13707SOL     OW52774   7.253   9.744   7.810
13707SOL    HW152775   7.226   9.673   7.746
13707SOL    HW252776   7.182   9.815   7.814
13708SOL     OW52777   9.362   2.757   2.586
13708SOL    HW152778   9.413   2.780   2.669
13708SOL    HW252779   9.324   2.664   2.595
13709SOL     OW52780   8.069   0.282   0.593
13709SOL    HW152781   8.098   0.329   0.509
13709SOL    HW252782   8.145   0.226   0.626
13710SOL     OW52783   0.985   5.547   6.330
13710SOL    HW152784   0.994   5.595   6.242
13710SOL    HW252785   0.889   5.527   6.346
13711SOL     OW52786   1.163   8.984   0.416
13711SOL    HW152787   1.069   8.964   0.444
13711SOL    HW252788   1.206   9.044   0.484
13712SOL     OW52789   6.532   9.617   3.252
13712SOL    HW152790   6.515   9.700   3.305
13712SOL    HW252791   6.446   9.587   3.210
13713SOL     OW52792   2.493   9.547   2.777
13713SOL    HW152793   2.449   9.503   2.855
13713SOL    HW252794   2.426   9.560   2.703
13714SOL     OW52795   1.718   1.092   6.769
13714SOL    HW152796   1.729   1.142   6.684
13714SOL    HW252797   1.646   1.135   6.824
13715SOL     OW52798   2.296   7.736   4.347
13715SOL    HW152799   2.343   7.695   4.269
13715SOL    HW252800   2.327   7.693   4.432
13716SOL     OW52801   3.467   7.719   4.389
13716SOL    HW152802   3.508   7.788   4.329
13716SOL    HW252803   3.529   7.701   4.465
13717SOL     OW52804   8.267   8.798   5.270
13717SOL    HW152805   8.223   8.863   5.332
13717SOL    HW252806   8.248   8.705   5.301
13718SOL     OW52807   5.821   9.178   3.445
13718SOL    HW152808   5.895   9.182   3.377
13718SOL    HW252809   5.857   9.142   3.531
13719SOL     OW52810   9.034   5.275   4.427
13719SOL    HW152811   8.957   5.246   4.371
13719SOL    HW252812   9.113   5.218   4.406
13720SOL     OW52813   6.315   4.785   0.488
13720SOL    HW152814   6.238   4.838   0.523
13720SOL    HW252815   6.371   4.843   0.429
13721SOL     OW52816   3.469   9.283   2.123
13721SOL    HW152817   3.502   9.300   2.030
13721SOL    HW252818   3.546   9.251   2.179
13722SOL     OW52819   4.621   5.219   1.131
13722SOL    HW152820   4.617   5.123   1.102
13722SOL    HW252821   4.578   5.276   1.061
13723SOL     OW52822   4.650   8.913   2.179
13723SOL    HW152823   4.681   8.978   2.110
13723SOL    HW252824   4.689   8.937   2.268
13724SOL     OW52825   9.214   0.553   6.954
13724SOL    HW152826   9.158   0.486   7.002
13724SOL    HW252827   9.165   0.641   6.952
13725SOL     OW52828   0.882   4.392   3.672
13725SOL    HW152829   0.891   4.293   3.667
13725SOL    HW252830   0.857   4.419   3.766
13726SOL     OW52831   1.569   8.981   3.402
13726SOL    HW152832   1.662   9.011   3.381
13726SOL    HW252833   1.507   9.009   3.328
13727SOL     OW52834   6.393   2.338   1.939
13727SOL    HW152835   6.327   2.393   1.990
13727SOL    HW252836   6.348   2.300   1.857
13728SOL     OW52837   9.375   7.419   5.362
13728SOL    HW152838   9.347   7.340   5.307
13728SOL    HW252839   9.344   7.406   5.456
13729SOL     OW52840   2.720   7.057   3.588
13729SOL    HW152841   2.815   7.032   3.603
13729SOL    HW252842   2.710   7.157   3.590
13730SOL     OW52843   0.111   3.821   3.380
13730SOL    HW152844   0.075   3.880   3.308
13730SOL    HW252845   0.037   3.769   3.421
13731SOL     OW52846   0.443   1.280   4.612
13731SOL    HW152847   0.470   1.284   4.709
13731SOL    HW252848   0.417   1.371   4.581
13732SOL     OW52849   0.741   4.807   2.943
13732SOL    HW152850   0.795   4.877   2.990
13732SOL    HW252851   0.654   4.796   2.990
13733SOL     OW52852   1.364   1.094   1.210
13733SOL    HW152853   1.323   1.171   1.162
13733SOL    HW252854   1.311   1.074   1.292
13734SOL     OW52855   1.994   4.028   3.175
13734SOL    HW152856   2.038   3.940   3.192
13734SOL    HW252857   1.895   4.018   3.187
13735SOL     OW52858   5.794   1.930   6.163
13735SOL    HW152859   5.823   1.932   6.067
13735SOL    HW252860   5.843   1.856   6.211
13736SOL     OW52861   0.147   5.540   3.118
13736SOL    HW152862   0.067   5.578   3.165
13736SOL    HW252863   0.118   5.469   3.054
13737SOL     OW52864   6.823   2.774   2.343
13737SOL    HW152865   6.881   2.787   2.263
13737SOL    HW252866   6.880   2.762   2.424
13738SOL     OW52867   2.146   6.697   5.562
13738SOL    HW152868   2.198   6.693   5.647
13738SOL    HW252869   2.202   6.739   5.491
13739SOL     OW52870   9.394   5.522   3.295
13739SOL    HW152871   9.397   5.467   3.212
13739SOL    HW252872   9.335   5.478   3.362
13740SOL     OW52873   4.225   9.784   4.001
13740SOL    HW152874   4.293   9.832   3.944
13740SOL    HW252875   4.183   9.710   3.948
13741SOL     OW52876   5.201   9.041   1.415
13741SOL    HW152877   5.133   9.110   1.441
13741SOL    HW252878   5.168   8.992   1.334
13742SOL     OW52879   8.416   5.842   5.874
13742SOL    HW152880   8.351   5.911   5.907
13742SOL    HW252881   8.371   5.753   5.869
13743SOL     OW52882   0.469   0.033   5.205
13743SOL    HW152883   0.388   0.079   5.241
13743SOL    HW252884   0.445   9.984   5.121
13744SOL     OW52885   6.374   1.099   0.410
13744SOL    HW152886   6.425   1.025   0.368
13744SOL    HW252887   6.385   1.096   0.510
13745SOL     OW52888   2.751   1.366   5.437
13745SOL    HW152889   2.700   1.444   5.472
13745SOL    HW252890   2.759   1.297   5.509
13746SOL     OW52891   0.184   0.651   5.563
13746SOL    HW152892   0.164   0.572   5.620
13746SOL    HW252893   0.137   0.732   5.601
13747SOL     OW52894   0.671   3.556   6.368
13747SOL    HW152895   0.591   3.507   6.404
13747SOL    HW252896   0.742   3.561   6.438
13748SOL     OW52897   9.641   5.313   4.589
13748SOL    HW152898   9.680   5.262   4.512
13748SOL    HW252899   9.565   5.260   4.628
13749SOL     OW52900   1.520   1.960   1.499
13749SOL    HW152901   1.452   2.033   1.501
13749SOL    HW252902   1.606   1.993   1.538
13750SOL     OW52903   3.098   8.551   7.211
13750SOL    HW152904   3.004   8.562   7.243
13750SOL    HW252905   3.129   8.458   7.231
13751SOL     OW52906   3.416   1.678   5.050
13751SOL    HW152907   3.339   1.615   5.058
13751SOL    HW252908   3.388   1.768   5.083
13752SOL     OW52909   5.327   3.272   7.541
13752SOL    HW152910   5.318   3.202   7.470
13752SOL    HW252911   5.259   3.256   7.613
13753SOL     OW52912   1.221   7.221   0.148
13753SOL    HW152913   1.229   7.201   0.050
13753SOL    HW252914   1.163   7.301   0.162
13754SOL     OW52915   4.952   8.335   7.252
13754SOL    HW152916   4.907   8.247   7.268
13754SOL    HW252917   5.034   8.321   7.196
13755SOL     OW52918   4.474   5.131   0.780
13755SOL    HW152919   4.390   5.133   0.726
13755SOL    HW252920   4.516   5.040   0.773
13756SOL     OW52921   2.518   3.961   2.506
13756SOL    HW152922   2.535   3.933   2.600
13756SOL    HW252923   2.432   4.011   2.501
13757SOL     OW52924   3.801   2.858   4.436
13757SOL    HW152925   3.787   2.759   4.435
13757SOL    HW252926   3.890   2.880   4.397
13758SOL     OW52927   4.174   1.793   1.342
13758SOL    HW152928   4.144   1.856   1.270
13758SOL    HW252929   4.119   1.709   1.338
13759SOL     OW52930   2.105   3.340   1.991
13759SOL    HW152931   2.081   3.263   2.049
13759SOL    HW252932   2.043   3.417   2.010
13760SOL     OW52933   8.768   0.101   1.958
13760SOL    HW152934   8.706   0.165   1.913
13760SOL    HW252935   8.809   0.041   1.890
13761SOL     OW52936   2.301   3.526   0.990
13761SOL    HW152937   2.280   3.621   1.010
13761SOL    HW252938   2.366   3.520   0.915
13762SOL     OW52939   9.868   9.460   5.437
13762SOL    HW152940   9.774   9.488   5.459
13762SOL    HW252941   9.866   9.380   5.378
13763SOL     OW52942   4.328   7.154   3.204
13763SOL    HW152943   4.325   7.253   3.189
13763SOL    HW252944   4.272   7.108   3.135
13764SOL     OW52945   6.194   6.084   1.741
13764SOL    HW152946   6.128   6.039   1.802
13764SOL    HW252947   6.147   6.112   1.657
13765SOL     OW52948   5.769   9.265   2.557
13765SOL    HW152949   5.835   9.223   2.495
13765SOL    HW252950   5.804   9.354   2.587
13766SOL     OW52951   1.919   1.524   6.226
13766SOL    HW152952   1.968   1.530   6.139
13766SOL    HW252953   1.865   1.440   6.229
13767SOL     OW52954   8.232   5.149   3.379
13767SOL    HW152955   8.261   5.110   3.291
13767SOL    HW252956   8.309   5.149   3.443
13768SOL     OW52957   9.767   5.031   0.788
13768SOL    HW152958   9.853   5.003   0.745
13768SOL    HW252959   9.691   5.013   0.726
13769SOL     OW52960   2.166   4.382   2.568
13769SOL    HW152961   2.104   4.406   2.643
13769SOL    HW252962   2.115   4.336   2.495
13770SOL     OW52963   0.228   9.512   2.352
13770SOL    HW152964   0.171   9.438   2.316
13770SOL    HW252965   0.323   9.498   2.325
13771SOL     OW52966   7.035   5.894   6.966
13771SOL    HW152967   7.009   5.830   7.039
13771SOL    HW252968   6.960   5.903   6.901
13772SOL     OW52969   2.492   2.179   1.009
13772SOL    HW152970   2.509   2.105   1.074
13772SOL    HW252971   2.478   2.140   0.918
13773SOL     OW52972   2.466   5.264   0.277
13773SOL    HW152973   2.452   5.343   0.337
13773SOL    HW252974   2.509   5.293   0.192
13774SOL     OW52975   8.624   5.662   4.256
13774SOL    HW152976   8.588   5.745   4.299
13774SOL    HW252977   8.643   5.681   4.159
13775SOL     OW52978   4.657   7.361   4.258
13775SOL    HW152979   4.713   7.397   4.333
13775SOL    HW252980   4.715   7.340   4.180
13776SOL     OW52981   5.744   0.443   5.077
13776SOL    HW152982   5.700   0.514   5.023
13776SOL    HW252983   5.819   0.403   5.025
13777SOL     OW52984   0.675   7.368   2.599
13777SOL    HW152985   0.733   7.433   2.551
13777SOL    HW252986   0.716   7.277   2.595
13778SOL     OW52987   9.962   9.001   4.715
13778SOL    HW152988   9.866   8.975   4.712
13778SOL    HW252989   0.016   8.927   4.755
13779SOL     OW52990   7.638   6.147   7.704
13779SOL    HW152991   7.576   6.080   7.663
13779SOL    HW252992   7.587   6.230   7.726
13780SOL     OW52993   6.261   5.553   2.344
13780SOL    HW152994   6.319   5.513   2.415
13780SOL    HW252995   6.233   5.645   2.373
13781SOL     OW52996   2.516   5.891   0.950
13781SOL    HW152997   2.488   5.940   0.868
13781SOL    HW252998   2.531   5.795   0.929
13782SOL     OW52999   8.640   8.582   3.012
13782SOL    HW153000   8.545   8.551   3.012
13782SOL    HW253001   8.660   8.630   3.097
13783SOL     OW53002   3.321   3.844   5.395
13783SOL    HW153003   3.379   3.892   5.461
13783SOL    HW253004   3.319   3.896   5.309
13784SOL     OW53005   3.533   2.569   2.256
13784SOL    HW153006   3.475   2.557   2.337
13784SOL    HW253007   3.591   2.650   2.269
13785SOL     OW53008   7.921   9.333   5.447
13785SOL    HW153009   7.827   9.365   5.456
13785SOL    HW253010   7.933   9.251   5.503
13786SOL     OW53011   2.335   0.705   6.471
13786SOL    HW153012   2.300   0.636   6.534
13786SOL    HW253013   2.263   0.731   6.406
13787SOL     OW53014   5.024   7.305   0.524
13787SOL    HW153015   5.020   7.397   0.484
13787SOL    HW253016   4.931   7.268   0.532
13788SOL     OW53017   0.609   9.185   7.578
13788SOL    HW153018   0.549   9.246   7.630
13788SOL    HW253019   0.642   9.112   7.638
13789SOL     OW53020   1.098   8.217   2.953
13789SOL    HW153021   1.024   8.280   2.931
13789SOL    HW253022   1.182   8.269   2.970
13790SOL     OW53023   3.252   0.331   1.671
13790SOL    HW153024   3.320   0.404   1.681
13790SOL    HW253025   3.250   0.299   1.577
13791SOL     OW53026   6.068   1.046   5.439
13791SOL    HW153027   6.085   0.992   5.357
13791SOL    HW253028   6.061   1.143   5.416
13792SOL     OW53029   2.806   9.459   0.565
13792SOL    HW153030   2.777   9.373   0.524
13792SOL    HW253031   2.748   9.479   0.645
13793SOL     OW53032   6.313   0.759   7.166
13793SOL    HW153033   6.385   0.754   7.097
13793SOL    HW253034   6.227   0.724   7.127
13794SOL     OW53035   0.343   0.036   5.795
13794SOL    HW153036   0.365   9.980   5.875
13794SOL    HW253037   0.362   9.984   5.712
13795SOL     OW53038   9.926   6.040   6.140
13795SOL    HW153039   0.011   6.081   6.108
13795SOL    HW253040   9.946   5.980   6.218
13796SOL     OW53041   3.975   5.029   2.511
13796SOL    HW153042   3.985   4.932   2.488
13796SOL    HW253043   4.056   5.079   2.480
13797SOL     OW53044   7.449   5.554   7.000
13797SOL    HW153045   7.533   5.521   7.041
13797SOL    HW253046   7.374   5.546   7.065
13798SOL     OW53047   9.180   0.836   3.923
13798SOL    HW153048   9.160   0.741   3.901
13798SOL    HW253049   9.162   0.894   3.843
13799SOL     OW53050   5.704   3.276   2.583
13799SOL    HW153051   5.804   3.270   2.579
13799SOL    HW253052   5.676   3.369   2.604
13800SOL     OW53053   3.362   9.329   0.575
13800SOL    HW153054   3.454   9.339   0.613
13800SOL    HW253055   3.323   9.420   0.559
13801SOL     OW53056   7.816   1.278   4.482
13801SOL    HW153057   7.910   1.314   4.476
13801SOL    HW253058   7.757   1.332   4.422
13802SOL     OW53059   7.993   8.041   4.114
13802SOL    HW153060   7.942   7.988   4.182
13802SOL    HW253061   8.090   8.015   4.119
13803SOL     OW53062   1.172   4.706   4.236
13803SOL    HW153063   1.123   4.666   4.314
13803SOL    HW253064   1.264   4.666   4.231
13804SOL     OW53065   2.969   0.204   1.066
13804SOL    HW153066   2.943   0.294   1.100
13804SOL    HW253067   2.900   0.170   1.003
13805SOL     OW53068   0.544   3.333   5.620
13805SOL    HW153069   0.475   3.263   5.641
13805SOL    HW253070   0.540   3.356   5.523
13806SOL     OW53071   3.030   8.470   0.091
13806SOL    HW153072   2.983   8.536   0.032
13806SOL    HW253073   2.986   8.380   0.082
13807SOL     OW53074   2.897   0.871   1.559
13807SOL    HW153075   2.821   0.808   1.544
13807SOL    HW253076   2.971   0.823   1.605
13808SOL     OW53077   9.573   7.896   6.191
13808SOL    HW153078   9.654   7.890   6.133
13808SOL    HW253079   9.498   7.847   6.148
13809SOL     OW53080   4.737   7.474   4.514
13809SOL    HW153081   4.683   7.553   4.483
13809SOL    HW253082   4.688   7.427   4.587
13810SOL     OW53083   3.121   3.673   3.992
13810SOL    HW153084   3.198   3.609   3.993
13810SOL    HW253085   3.132   3.738   3.918
13811SOL     OW53086   4.852   2.886   6.009
13811SOL    HW153087   4.933   2.913   6.061
13811SOL    HW253088   4.776   2.869   6.072
13812SOL     OW53089   4.512   0.068   7.442
13812SOL    HW153090   4.499   0.167   7.439
13812SOL    HW253091   4.484   0.028   7.355
13813SOL     OW53092   6.696   9.156   1.963
13813SOL    HW153093   6.674   9.250   1.935
13813SOL    HW253094   6.617   9.115   2.008
13814SOL     OW53095   9.027   3.079   2.613
13814SOL    HW153096   8.994   3.167   2.580
13814SOL    HW253097   9.041   3.084   2.712
13815SOL     OW53098   3.848   4.599   0.865
13815SOL    HW153099   3.758   4.594   0.820
13815SOL    HW253100   3.920   4.590   0.797
13816SOL     OW53101   1.457   7.916   7.085
13816SOL    HW153102   1.468   7.893   6.988
13816SOL    HW253103   1.431   8.012   7.093
13817SOL     OW53104   8.773   8.194   1.013
13817SOL    HW153105   8.819   8.221   0.928
13817SOL    HW253106   8.817   8.238   1.091
13818SOL     OW53107   8.215   2.100   4.888
13818SOL    HW153108   8.130   2.081   4.937
13818SOL    HW253109   8.194   2.147   4.802
13819SOL     OW53110   2.095   8.609   0.174
13819SOL    HW153111   2.113   8.681   0.240
13819SOL    HW253112   2.165   8.538   0.181
13820SOL     OW53113   9.923   5.346   5.411
13820SOL    HW153114   9.957   5.416   5.348
13820SOL    HW253115   9.828   5.368   5.435
13821SOL     OW53116   2.194   9.627   2.203
13821SOL    HW153117   2.219   9.544   2.253
13821SOL    HW253118   2.252   9.635   2.122
13822SOL     OW53119   2.836   9.779   6.235
13822SOL    HW153120   2.919   9.731   6.265
13822SOL    HW253121   2.756   9.736   6.278
13823SOL     OW53122   1.947   3.793   4.175
13823SOL    HW153123   1.967   3.852   4.252
13823SOL    HW253124   1.914   3.704   4.209
13824SOL     OW53125   2.203   7.450   6.116
13824SOL    HW153126   2.229   7.476   6.209
13824SOL    HW253127   2.106   7.470   6.103
13825SOL     OW53128   8.753   0.686   1.112
13825SOL    HW153129   8.820   0.659   1.043
13825SOL    HW253130   8.666   0.707   1.066
13826SOL     OW53131   9.493   8.016   1.350
13826SOL    HW153132   9.432   8.091   1.374
13826SOL    HW253133   9.442   7.930   1.352
13827SOL     OW53134   4.336   1.955   7.303
13827SOL    HW153135   4.279   1.885   7.346
13827SOL    HW253136   4.300   1.976   7.212
13828SOL     OW53137   4.490   1.569   6.590
13828SOL    HW153138   4.519   1.573   6.686
13828SOL    HW253139   4.508   1.658   6.547
13829SOL     OW53140   2.049   4.085   6.907
13829SOL    HW153141   1.962   4.116   6.869
13829SOL    HW253142   2.043   3.987   6.929
13830SOL     OW53143   0.389   3.558   0.156
13830SOL    HW153144   0.430   3.506   0.230
13830SOL    HW253145   0.457   3.572   0.083
13831SOL     OW53146   3.488   1.994   5.261
13831SOL    HW153147   3.401   1.966   5.301
13831SOL    HW253148   3.563   1.969   5.323
13832SOL     OW53149   2.760   7.878   7.685
13832SOL    HW153150   2.842   7.898   7.738
13832SOL    HW253151   2.724   7.962   7.645
13833SOL     OW53152   5.160   0.132   5.489
13833SOL    HW153153   5.145   0.132   5.587
13833SOL    HW253154   5.105   0.205   5.447
13834SOL     OW53155   1.323   2.600   6.521
13834SOL    HW153156   1.246   2.663   6.510
13834SOL    HW253157   1.375   2.596   6.435
13835SOL     OW53158   3.119   1.368   2.887
13835SOL    HW153159   3.092   1.417   2.804
13835SOL    HW253160   3.210   1.328   2.874
13836SOL     OW53161   0.567   8.336   7.398
13836SOL    HW153162   0.610   8.321   7.487
13836SOL    HW253163   0.515   8.421   7.400
13837SOL     OW53164   8.799   9.726   3.454
13837SOL    HW153165   8.746   9.706   3.536
13837SOL    HW253166   8.858   9.804   3.471
13838SOL     OW53167   4.650   9.135   3.881
13838SOL    HW153168   4.720   9.198   3.916
13838SOL    HW253169   4.562   9.159   3.920
13839SOL     OW53170   7.936   1.487   5.134
13839SOL    HW153171   7.839   1.509   5.140
13839SOL    HW253172   7.978   1.495   5.224
13840SOL     OW53173   2.400   3.554   0.328
13840SOL    HW153174   2.458   3.634   0.346
13840SOL    HW253175   2.304   3.581   0.332
13841SOL     OW53176   7.790   0.265   0.590
13841SOL    HW153177   7.890   0.262   0.595
13841SOL    HW253178   7.761   0.353   0.554
13842SOL     OW53179   8.075   7.116   7.646
13842SOL    HW153180   8.100   7.194   7.702
13842SOL    HW253181   8.150   7.050   7.644
13843SOL     OW53182   1.225   9.961   6.135
13843SOL    HW153183   1.293   9.940   6.065
13843SOL    HW253184   1.146   0.004   6.093
13844SOL     OW53185   9.146   5.755   4.770
13844SOL    HW153186   9.050   5.750   4.741
13844SOL    HW253187   9.203   5.776   4.690
13845SOL     OW53188   2.345   2.189   0.159
13845SOL    HW153189   2.357   2.089   0.156
13845SOL    HW253190   2.374   2.222   0.249
13846SOL     OW53191   0.116   6.192   4.324
13846SOL    HW153192   0.024   6.173   4.359
13846SOL    HW253193   0.148   6.113   4.270
13847SOL     OW53194   4.643   5.960   7.799
13847SOL    HW153195   4.579   5.998   7.866
13847SOL    HW253196   4.728   5.936   7.846
13848SOL     OW53197   9.078   6.859   0.851
13848SOL    HW153198   9.091   6.760   0.846
13848SOL    HW253199   9.008   6.880   0.920
13849SOL     OW53200   1.339   0.127   6.320
13849SOL    HW153201   1.297   0.066   6.253
13849SOL    HW253202   1.403   0.075   6.377
13850SOL     OW53203   6.789   5.214   1.815
13850SOL    HW153204   6.742   5.301   1.804
13850SOL    HW253205   6.780   5.183   1.909
13851SOL     OW53206   4.230   1.531   7.842
13851SOL    HW153207   4.203   1.504   7.934
13851SOL    HW253208   4.236   1.450   7.783
13852SOL     OW53209   2.101   9.738   4.321
13852SOL    HW153210   2.122   9.703   4.412
13852SOL    HW253211   2.003   9.729   4.304
13853SOL     OW53212   1.205   9.121   6.188
13853SOL    HW153213   1.157   9.209   6.197
13853SOL    HW253214   1.300   9.133   6.217
13854SOL     OW53215   4.432   8.830   2.998
13854SOL    HW153216   4.457   8.847   2.903
13854SOL    HW253217   4.511   8.847   3.057
13855SOL     OW53218   6.001   5.504   1.129
13855SOL    HW153219   6.021   5.480   1.033
13855SOL    HW253220   5.903   5.520   1.140
13856SOL     OW53221   9.328   2.187   0.800
13856SOL    HW153222   9.277   2.176   0.715
13856SOL    HW253223   9.384   2.270   0.796
13857SOL     OW53224   7.494   3.576   3.073
13857SOL    HW153225   7.533   3.613   2.989
13857SOL    HW253226   7.404   3.537   3.053
13858SOL     OW53227   3.501   5.619   0.914
13858SOL    HW153228   3.557   5.681   0.969
13858SOL    HW253229   3.531   5.525   0.927
13859SOL     OW53230   1.237   2.141   0.889
13859SOL    HW153231   1.242   2.239   0.874
13859SOL    HW253232   1.239   2.121   0.987
13860SOL     OW53233   8.214   5.702   5.217
13860SOL    HW153234   8.296   5.714   5.272
13860SOL    HW253235   8.138   5.674   5.276
13861SOL     OW53236   4.125   8.430   2.870
13861SOL    HW153237   4.207   8.456   2.818
13861SOL    HW253238   4.119   8.487   2.953
13862SOL     OW53239   2.008   1.142   5.478
13862SOL    HW153240   1.965   1.183   5.397
13862SOL    HW253241   1.953   1.163   5.559
13863SOL     OW53242   3.891   5.374   4.945
13863SOL    HW153243   3.845   5.374   4.856
13863SOL    HW253244   3.866   5.458   4.994
13864SOL     OW53245   6.578   9.735   6.026
13864SOL    HW153246   6.547   9.656   5.973
13864SOL    HW253247   6.674   9.754   6.005
13865SOL     OW53248   1.085   1.375   0.497
13865SOL    HW153249   1.061   1.422   0.582
13865SOL    HW253250   1.057   1.279   0.503
13866SOL     OW53251   1.270   8.896   4.410
13866SOL    HW153252   1.286   8.880   4.508
13866SOL    HW253253   1.256   8.809   4.364
13867SOL     OW53254   0.802   2.824   2.489
13867SOL    HW153255   0.873   2.764   2.452
13867SOL    HW253256   0.717   2.810   2.439
13868SOL     OW53257   1.092   6.424   1.078
13868SOL    HW153258   1.159   6.357   1.046
13868SOL    HW253259   1.087   6.423   1.177
13869SOL     OW53260   0.959   9.799   4.771
13869SOL    HW153261   1.042   9.746   4.760
13869SOL    HW253262   0.965   9.856   4.853
13870SOL     OW53263   1.991   7.728   3.645
13870SOL    HW153264   1.920   7.672   3.688
13870SOL    HW253265   2.036   7.675   3.573
13871SOL     OW53266   3.704   2.290   5.453
13871SOL    HW153267   3.633   2.358   5.439
13871SOL    HW253268   3.675   2.225   5.523
13872SOL     OW53269   1.985   7.252   5.404
13872SOL    HW153270   2.073   7.288   5.372
13872SOL    HW253271   1.912   7.294   5.351
13873SOL     OW53272   9.185   2.650   6.925
13873SOL    HW153273   9.249   2.610   6.991
13873SOL    HW253274   9.093   2.649   6.963
13874SOL     OW53275   0.532   4.413   6.847
13874SOL    HW153276   0.461   4.381   6.909
13874SOL    HW253277   0.599   4.341   6.833
13875SOL     OW53278   9.252   0.311   4.270
13875SOL    HW153279   9.188   0.382   4.240
13875SOL    HW253280   9.202   0.239   4.319
13876SOL     OW53281   7.102   8.046   4.311
13876SOL    HW153282   7.059   7.964   4.272
13876SOL    HW253283   7.139   8.103   4.238
13877SOL     OW53284   6.511   8.420   3.811
13877SOL    HW153285   6.412   8.409   3.809
13877SOL    HW253286   6.554   8.335   3.779
13878SOL     OW53287   8.230   8.550   5.393
13878SOL    HW153288   8.158   8.485   5.366
13878SOL    HW253289   8.318   8.502   5.394
13879SOL     OW53290   7.140   6.306   2.326
13879SOL    HW153291   7.133   6.389   2.381
13879SOL    HW253292   7.196   6.239   2.375
13880SOL     OW53293   2.331   0.857   1.395
13880SOL    HW153294   2.378   0.847   1.483
13880SOL    HW253295   2.338   0.952   1.364
13881SOL     OW53296   9.414   5.862   3.126
13881SOL    HW153297   9.444   5.777   3.083
13881SOL    HW253298   9.378   5.843   3.217
13882SOL     OW53299   7.005   9.080   2.616
13882SOL    HW153300   6.946   9.027   2.555
13882SOL    HW253301   7.072   9.019   2.659
13883SOL     OW53302   2.154   6.774   6.845
13883SOL    HW153303   2.214   6.848   6.872
13883SOL    HW253304   2.067   6.811   6.813
13884SOL     OW53305   3.554   5.830   7.082
13884SOL    HW153306   3.476   5.822   7.144
13884SOL    HW253307   3.590   5.739   7.062
13885SOL     OW53308   6.284   2.340   1.193
13885SOL    HW153309   6.273   2.374   1.099
13885SOL    HW253310   6.371   2.371   1.230
13886SOL     OW53311   9.829   4.211   0.197
13886SOL    HW153312   9.915   4.235   0.152
13886SOL    HW253313   9.816   4.270   0.277
13887SOL     OW53314   1.788   4.805   2.504
13887SOL    HW153315   1.754   4.889   2.545
13887SOL    HW253316   1.819   4.743   2.575
13888SOL     OW53317   3.308   0.389   1.107
13888SOL    HW153318   3.284   0.444   1.187
13888SOL    HW253319   3.348   0.303   1.137
13889SOL     OW53320   0.027   4.888   1.952
13889SOL    HW153321   9.981   4.908   1.866
13889SOL    HW253322   0.017   4.967   2.013
13890SOL     OW53323   5.856   9.647   2.332
13890SOL    HW153324   5.818   9.576   2.273
13890SOL    HW253325   5.790   9.671   2.403
13891SOL     OW53326   3.203   7.390   5.622
13891SOL    HW153327   3.217   7.388   5.523
13891SOL    HW253328   3.136   7.460   5.645
13892SOL     OW53329   5.783   9.136   6.154
13892SOL    HW153330   5.739   9.175   6.234
13892SOL    HW253331   5.756   9.040   6.145
13893SOL     OW53332   2.778   6.371   4.546
13893SOL    HW153333   2.835   6.324   4.479
13893SOL    HW253334   2.698   6.315   4.567
13894SOL     OW53335   4.122   7.322   0.237
13894SOL    HW153336   4.031   7.290   0.211
13894SOL    HW253337   4.191   7.273   0.185
13895SOL     OW53338   8.191   1.829   4.196
13895SOL    HW153339   8.116   1.778   4.238
13895SOL    HW253340   8.260   1.766   4.162
13896SOL     OW53341   5.238   3.645   7.000
13896SOL    HW153342   5.168   3.607   6.940
13896SOL    HW253343   5.307   3.575   7.019
13897SOL     OW53344   0.500   4.906   2.104
13897SOL    HW153345   0.503   4.825   2.162
13897SOL    HW253346   0.425   4.898   2.039
13898SOL     OW53347   2.139   2.971   6.667
13898SOL    HW153348   2.108   2.907   6.736
13898SOL    HW253349   2.110   2.941   6.577
13899SOL     OW53350   8.975   2.453   0.850
13899SOL    HW153351   9.001   2.543   0.814
13899SOL    HW253352   8.970   2.388   0.775
13900SOL     OW53353   4.571   4.956   1.057
13900SOL    HW153354   4.600   4.870   1.099
13900SOL    HW253355   4.568   4.945   0.957
13901SOL     OW53356   1.345   2.717   3.102
13901SOL    HW153357   1.270   2.696   3.165
13901SOL    HW253358   1.343   2.653   3.026
13902SOL     OW53359   4.870   2.937   6.342
13902SOL    HW153360   4.956   2.940   6.291
13902SOL    HW253361   4.835   3.030   6.354
13903SOL     OW53362   2.215   2.601   6.469
13903SOL    HW153363   2.264   2.594   6.556
13903SOL    HW253364   2.153   2.523   6.460
13904SOL     OW53365   4.419   3.003   7.310
13904SOL    HW153366   4.486   3.057   7.258
13904SOL    HW253367   4.465   2.954   7.383
13905SOL     OW53368   5.334   2.242   2.074
13905SOL    HW153369   5.380   2.189   2.002
13905SOL    HW253370   5.237   2.254   2.050
13906SOL     OW53371   8.433   3.504   1.547
13906SOL    HW153372   8.397   3.559   1.622
13906SOL    HW253373   8.499   3.438   1.583
13907SOL     OW53374   7.502   5.004   2.363
13907SOL    HW153375   7.563   4.926   2.374
13907SOL    HW253376   7.495   5.029   2.267
13908SOL     OW53377   5.121   0.736   5.930
13908SOL    HW153378   5.116   0.677   6.010
13908SOL    HW253379   5.214   0.770   5.918
13909SOL     OW53380   2.706   5.325   1.842
13909SOL    HW153381   2.664   5.351   1.755
13909SOL    HW253382   2.804   5.313   1.830
13910SOL     OW53383   4.136   9.489   5.708
13910SOL    HW153384   4.183   9.556   5.650
13910SOL    HW253385   4.202   9.423   5.744
13911SOL     OW53386   5.420   8.968   7.509
13911SOL    HW153387   5.464   8.886   7.546
13911SOL    HW253388   5.453   9.048   7.559
13912SOL     OW53389   1.526   7.950   5.823
13912SOL    HW153390   1.541   7.886   5.749
13912SOL    HW253391   1.449   7.918   5.880
13913SOL     OW53392   7.971   1.037   3.428
13913SOL    HW153393   7.943   1.116   3.373
13913SOL    HW253394   7.893   1.004   3.481
13914SOL     OW53395   8.921   0.144   5.143
13914SOL    HW153396   8.871   0.159   5.229
13914SOL    HW253397   8.884   0.204   5.072
13915SOL     OW53398   3.988   6.752   1.324
13915SOL    HW153399   4.064   6.694   1.352
13915SOL    HW253400   4.007   6.790   1.233
13916SOL     OW53401   0.982   4.904   3.724
13916SOL    HW153402   1.047   4.942   3.789
13916SOL    HW253403   1.025   4.894   3.635
13917SOL     OW53404   7.262   8.693   2.852
13917SOL    HW153405   7.181   8.642   2.880
13917SOL    HW253406   7.326   8.631   2.808
13918SOL     OW53407   3.088   4.465   2.210
13918SOL    HW153408   3.026   4.541   2.197
13918SOL    HW253409   3.038   4.379   2.201
13919SOL     OW53410   8.356   2.682   0.531
13919SOL    HW153411   8.379   2.713   0.623
13919SOL    HW253412   8.352   2.761   0.469
13920SOL     OW53413   6.634   1.448   3.760
13920SOL    HW153414   6.556   1.387   3.753
13920SOL    HW253415   6.633   1.513   3.684
13921SOL     OW53416   7.178   0.336   5.648
13921SOL    HW153417   7.188   0.341   5.747
13921SOL    HW253418   7.119   0.410   5.616
13922SOL     OW53419   2.570   1.231   2.553
13922SOL    HW153420   2.606   1.200   2.641
13922SOL    HW253421   2.579   1.158   2.486
13923SOL     OW53422   0.211   0.043   6.757
13923SOL    HW153423   0.238   0.030   6.853
13923SOL    HW253424   0.196   9.954   6.714
13924SOL     OW53425   8.389   4.127   4.489
13924SOL    HW153426   8.364   4.126   4.392
13924SOL    HW253427   8.319   4.176   4.541
13925SOL     OW53428   2.440   1.954   2.700
13925SOL    HW153429   2.418   1.937   2.796
13925SOL    HW253430   2.372   1.909   2.642
13926SOL     OW53431   3.164   7.649   0.267
13926SOL    HW153432   3.247   7.594   0.267
13926SOL    HW253433   3.084   7.589   0.268
13927SOL     OW53434   3.288   3.945   5.140
13927SOL    HW153435   3.349   4.011   5.097
13927SOL    HW253436   3.193   3.975   5.129
13928SOL     OW53437   9.041   6.391   7.196
13928SOL    HW153438   8.941   6.387   7.197
13928SOL    HW253439   9.070   6.487   7.198
13929SOL     OW53440   6.451   9.321   7.391
13929SOL    HW153441   6.375   9.336   7.327
13929SOL    HW253442   6.428   9.245   7.452
13930SOL     OW53443   0.946   2.511   2.898
13930SOL    HW153444   1.001   2.527   2.816
13930SOL    HW253445   0.850   2.499   2.872
13931SOL     OW53446   7.361   1.640   6.107
13931SOL    HW153447   7.436   1.706   6.104
13931SOL    HW253448   7.292   1.665   6.039
13932SOL     OW53449   2.301   6.921   0.434
13932SOL    HW153450   2.246   6.844   0.402
13932SOL    HW253451   2.333   6.904   0.527
13933SOL     OW53452   1.402   6.343   5.837
13933SOL    HW153453   1.483   6.285   5.834
13933SOL    HW253454   1.427   6.435   5.866
13934SOL     OW53455   3.056   3.493   4.510
13934SOL    HW153456   3.133   3.496   4.574
13934SOL    HW253457   2.980   3.547   4.547
13935SOL     OW53458   2.831   0.447   7.072
13935SOL    HW153459   2.893   0.412   7.142
13935SOL    HW253460   2.867   0.424   6.981
13936SOL     OW53461   9.886   3.098   3.952
13936SOL    HW153462   9.815   3.151   3.906
13936SOL    HW253463   9.871   3.099   4.051
13937SOL     OW53464   1.372   9.303   2.314
13937SOL    HW153465   1.338   9.394   2.338
13937SOL    HW253466   1.355   9.286   2.217
13938SOL     OW53467   4.971   2.789   5.287
13938SOL    HW153468   4.974   2.888   5.269
13938SOL    HW253469   5.054   2.747   5.251
13939SOL     OW53470   6.610   4.848   2.217
13939SOL    HW153471   6.526   4.861   2.270
13939SOL    HW253472   6.680   4.913   2.249
13940SOL     OW53473   2.167   2.156   7.045
13940SOL    HW153474   2.175   2.078   7.107
13940SOL    HW253475   2.073   2.189   7.045
13941SOL     OW53476   9.230   7.061   0.963
13941SOL    HW153477   9.173   7.113   1.028
13941SOL    HW253478   9.172   6.996   0.913
13942SOL     OW53479   2.330   3.126   4.403
13942SOL    HW153480   2.402   3.190   4.374
13942SOL    HW253481   2.280   3.094   4.322
13943SOL     OW53482   6.235   0.273   5.673
13943SOL    HW153483   6.175   0.346   5.639
13943SOL    HW253484   6.180   0.192   5.694
13944SOL     OW53485   8.483   2.922   6.090
13944SOL    HW153486   8.437   2.909   6.002
13944SOL    HW253487   8.516   2.834   6.123
13945SOL     OW53488   7.639   8.393   5.887
13945SOL    HW153489   7.688   8.455   5.826
13945SOL    HW253490   7.586   8.328   5.833
13946SOL     OW53491   1.602   7.640   6.122
13946SOL    HW153492   1.686   7.690   6.142
13946SOL    HW253493   1.591   7.632   6.023
13947SOL     OW53494   3.748   9.179   1.265
13947SOL    HW153495   3.811   9.102   1.251
13947SOL    HW253496   3.683   9.157   1.337
13948SOL     OW53497   3.318   4.994   6.142
13948SOL    HW153498   3.294   4.900   6.117
13948SOL    HW253499   3.315   5.004   6.241
13949SOL     OW53500   2.060   9.296   7.517
13949SOL    HW153501   2.129   9.247   7.463
13949SOL    HW253502   2.103   9.335   7.599
13950SOL     OW53503   1.888   3.150   2.358
13950SOL    HW153504   1.928   3.217   2.421
13950SOL    HW253505   1.945   3.141   2.277
13951SOL     OW53506   4.941   2.777   4.657
13951SOL    HW153507   5.008   2.728   4.714
13951SOL    HW253508   4.864   2.717   4.637
13952SOL     OW53509   3.940   4.225   2.579
13952SOL    HW153510   4.010   4.289   2.548
13952SOL    HW253511   3.931   4.151   2.512
13953SOL     OW53512   2.863   7.247   4.937
13953SOL    HW153513   2.816   7.251   5.025
13953SOL    HW253514   2.868   7.339   4.898
13954SOL     OW53515   2.330   0.218   4.460
13954SOL    HW153516   2.258   0.151   4.472
13954SOL    HW253517   2.290   0.307   4.439
13955SOL     OW53518   4.793   4.742   2.522
13955SOL    HW153519   4.814   4.711   2.429
13955SOL    HW253520   4.765   4.664   2.577
13956SOL     OW53521   3.702   1.409   5.851
13956SOL    HW153522   3.734   1.472   5.780
13956SOL    HW253523   3.624   1.449   5.898
13957SOL     OW53524   5.666   7.315   3.882
13957SOL    HW153525   5.751   7.264   3.893
13957SOL    HW253526   5.615   7.314   3.968
13958SOL     OW53527   0.378   4.542   6.019
13958SOL    HW153528   0.417   4.612   6.079
13958SOL    HW253529   0.436   4.461   6.020
13959SOL     OW53530   4.153   6.312   3.279
13959SOL    HW153531   4.237   6.291   3.228
13959SOL    HW253532   4.175   6.325   3.376
13960SOL     OW53533   0.867   4.504   2.189
13960SOL    HW153534   0.814   4.468   2.266
13960SOL    HW253535   0.912   4.428   2.142
13961SOL     OW53536   8.189   3.173   0.439
13961SOL    HW153537   8.187   3.260   0.389
13961SOL    HW253538   8.283   3.150   0.463
13962SOL     OW53539   3.727   5.237   1.570
13962SOL    HW153540   3.815   5.284   1.574
13962SOL    HW253541   3.654   5.305   1.567
13963SOL     OW53542   9.314   3.746   1.952
13963SOL    HW153543   9.265   3.668   1.913
13963SOL    HW253544   9.302   3.826   1.893
13964SOL     OW53545   3.163   0.314   4.498
13964SOL    HW153546   3.095   0.374   4.540
13964SOL    HW253547   3.224   0.369   4.440
13965SOL     OW53548   4.766   3.255   5.485
13965SOL    HW153549   4.824   3.182   5.520
13965SOL    HW253550   4.820   3.318   5.429
13966SOL     OW53551   2.617   5.045   0.346
13966SOL    HW153552   2.566   5.129   0.330
13966SOL    HW253553   2.616   4.989   0.262
13967SOL     OW53554   0.569   2.529   5.475
13967SOL    HW153555   0.616   2.491   5.396
13967SOL    HW253556   0.515   2.458   5.519
13968SOL     OW53557   8.674   1.455   4.672
13968SOL    HW153558   8.758   1.502   4.642
13968SOL    HW253559   8.598   1.520   4.673
13969SOL     OW53560   3.948   8.066   4.398
13969SOL    HW153561   3.936   8.151   4.347
13969SOL    HW253562   3.866   8.048   4.452
13970SOL     OW53563   9.263   6.912   5.225
13970SOL    HW153564   9.323   6.849   5.274
13970SOL    HW253565   9.172   6.873   5.219
13971SOL     OW53566   9.687   9.118   3.390
13971SOL    HW153567   9.711   9.204   3.434
13971SOL    HW253568   9.701   9.043   3.454
13972SOL     OW53569   9.776   3.440   1.633
13972SOL    HW153570   9.856   3.456   1.692
13972SOL    HW253571   9.696   3.419   1.691
13973SOL     OW53572   2.474   5.064   7.584
13973SOL    HW153573   2.387   5.053   7.632
13973SOL    HW253574   2.529   4.982   7.596
13974SOL     OW53575   5.341   4.314   1.130
13974SOL    HW153576   5.405   4.391   1.117
13974SOL    HW253577   5.382   4.231   1.092
13975SOL     OW53578   4.852   8.678   3.161
13975SOL    HW153579   4.876   8.587   3.129
13975SOL    HW253580   4.914   8.705   3.236
13976SOL     OW53581   9.322   6.450   0.704
13976SOL    HW153582   9.264   6.478   0.628
13976SOL    HW253583   9.418   6.471   0.683
13977SOL     OW53584   5.414   1.504   0.973
13977SOL    HW153585   5.325   1.472   0.941
13977SOL    HW253586   5.407   1.536   1.067
13978SOL     OW53587   6.860   0.587   6.301
13978SOL    HW153588   6.909   0.627   6.223
13978SOL    HW253589   6.857   0.653   6.376
13979SOL     OW53590   1.010   1.585   3.080
13979SOL    HW153591   1.069   1.665   3.068
13979SOL    HW253592   1.039   1.535   3.161
13980SOL     OW53593   2.793   6.135   6.946
13980SOL    HW153594   2.861   6.194   6.991
13980SOL    HW253595   2.734   6.191   6.887
13981SOL     OW53596   3.515   1.354   7.679
13981SOL    HW153597   3.596   1.358   7.621
13981SOL    HW253598   3.437   1.392   7.630
13982SOL     OW53599   6.539   9.244   2.465
13982SOL    HW153600   6.536   9.148   2.437
13982SOL    HW253601   6.581   9.251   2.555
13983SOL     OW53602   4.672   5.472   5.182
13983SOL    HW153603   4.724   5.485   5.267
13983SOL    HW253604   4.595   5.410   5.200
13984SOL     OW53605   5.305   3.501   1.480
13984SOL    HW153606   5.229   3.566   1.487
13984SOL    HW253607   5.387   3.542   1.518
13985SOL     OW53608   5.228   4.840   1.846
13985SOL    HW153609   5.324   4.814   1.843
13985SOL    HW253610   5.171   4.758   1.844
13986SOL     OW53611   5.670   0.011   5.904
13986SOL    HW153612   5.695   9.915   5.893
13986SOL    HW253613   5.679   0.037   6.001
13987SOL     OW53614   8.776   3.136   2.903
13987SOL    HW153615   8.779   3.080   2.820
13987SOL    HW253616   8.683   3.134   2.941
13988SOL     OW53617   2.985   4.958   7.612
13988SOL    HW153618   3.051   4.927   7.543
13988SOL    HW253619   2.948   4.879   7.661
13989SOL     OW53620   5.772   8.299   2.802
13989SOL    HW153621   5.835   8.353   2.857
13989SOL    HW253622   5.802   8.299   2.707
13990SOL     OW53623   8.549   5.010   2.780
13990SOL    HW153624   8.578   5.072   2.707
13990SOL    HW253625   8.598   5.031   2.864
13991SOL     OW53626   0.958   0.997   1.835
13991SOL    HW153627   0.981   1.020   1.740
13991SOL    HW253628   0.883   0.932   1.837
13992SOL     OW53629   2.497   9.937   4.381
13992SOL    HW153630   2.492   0.012   4.314
13992SOL    HW253631   2.422   9.947   4.446
13993SOL     OW53632   7.804   2.556   3.135
13993SOL    HW153633   7.746   2.481   3.103
13993SOL    HW253634   7.752   2.642   3.131
13994SOL     OW53635   9.212   1.480   6.563
13994SOL    HW153636   9.121   1.441   6.547
13994SOL    HW253637   9.279   1.436   6.503
13995SOL     OW53638   2.412   4.949   6.217
13995SOL    HW153639   2.423   4.850   6.215
13995SOL    HW253640   2.315   4.972   6.221
13996SOL     OW53641   3.930   0.154   3.619
13996SOL    HW153642   3.953   0.206   3.537
13996SOL    HW253643   3.928   0.056   3.596
13997SOL     OW53644   2.620   7.689   1.673
13997SOL    HW153645   2.640   7.780   1.710
13997SOL    HW253646   2.559   7.640   1.736
13998SOL     OW53647   7.225   1.396   0.898
13998SOL    HW153648   7.204   1.491   0.923
13998SOL    HW253649   7.316   1.392   0.857
13999SOL     OW53650   7.932   0.911   7.109
13999SOL    HW153651   7.958   0.817   7.129
13999SOL    HW253652   8.015   0.967   7.102
14000SOL     OW53653   3.245   3.109   1.222
14000SOL    HW153654   3.182   3.032   1.222
14000SOL    HW253655   3.193   3.194   1.235
14001SOL     OW53656   3.604   0.197   6.677
14001SOL    HW153657   3.582   0.232   6.586
14001SOL    HW253658   3.550   0.114   6.694
14002SOL     OW53659   5.770   0.486   3.535
14002SOL    HW153660   5.825   0.563   3.504
14002SOL    HW253661   5.674   0.512   3.537
14003SOL     OW53662   0.095   7.362   6.750
14003SOL    HW153663   0.126   7.442   6.801
14003SOL    HW253664   0.007   7.382   6.706
14004SOL     OW53665   2.183   4.735   1.100
14004SOL    HW153666   2.237   4.657   1.134
14004SOL    HW253667   2.241   4.816   1.094
14005SOL     OW53668   0.080   1.764   4.882
14005SOL    HW153669   0.107   1.684   4.829
14005SOL    HW253670   9.998   1.742   4.936
14006SOL     OW53671   4.070   8.900   7.330
14006SOL    HW153672   4.034   8.829   7.391
14006SOL    HW253673   4.105   8.976   7.385
14007SOL     OW53674   6.751   1.329   0.465
14007SOL    HW153675   6.842   1.367   0.481
14007SOL    HW253676   6.758   1.248   0.407
14008SOL     OW53677   4.871   9.029   4.444
14008SOL    HW153678   4.952   9.033   4.503
14008SOL    HW253679   4.792   9.067   4.491
14009SOL     OW53680   0.327   7.582   2.511
14009SOL    HW153681   0.388   7.581   2.590
14009SOL    HW253682   0.244   7.531   2.533
14010SOL     OW53683   1.788   1.776   6.979
14010SOL    HW153684   1.783   1.701   6.913
14010SOL    HW253685   1.732   1.852   6.947
14011SOL     OW53686   7.974   9.651   5.767
14011SOL    HW153687   7.985   9.552   5.778
14011SOL    HW253688   8.062   9.697   5.781
14012SOL     OW53689   9.179   4.103   7.351
14012SOL    HW153690   9.200   4.051   7.267
14012SOL    HW253691   9.228   4.062   7.428
14013SOL     OW53692   3.512   7.155   1.866
14013SOL    HW153693   3.430   7.143   1.923
14013SOL    HW253694   3.490   7.215   1.789
14014SOL     OW53695   3.961   0.894   5.976
14014SOL    HW153696   3.935   0.799   5.959
14014SOL    HW253697   4.025   0.898   6.053
14015SOL     OW53698   0.423   5.479   3.501
14015SOL    HW153699   0.350   5.418   3.532
14015SOL    HW253700   0.383   5.560   3.460
14016SOL     OW53701   2.981   0.173   2.568
14016SOL    HW153702   2.980   0.256   2.511
14016SOL    HW253703   2.922   0.187   2.647
14017SOL     OW53704   7.194   5.241   2.038
14017SOL    HW153705   7.150   5.225   1.950
14017SOL    HW253706   7.177   5.163   2.098
14018SOL     OW53707   9.629   8.770   1.876
14018SOL    HW153708   9.539   8.748   1.839
14018SOL    HW253709   9.627   8.758   1.975
14019SOL     OW53710   7.511   3.867   1.478
14019SOL    HW153711   7.418   3.857   1.442
14019SOL    HW253712   7.512   3.937   1.548
14020SOL     OW53713   9.606   6.617   2.227
14020SOL    HW153714   9.663   6.699   2.215
14020SOL    HW253715   9.583   6.579   2.138
14021SOL     OW53716   3.325   5.795   5.813
14021SOL    HW153717   3.324   5.775   5.911
14021SOL    HW253718   3.286   5.885   5.797
14022SOL     OW53719   2.642   2.669   7.055
14022SOL    HW153720   2.624   2.693   6.959
14022SOL    HW253721   2.636   2.570   7.066
14023SOL     OW53722   6.794   8.224   6.960
14023SOL    HW153723   6.696   8.205   6.950
14023SOL    HW253724   6.833   8.246   6.870
14024SOL     OW53725   6.704   8.061   5.472
14024SOL    HW153726   6.781   8.023   5.419
14024SOL    HW253727   6.735   8.143   5.521
14025SOL     OW53728   0.358   4.513   3.370
14025SOL    HW153729   0.443   4.540   3.325
14025SOL    HW253730   0.379   4.463   3.454
14026SOL     OW53731   2.006   1.303   3.316
14026SOL    HW153732   1.907   1.286   3.319
14026SOL    HW253733   2.023   1.401   3.327
14027SOL     OW53734   8.373   8.214   1.454
14027SOL    HW153735   8.407   8.124   1.429
14027SOL    HW253736   8.397   8.280   1.382
14028SOL     OW53737   0.768   3.169   0.359
14028SOL    HW153738   0.864   3.161   0.385
14028SOL    HW253739   0.724   3.080   0.363
14029SOL     OW53740   7.283   5.911   1.010
14029SOL    HW153741   7.193   5.887   1.047
14029SOL    HW253742   7.337   5.957   1.080
14030SOL     OW53743   2.119   5.568   7.402
14030SOL    HW153744   2.109   5.526   7.311
14030SOL    HW253745   2.179   5.648   7.395
14031SOL     OW53746   7.084   9.093   4.544
14031SOL    HW153747   7.097   9.116   4.641
14031SOL    HW253748   7.030   9.009   4.537
14032SOL     OW53749   2.842   8.470   5.000
14032SOL    HW153750   2.904   8.537   4.960
14032SOL    HW253751   2.880   8.378   4.989
14033SOL     OW53752   2.121   5.833   5.087
14033SOL    HW153753   2.219   5.822   5.069
14033SOL    HW253754   2.109   5.887   5.170
14034SOL     OW53755   5.521   0.867   6.324
14034SOL    HW153756   5.482   0.803   6.390
14034SOL    HW253757   5.451   0.891   6.256
14035SOL     OW53758   9.236   4.314   3.117
14035SOL    HW153759   9.202   4.401   3.153
14035SOL    HW253760   9.335   4.318   3.107
14036SOL     OW53761   7.795   9.115   6.495
14036SOL    HW153762   7.769   9.141   6.588
14036SOL    HW253763   7.853   9.185   6.456
14037SOL     OW53764   4.042   1.831   5.102
14037SOL    HW153765   4.141   1.834   5.108
14037SOL    HW253766   4.007   1.920   5.073
14038SOL     OW53767   1.921   6.596   2.655
14038SOL    HW153768   1.925   6.588   2.556
14038SOL    HW253769   1.914   6.692   2.681
14039SOL     OW53770   5.872   1.902   0.626
14039SOL    HW153771   5.840   1.851   0.547
14039SOL    HW253772   5.807   1.892   0.701
14040SOL     OW53773   6.600   2.455   3.458
14040SOL    HW153774   6.692   2.484   3.433
14040SOL    HW253775   6.533   2.516   3.414
14041SOL     OW53776   5.174   2.765   1.570
14041SOL    HW153777   5.086   2.813   1.564
14041SOL    HW253778   5.218   2.788   1.657
14042SOL     OW53779   9.833   1.717   5.011
14042SOL    HW153780   9.783   1.797   4.979
14042SOL    HW253781   9.799   1.635   4.964
14043SOL     OW53782   0.187   1.024   7.598
14043SOL    HW153783   0.099   1.022   7.645
14043SOL    HW253784   0.184   0.966   7.517
14044SOL     OW53785   7.072   9.006   7.168
14044SOL    HW153786   6.992   9.034   7.114
14044SOL    HW253787   7.055   8.915   7.206
14045SOL     OW53788   8.192   1.133   4.962
14045SOL    HW153789   8.122   1.083   4.910
14045SOL    HW253790   8.281   1.089   4.950
14046SOL     OW53791   1.194   5.225   0.474
14046SOL    HW153792   1.157   5.316   0.458
14046SOL    HW253793   1.233   5.190   0.388
14047SOL     OW53794   3.558   0.538   6.976
14047SOL    HW153795   3.608   0.624   6.991
14047SOL    HW253796   3.620   0.469   6.940
14048SOL     OW53797   0.710   8.909   3.291
14048SOL    HW153798   0.678   8.929   3.198
14048SOL    HW253799   0.652   8.955   3.357
14049SOL     OW53800   9.571   3.984   4.952
14049SOL    HW153801   9.536   3.956   5.042
14049SOL    HW253802   9.660   4.029   4.964
14050SOL     OW53803   5.428   1.849   1.346
14050SOL    HW153804   5.338   1.884   1.318
14050SOL    HW253805   5.495   1.923   1.340
14051SOL     OW53806   6.240   0.693   5.313
14051SOL    HW153807   6.261   0.685   5.410
14051SOL    HW253808   6.248   0.603   5.269
14052SOL     OW53809   8.710   4.320   3.627
14052SOL    HW153810   8.733   4.340   3.722
14052SOL    HW253811   8.627   4.264   3.624
14053SOL     OW53812   7.340   2.146   2.577
14053SOL    HW153813   7.439   2.143   2.592
14053SOL    HW253814   7.301   2.056   2.595
14054SOL     OW53815   8.430   1.694   4.779
14054SOL    HW153816   8.509   1.738   4.820
14054SOL    HW253817   8.446   1.680   4.681
14055SOL     OW53818   0.073   4.821   2.376
14055SOL    HW153819   0.108   4.736   2.336
14055SOL    HW253820   0.119   4.899   2.335
14056SOL     OW53821   5.266   2.733   4.508
14056SOL    HW153822   5.203   2.769   4.439
14056SOL    HW253823   5.224   2.655   4.555
14057SOL     OW53824   3.492   6.511   1.437
14057SOL    HW153825   3.449   6.538   1.523
14057SOL    HW253826   3.580   6.558   1.428
14058SOL     OW53827   8.194   7.270   4.175
14058SOL    HW153828   8.208   7.171   4.179
14058SOL    HW253829   8.276   7.317   4.209
14059SOL     OW53830   8.492   7.560   5.413
14059SOL    HW153831   8.425   7.615   5.362
14059SOL    HW253832   8.567   7.534   5.352
14060SOL     OW53833   9.942   9.444   2.808
14060SOL    HW153834   0.005   9.485   2.742
14060SOL    HW253835   9.848   9.471   2.785
14061SOL     OW53836   8.731   7.235   3.389
14061SOL    HW153837   8.727   7.263   3.293
14061SOL    HW253838   8.665   7.162   3.405
14062SOL     OW53839   9.714   5.630   0.495
14062SOL    HW153840   9.739   5.688   0.418
14062SOL    HW253841   9.624   5.589   0.478
14063SOL     OW53842   1.901   1.767   6.647
14063SOL    HW153843   1.938   1.841   6.703
14063SOL    HW253844   1.860   1.697   6.707
14064SOL     OW53845   7.069   8.490   2.905
14064SOL    HW153846   7.150   8.432   2.905
14064SOL    HW253847   6.999   8.449   2.963
14065SOL     OW53848   6.293   5.681   0.573
14065SOL    HW153849   6.385   5.655   0.543
14065SOL    HW253850   6.274   5.775   0.545
14066SOL     OW53851   2.174   7.388   4.383
14066SOL    HW153852   2.119   7.367   4.303
14066SOL    HW253853   2.152   7.324   4.456
14067SOL     OW53854   4.246   5.111   4.605
14067SOL    HW153855   4.293   5.108   4.517
14067SOL    HW253856   4.312   5.125   4.678
14068SOL     OW53857   8.665   2.317   2.942
14068SOL    HW153858   8.600   2.382   2.980
14068SOL    HW253859   8.758   2.344   2.966
14069SOL     OW53860   4.975   0.819   4.364
14069SOL    HW153861   4.896   0.863   4.406
14069SOL    HW253862   4.947   0.731   4.325
14070SOL     OW53863   0.128   4.222   1.381
14070SOL    HW153864   0.081   4.138   1.352
14070SOL    HW253865   0.136   4.285   1.304
14071SOL     OW53866   6.080   2.842   0.318
14071SOL    HW153867   6.160   2.806   0.366
14071SOL    HW253868   6.093   2.831   0.219
14072SOL     OW53869   4.120   6.311   2.779
14072SOL    HW153870   4.197   6.342   2.834
14072SOL    HW253871   4.150   6.296   2.685
14073SOL     OW53872   5.640   6.704   0.159
14073SOL    HW153873   5.573   6.764   0.205
14073SOL    HW253874   5.635   6.720   0.060
14074SOL     OW53875   2.633   4.719   5.900
14074SOL    HW153876   2.555   4.760   5.854
14074SOL    HW253877   2.630   4.619   5.889
14075SOL     OW53878   7.882   3.417   5.364
14075SOL    HW153879   7.900   3.334   5.312
14075SOL    HW253880   7.803   3.404   5.424
14076SOL     OW53881   1.861   9.916   1.147
14076SOL    HW153882   1.905   9.833   1.112
14076SOL    HW253883   1.762   9.907   1.138
14077SOL     OW53884   7.800   5.831   2.190
14077SOL    HW153885   7.736   5.862   2.120
14077SOL    HW253886   7.752   5.823   2.278
14078SOL     OW53887   1.450   5.472   6.414
14078SOL    HW153888   1.519   5.421   6.363
14078SOL    HW253889   1.407   5.539   6.354
14079SOL     OW53890   6.050   8.953   6.546
14079SOL    HW153891   6.084   9.030   6.600
14079SOL    HW253892   6.056   8.869   6.600
14080SOL     OW53893   3.886   6.785   7.602
14080SOL    HW153894   3.960   6.719   7.589
14080SOL    HW253895   3.842   6.769   7.691
14081SOL     OW53896   9.697   5.122   7.398
14081SOL    HW153897   9.793   5.108   7.420
14081SOL    HW253898   9.657   5.188   7.461
14082SOL     OW53899   1.567   8.210   1.281
14082SOL    HW153900   1.495   8.140   1.287
14082SOL    HW253901   1.545   8.285   1.344
14083SOL     OW53902   8.005   4.701   1.441
14083SOL    HW153903   7.973   4.664   1.354
14083SOL    HW253904   8.104   4.695   1.446
14084SOL     OW53905   5.953   4.267   0.317
14084SOL    HW153906   5.985   4.177   0.346
14084SOL    HW253907   5.858   4.279   0.345
14085SOL     OW53908   3.612   9.173   3.875
14085SOL    HW153909   3.521   9.137   3.857
14085SOL    HW253910   3.643   9.143   3.965
14086SOL     OW53911   0.120   5.106   4.395
14086SOL    HW153912   0.112   5.168   4.473
14086SOL    HW253913   0.052   5.033   4.403
14087SOL     OW53914   2.130   1.818   1.239
14087SOL    HW153915   2.177   1.762   1.307
14087SOL    HW253916   2.170   1.801   1.148
14088SOL     OW53917   8.750   5.066   7.915
14088SOL    HW153918   8.709   5.011   7.842
14088SOL    HW253919   8.726   5.028   8.004
14089SOL     OW53920   8.378   8.244   5.038
14089SOL    HW153921   8.314   8.176   5.003
14089SOL    HW253922   8.426   8.288   4.963
14090SOL     OW53923   3.210   9.520   5.737
14090SOL    HW153924   3.167   9.430   5.741
14090SOL    HW253925   3.309   9.509   5.743
14091SOL     OW53926   7.881   7.003   2.434
14091SOL    HW153927   7.968   6.955   2.425
14091SOL    HW253928   7.889   7.075   2.503
14092SOL     OW53929   1.042   0.561   1.336
14092SOL    HW153930   1.041   0.482   1.275
14092SOL    HW253931   0.955   0.567   1.383
14093SOL     OW53932   8.946   6.636   0.249
14093SOL    HW153933   8.915   6.585   0.169
14093SOL    HW253934   8.941   6.578   0.331
14094SOL     OW53935   8.288   0.474   3.758
14094SOL    HW153936   8.360   0.461   3.691
14094SOL    HW253937   8.244   0.387   3.779
14095SOL     OW53938   3.952   6.581   4.291
14095SOL    HW153939   3.978   6.627   4.206
14095SOL    HW253940   3.897   6.642   4.347
14096SOL     OW53941   6.384   0.181   4.644
14096SOL    HW153942   6.312   0.120   4.679
14096SOL    HW253943   6.341   0.258   4.597
14097SOL     OW53944   9.506   8.579   7.579
14097SOL    HW153945   9.507   8.485   7.547
14097SOL    HW253946   9.530   8.641   7.504
14098SOL     OW53947   8.430   1.370   3.213
14098SOL    HW153948   8.346   1.366   3.267
14098SOL    HW253949   8.500   1.311   3.255
14099SOL     OW53950   5.183   9.042   2.306
14099SOL    HW153951   5.123   9.038   2.385
14099SOL    HW253952   5.257   8.975   2.317
14100SOL     OW53953   6.237   8.308   6.925
14100SOL    HW153954   6.259   8.363   6.844
14100SOL    HW253955   6.289   8.341   7.004
14101SOL     OW53956   9.985   5.358   0.362
14101SOL    HW153957   9.968   5.428   0.293
14101SOL    HW253958   9.920   5.283   0.350
14102SOL     OW53959   5.593   8.159   3.744
14102SOL    HW153960   5.610   8.076   3.692
14102SOL    HW253961   5.495   8.171   3.758
14103SOL     OW53962   1.761   3.998   1.066
14103SOL    HW153963   1.695   3.924   1.055
14103SOL    HW253964   1.756   4.034   1.160
14104SOL     OW53965   3.779   3.948   7.588
14104SOL    HW153966   3.851   3.928   7.521
14104SOL    HW253967   3.774   3.873   7.654
14105SOL     OW53968   2.043   0.287   1.961
14105SOL    HW153969   1.977   0.241   1.901
14105SOL    HW253970   2.014   0.278   2.056
14106SOL     OW53971   7.234   3.574   3.906
14106SOL    HW153972   7.314   3.596   3.850
14106SOL    HW253973   7.263   3.521   3.986
14107SOL     OW53974   4.618   9.793   4.319
14107SOL    HW153975   4.685   9.784   4.393
14107SOL    HW253976   4.666   9.795   4.231
14108SOL     OW53977   9.028   5.628   5.170
14108SOL    HW153978   8.969   5.594   5.243
14108SOL    HW253979   8.985   5.706   5.125
14109SOL     OW53980   7.961   8.454   1.910
14109SOL    HW153981   8.001   8.368   1.877
14109SOL    HW253982   7.887   8.434   1.974
14110SOL     OW53983   7.757   5.868   2.935
14110SOL    HW153984   7.825   5.942   2.934
14110SOL    HW253985   7.800   5.783   2.966
14111SOL     OW53986   8.286   3.871   4.513
14111SOL    HW153987   8.337   3.957   4.515
14111SOL    HW253988   8.189   3.889   4.525
14112SOL     OW53989   8.527   7.975   5.385
14112SOL    HW153990   8.467   8.050   5.356
14112SOL    HW253991   8.622   7.998   5.363
14113SOL     OW53992   8.523   3.040   7.020
14113SOL    HW153993   8.526   2.955   7.073
14113SOL    HW253994   8.574   3.027   6.934
14114SOL     OW53995   3.144   6.495   5.371
14114SOL    HW153996   3.111   6.534   5.284
14114SOL    HW253997   3.232   6.536   5.393
14115SOL     OW53998   3.337   8.299   3.006
14115SOL    HW153999   3.332   8.304   2.907
14115SOL    HW254000   3.286   8.220   3.039
14116SOL     OW54001   1.086   2.978   4.578
14116SOL    HW154002   1.168   2.973   4.521
14116SOL    HW254003   1.005   2.956   4.523
14117SOL     OW54004   5.842   8.053   5.997
14117SOL    HW154005   5.903   8.132   5.995
14117SOL    HW254006   5.890   7.973   6.033
14118SOL     OW54007   4.353   9.481   5.360
14118SOL    HW154008   4.316   9.548   5.425
14118SOL    HW254009   4.345   9.518   5.267
14119SOL     OW54010   5.699   0.863   6.109
14119SOL    HW154011   5.649   0.871   6.195
14119SOL    HW254012   5.791   0.827   6.127
14120SOL     OW54013   0.282   2.496   4.353
14120SOL    HW154014   0.353   2.453   4.297
14120SOL    HW254015   0.267   2.590   4.323
14121SOL     OW54016   4.598   9.565   1.594
14121SOL    HW154017   4.695   9.542   1.586
14121SOL    HW254018   4.547   9.487   1.631
14122SOL     OW54019   7.198   7.148   4.446
14122SOL    HW154020   7.273   7.200   4.487
14122SOL    HW254021   7.167   7.079   4.512
14123SOL     OW54022   3.654   3.148   1.026
14123SOL    HW154023   3.605   3.137   1.112
14123SOL    HW254024   3.657   3.245   1.002
14124SOL     OW54025   4.833   4.799   7.732
14124SOL    HW154026   4.859   4.880   7.785
14124SOL    HW254027   4.895   4.788   7.655
14125SOL     OW54028   5.840   9.931   3.074
14125SOL    HW154029   5.827   0.007   3.138
14125SOL    HW254030   5.798   9.954   2.986
14126SOL     OW54031   0.357   8.702   4.531
14126SOL    HW154032   0.379   8.798   4.516
14126SOL    HW254033   0.294   8.671   4.459
14127SOL     OW54034   1.324   0.901   2.062
14127SOL    HW154035   1.279   0.982   2.024
14127SOL    HW254036   1.421   0.901   2.037
14128SOL     OW54037   9.154   8.283   3.531
14128SOL    HW154038   9.136   8.244   3.441
14128SOL    HW254039   9.243   8.328   3.531
14129SOL     OW54040   0.901   4.864   5.518
14129SOL    HW154041   0.855   4.928   5.579
14129SOL    HW254042   0.835   4.794   5.489
14130SOL     OW54043   8.983   4.054   0.937
14130SOL    HW154044   8.902   4.093   0.980
14130SOL    HW254045   9.030   3.995   1.002
14131SOL     OW54046   1.236   1.285   7.515
14131SOL    HW154047   1.177   1.255   7.590
14131SOL    HW254048   1.180   1.306   7.435
14132SOL     OW54049   9.871   2.375   1.999
14132SOL    HW154050   9.821   2.297   1.961
14132SOL    HW254051   9.951   2.394   1.942
14133SOL     OW54052   9.548   6.736   4.953
14133SOL    HW154053   9.478   6.681   5.000
14133SOL    HW254054   9.527   6.739   4.855
14134SOL     OW54055   1.115   6.953   5.549
14134SOL    HW154056   1.063   6.939   5.633
14134SOL    HW254057   1.158   7.043   5.551
14135SOL     OW54058   6.688   2.849   3.527
14135SOL    HW154059   6.730   2.909   3.595
14135SOL    HW254060   6.750   2.838   3.449
14136SOL     OW54061   3.506   7.463   1.270
14136SOL    HW154062   3.449   7.514   1.206
14136SOL    HW254063   3.487   7.365   1.261
14137SOL     OW54064   7.555   7.020   6.541
14137SOL    HW154065   7.572   7.109   6.583
14137SOL    HW254066   7.470   7.024   6.489
14138SOL     OW54067   4.132   0.068   2.899
14138SOL    HW154068   4.185   9.986   2.921
14138SOL    HW254069   4.187   0.150   2.916
14139SOL     OW54070   2.103   8.242   6.539
14139SOL    HW154071   2.130   8.186   6.618
14139SOL    HW254072   2.088   8.336   6.568
14140SOL     OW54073   7.579   7.448   6.031
14140SOL    HW154074   7.523   7.526   6.059
14140SOL    HW254075   7.673   7.463   6.058
14141SOL     OW54076   3.422   4.164   5.023
14141SOL    HW154077   3.408   4.204   5.114
14141SOL    HW254078   3.515   4.185   4.991
14142SOL     OW54079   6.808   1.501   4.445
14142SOL    HW154080   6.739   1.443   4.401
14142SOL    HW254081   6.855   1.556   4.375
14143SOL     OW54082   6.815   4.786   2.988
14143SOL    HW154083   6.900   4.816   3.031
14143SOL    HW254084   6.738   4.807   3.049
14144SOL     OW54085   6.442   8.012   5.411
14144SOL    HW154086   6.537   8.029   5.436
14144SOL    HW254087   6.430   7.915   5.388
14145SOL     OW54088   2.641   0.417   0.508
14145SOL    HW154089   2.623   0.324   0.476
14145SOL    HW254090   2.571   0.444   0.575
14146SOL     OW54091   3.433   8.549   0.539
14146SOL    HW154092   3.518   8.570   0.587
14146SOL    HW254093   3.444   8.567   0.441
14147SOL     OW54094   4.202   6.720   3.758
14147SOL    HW154095   4.125   6.658   3.747
14147SOL    HW254096   4.174   6.799   3.814
14148SOL     OW54097   5.126   3.900   6.998
14148SOL    HW154098   5.162   3.974   7.054
14148SOL    HW254099   5.183   3.819   7.009
14149SOL     OW54100   7.721   8.123   7.276
14149SOL    HW154101   7.727   8.220   7.252
14149SOL    HW254102   7.682   8.072   7.200
14150SOL     OW54103   6.518   7.399   3.367
14150SOL    HW154104   6.434   7.372   3.414
14150SOL    HW254105   6.570   7.463   3.424
14151SOL     OW54106   0.952   5.339   4.367
14151SOL    HW154107   0.857   5.313   4.386
14151SOL    HW254108   0.958   5.437   4.354
14152SOL     OW54109   1.606   9.294   3.504
14152SOL    HW154110   1.613   9.363   3.576
14152SOL    HW254111   1.650   9.209   3.535
14153SOL     OW54112   3.562   9.884   5.392
14153SOL    HW154113   3.585   9.945   5.316
14153SOL    HW254114   3.630   9.812   5.400
14154SOL     OW54115   6.664   9.283   5.018
14154SOL    HW154116   6.722   9.283   4.937
14154SOL    HW254117   6.688   9.361   5.076
14155SOL     OW54118   0.907   4.273   5.804
14155SOL    HW154119   0.892   4.176   5.822
14155SOL    HW254120   1.002   4.287   5.776
14156SOL     OW54121   0.804   0.967   4.409
14156SOL    HW154122   0.757   1.037   4.464
14156SOL    HW254123   0.903   0.974   4.424
14157SOL     OW54124   3.561   8.156   1.932
14157SOL    HW154125   3.462   8.163   1.922
14157SOL    HW254126   3.604   8.164   1.842
14158SOL     OW54127   6.841   8.438   7.379
14158SOL    HW154128   6.796   8.367   7.433
14158SOL    HW254129   6.865   8.515   7.438
14159SOL     OW54130   7.649   9.221   5.912
14159SOL    HW154131   7.665   9.281   5.834
14159SOL    HW254132   7.706   9.251   5.989
14160SOL     OW54133   3.306   6.051   7.197
14160SOL    HW154134   3.223   6.088   7.240
14160SOL    HW254135   3.326   5.961   7.235
14161SOL     OW54136   1.380   9.778   4.892
14161SOL    HW154137   1.384   9.799   4.990
14161SOL    HW254138   1.464   9.809   4.848
14162SOL     OW54139   7.917   6.157   7.787
14162SOL    HW154140   7.837   6.154   7.728
14162SOL    HW254141   7.890   6.136   7.881
14163SOL     OW54142   1.462   6.844   3.707
14163SOL    HW154143   1.382   6.841   3.646
14163SOL    HW254144   1.434   6.878   3.797
14164SOL     OW54145   7.694   8.423   1.087
14164SOL    HW154146   7.777   8.369   1.101
14164SOL    HW254147   7.715   8.520   1.099
14165SOL     OW54148   0.384   6.053   3.568
14165SOL    HW154149   0.444   5.984   3.529
14165SOL    HW254150   0.402   6.061   3.666
14166SOL     OW54151   1.969   3.208   6.494
14166SOL    HW154152   2.031   3.211   6.416
14166SOL    HW254153   2.021   3.220   6.579
14167SOL     OW54154   5.074   9.412   3.330
14167SOL    HW154155   5.106   9.348   3.260
14167SOL    HW254156   5.153   9.457   3.372
14168SOL     OW54157   3.751   3.903   5.732
14168SOL    HW154158   3.839   3.951   5.742
14168SOL    HW254159   3.719   3.873   5.822
14169SOL     OW54160   9.471   7.841   7.525
14169SOL    HW154161   9.409   7.851   7.603
14169SOL    HW254162   9.559   7.883   7.546
14170SOL     OW54163   0.710   0.838   2.384
14170SOL    HW154164   0.749   0.855   2.293
14170SOL    HW254165   0.718   0.921   2.440
14171SOL     OW54166   1.822   9.065   3.346
14171SOL    HW154167   1.889   9.109   3.407
14171SOL    HW254168   1.870   9.021   3.270
14172SOL     OW54169   7.695   2.799   2.477
14172SOL    HW154170   7.758   2.733   2.517
14172SOL    HW254171   7.674   2.773   2.383
14173SOL     OW54172   3.920   8.389   2.676
14173SOL    HW154173   3.902   8.292   2.665
14173SOL    HW254174   3.989   8.403   2.746
14174SOL     OW54175   9.239   7.115   5.590
14174SOL    HW154176   9.167   7.046   5.602
14174SOL    HW254177   9.317   7.074   5.543
14175SOL     OW54178   9.181   6.636   1.107
14175SOL    HW154179   9.164   6.614   1.011
14175SOL    HW254180   9.094   6.659   1.152
14176SOL     OW54181   8.488   6.796   4.392
14176SOL    HW154182   8.509   6.869   4.326
14176SOL    HW254183   8.505   6.829   4.485
14177SOL     OW54184   0.741   4.889   3.408
14177SOL    HW154185   0.822   4.936   3.373
14177SOL    HW254186   0.751   4.875   3.507
14178SOL     OW54187   9.220   3.091   4.162
14178SOL    HW154188   9.278   3.101   4.243
14178SOL    HW254189   9.125   3.112   4.186
14179SOL     OW54190   1.791   8.337   2.508
14179SOL    HW154191   1.720   8.281   2.465
14179SOL    HW254192   1.766   8.434   2.500
14180SOL     OW54193   0.629   4.321   3.092
14180SOL    HW154194   0.729   4.319   3.103
14180SOL    HW254195   0.588   4.249   3.147
14181SOL     OW54196   9.814   7.419   0.154
14181SOL    HW154197   9.784   7.513   0.162
14181SOL    HW254198   9.914   7.415   0.163
14182SOL     OW54199   6.846   7.131   2.799
14182SOL    HW154200   6.888   7.041   2.785
14182SOL    HW254201   6.918   7.198   2.819
14183SOL     OW54202   3.247   6.850   1.295
14183SOL    HW154203   3.268   6.902   1.378
14183SOL    HW254204   3.168   6.890   1.249
14184SOL     OW54205   3.519   1.435   2.667
14184SOL    HW154206   3.437   1.491   2.670
14184SOL    HW254207   3.598   1.492   2.643
14185SOL     OW54208   7.946   2.241   0.617
14185SOL    HW154209   8.033   2.283   0.641
14185SOL    HW254210   7.900   2.209   0.701
14186SOL     OW54211   0.672   0.146   5.993
14186SOL    HW154212   0.691   0.166   5.897
14186SOL    HW254213   0.686   0.048   6.009
14187SOL     OW54214   4.014   1.246   5.221
14187SOL    HW154215   3.958   1.205   5.150
14187SOL    HW254216   4.025   1.182   5.297
14188SOL     OW54217   8.801   3.517   1.668
14188SOL    HW154218   8.872   3.456   1.633
14188SOL    HW254219   8.717   3.464   1.685
14189SOL     OW54220   8.991   3.238   5.995
14189SOL    HW154221   8.917   3.210   6.056
14189SOL    HW254222   8.954   3.254   5.903
14190SOL     OW54223   3.311   8.880   5.755
14190SOL    HW154224   3.395   8.831   5.781
14190SOL    HW254225   3.319   8.913   5.661
14191SOL     OW54226   2.376   5.657   3.100
14191SOL    HW154227   2.442   5.639   3.173
14191SOL    HW254228   2.355   5.755   3.096
14192SOL     OW54229   2.197   5.528   0.370
14192SOL    HW154230   2.161   5.438   0.396
14192SOL    HW254231   2.297   5.524   0.367
14193SOL     OW54232   1.375   8.628   4.574
14193SOL    HW154233   1.344   8.710   4.621
14193SOL    HW254234   1.404   8.559   4.641
14194SOL     OW54235   4.545   9.945   1.175
14194SOL    HW154236   4.496   9.917   1.093
14194SOL    HW254237   4.510   0.033   1.207
14195SOL     OW54238   1.130   8.977   6.955
14195SOL    HW154239   1.199   9.049   6.951
14195SOL    HW254240   1.052   9.001   6.898
14196SOL     OW54241   8.565   3.544   7.707
14196SOL    HW154242   8.650   3.593   7.724
14196SOL    HW254243   8.582   3.445   7.709
14197SOL     OW54244   2.906   0.149   5.411
14197SOL    HW154245   2.944   0.168   5.320
14197SOL    HW254246   2.829   0.086   5.403
14198SOL     OW54247   8.166   3.267   7.612
14198SOL    HW154248   8.073   3.234   7.624
14198SOL    HW254249   8.214   3.208   7.547
14199SOL     OW54250   3.444   1.154   1.335
14199SOL    HW154251   3.411   1.189   1.423
14199SOL    HW254252   3.387   1.191   1.262
14200SOL     OW54253   6.687   6.101   0.978
14200SOL    HW154254   6.741   6.153   0.913
14200SOL    HW254255   6.640   6.026   0.930
14201SOL     OW54256   3.916   8.054   7.046
14201SOL    HW154257   3.903   8.153   7.037
14201SOL    HW254258   4.013   8.033   7.044
14202SOL     OW54259   7.522   2.281   1.370
14202SOL    HW154260   7.455   2.211   1.395
14202SOL    HW254261   7.597   2.238   1.320
14203SOL     OW54262   2.268   7.550   7.282
14203SOL    HW154263   2.254   7.453   7.299
14203SOL    HW254264   2.295   7.564   7.187
14204SOL     OW54265   1.085   7.747   4.388
14204SOL    HW154266   1.039   7.658   4.393
14204SOL    HW254267   1.119   7.761   4.295
14205SOL     OW54268   8.408   5.098   1.544
14205SOL    HW154269   8.425   5.194   1.564
14205SOL    HW254270   8.319   5.089   1.499
14206SOL     OW54271   9.170   4.492   1.516
14206SOL    HW154272   9.194   4.588   1.532
14206SOL    HW254273   9.094   4.486   1.451
14207SOL     OW54274   0.211   5.006   7.119
14207SOL    HW154275   0.277   4.937   7.090
14207SOL    HW254276   0.158   4.971   7.196
14208SOL     OW54277   4.510   0.253   0.885
14208SOL    HW154278   4.547   0.278   0.974
14208SOL    HW254279   4.533   0.324   0.819
14209SOL     OW54280   1.212   4.119   0.515
14209SOL    HW154281   1.182   4.076   0.430
14209SOL    HW254282   1.308   4.095   0.532
14210SOL     OW54283   1.189   0.183   1.807
14210SOL    HW154284   1.171   0.234   1.723
14210SOL    HW254285   1.203   0.247   1.883
14211SOL     OW54286   5.657   3.160   1.162
14211SOL    HW154287   5.594   3.122   1.230
14211SOL    HW254288   5.658   3.101   1.081
14212SOL     OW54289   3.453   3.772   2.315
14212SOL    HW154290   3.398   3.852   2.291
14212SOL    HW254291   3.402   3.689   2.291
14213SOL     OW54292   8.356   6.711   7.676
14213SOL    HW154293   8.433   6.743   7.731
14213SOL    HW254294   8.328   6.783   7.613
14214SOL     OW54295   3.008   3.872   4.178
14214SOL    HW154296   3.033   3.854   4.083
14214SOL    HW254297   3.048   3.802   4.237
14215SOL     OW54298   2.038   6.733   1.604
14215SOL    HW154299   2.052   6.825   1.567
14215SOL    HW254300   1.965   6.688   1.553
14216SOL     OW54301   0.982   4.137   0.967
14216SOL    HW154302   0.996   4.235   0.959
14216SOL    HW254303   1.053   4.098   1.025
14217SOL     OW54304   6.274   2.514   3.786
14217SOL    HW154305   6.366   2.482   3.761
14217SOL    HW254306   6.279   2.611   3.811
14218SOL     OW54307   7.694   9.792   3.811
14218SOL    HW154308   7.770   9.776   3.874
14218SOL    HW254309   7.642   9.872   3.841
14219SOL     OW54310   7.154   3.730   0.816
14219SOL    HW154311   7.227   3.738   0.885
14219SOL    HW254312   7.085   3.800   0.833
14220SOL     OW54313   0.283   9.580   6.719
14220SOL    HW154314   0.235   9.518   6.781
14220SOL    HW254315   0.304   9.533   6.634
14221SOL     OW54316   6.609   4.471   0.146
14221SOL    HW154317   6.561   4.509   0.225
14221SOL    HW254318   6.571   4.380   0.125
14222SOL     OW54319   7.471   0.684   1.675
14222SOL    HW154320   7.407   0.701   1.750
14222SOL    HW254321   7.438   0.608   1.620
14223SOL     OW54322   1.766   2.473   0.308
14223SOL    HW154323   1.728   2.458   0.399
14223SOL    HW254324   1.761   2.571   0.285
14224SOL     OW54325   4.985   9.288   7.791
14224SOL    HW154326   4.900   9.235   7.793
14224SOL    HW254327   4.966   9.382   7.818
14225SOL     OW54328   3.613   6.179   6.404
14225SOL    HW154329   3.676   6.198   6.480
14225SOL    HW254330   3.555   6.101   6.428
14226SOL     OW54331   0.052   8.308   5.295
14226SOL    HW154332   0.078   8.356   5.211
14226SOL    HW254333   0.010   8.220   5.273
14227SOL     OW54334   1.900   2.921   7.745
14227SOL    HW154335   1.941   3.009   7.721
14227SOL    HW254336   1.803   2.933   7.763
14228SOL     OW54337   8.154   8.048   7.569
14228SOL    HW154338   8.069   8.082   7.526
14228SOL    HW254339   8.231   8.068   7.509
14229SOL     OW54340   0.512   6.591   1.536
14229SOL    HW154341   0.481   6.650   1.461
14229SOL    HW254342   0.611   6.582   1.532
14230SOL     OW54343   1.125   7.337   4.520
14230SOL    HW154344   1.205   7.311   4.466
14230SOL    HW254345   1.068   7.400   4.466
14231SOL     OW54346   2.780   3.269   7.689
14231SOL    HW154347   2.741   3.202   7.752
14231SOL    HW254348   2.714   3.342   7.673
14232SOL     OW54349   4.558   1.165   5.996
14232SOL    HW154350   4.495   1.161   5.918
14232SOL    HW254351   4.528   1.235   6.060
14233SOL     OW54352   9.837   6.888   6.342
14233SOL    HW154353   9.814   6.890   6.245
14233SOL    HW254354   9.753   6.874   6.395
14234SOL     OW54355   3.903   5.951   0.410
14234SOL    HW154356   3.984   5.893   0.418
14234SOL    HW254357   3.845   5.939   0.491
14235SOL     OW54358   9.817   7.364   7.284
14235SOL    HW154359   9.809   7.288   7.219
14235SOL    HW254360   9.725   7.396   7.309
14236SOL     OW54361   8.722   3.990   2.700
14236SOL    HW154362   8.747   4.059   2.769
14236SOL    HW254363   8.628   3.960   2.717
14237SOL     OW54364   1.003   5.467   2.787
14237SOL    HW154365   1.025   5.383   2.738
14237SOL    HW254366   1.005   5.450   2.885
14238SOL     OW54367   0.643   6.654   6.330
14238SOL    HW154368   0.672   6.615   6.418
14238SOL    HW254369   0.622   6.580   6.266
14239SOL     OW54370   0.093   2.695   1.045
14239SOL    HW154371   0.178   2.681   1.097
14239SOL    HW254372   0.035   2.759   1.095
14240SOL     OW54373   5.385   4.960   2.249
14240SOL    HW154374   5.485   4.960   2.251
14240SOL    HW254375   5.353   4.981   2.156
14241SOL     OW54376   9.219   5.687   2.181
14241SOL    HW154377   9.235   5.591   2.206
14241SOL    HW254378   9.153   5.692   2.106
14242SOL     OW54379   3.540   2.661   6.724
14242SOL    HW154380   3.486   2.620   6.798
14242SOL    HW254381   3.604   2.727   6.762
14243SOL     OW54382   0.313   9.293   1.162
14243SOL    HW154383   0.217   9.282   1.137
14243SOL    HW254384   0.355   9.364   1.105
14244SOL     OW54385   1.164   0.333   1.579
14244SOL    HW154386   1.244   0.343   1.520
14244SOL    HW254387   1.097   0.274   1.534
14245SOL     OW54388   5.288   2.254   0.189
14245SOL    HW154389   5.252   2.327   0.247
14245SOL    HW254390   5.361   2.290   0.131
14246SOL     OW54391   1.843   3.060   6.038
14246SOL    HW154392   1.931   3.097   6.008
14246SOL    HW254393   1.854   3.015   6.126
14247SOL     OW54394   9.522   1.521   1.245
14247SOL    HW154395   9.566   1.579   1.314
14247SOL    HW254396   9.533   1.425   1.271
14248SOL     OW54397   9.745   3.599   5.083
14248SOL    HW154398   9.834   3.581   5.041
14248SOL    HW254399   9.747   3.686   5.132
14249SOL     OW54400   7.201   0.023   3.517
14249SOL    HW154401   7.124   9.991   3.572
14249SOL    HW254402   7.287   9.987   3.555
14250SOL     OW54403   8.570   7.004   3.492
14250SOL    HW154404   8.496   6.938   3.503
14250SOL    HW254405   8.650   6.973   3.542
14251SOL     OW54406   4.593   2.880   5.067
14251SOL    HW154407   4.669   2.882   5.002
14251SOL    HW254408   4.616   2.822   5.145
14252SOL     OW54409   0.027   1.693   1.775
14252SOL    HW154410   9.997   1.726   1.865
14252SOL    HW254411   0.113   1.643   1.786
14253SOL     OW54412   1.466   5.104   4.643
14253SOL    HW154413   1.540   5.086   4.579
14253SOL    HW254414   1.398   5.031   4.637
14254SOL     OW54415   9.920   4.479   1.276
14254SOL    HW154416   9.859   4.405   1.304
14254SOL    HW254417   9.977   4.449   1.200
14255SOL     OW54418   7.374   0.935   4.828
14255SOL    HW154419   7.374   0.968   4.923
14255SOL    HW254420   7.284   0.896   4.807
14256SOL     OW54421   9.746   1.892   1.840
14256SOL    HW154422   9.662   1.838   1.851
14256SOL    HW254423   9.815   1.859   1.905
14257SOL     OW54424   2.165   8.113   3.591
14257SOL    HW154425   2.121   8.194   3.553
14257SOL    HW254426   2.245   8.090   3.535
14258SOL     OW54427   8.641   2.925   0.663
14258SOL    HW154428   8.700   2.875   0.600
14258SOL    HW254429   8.696   2.963   0.738
14259SOL     OW54430   3.002   8.544   6.353
14259SOL    HW154431   2.987   8.618   6.419
14259SOL    HW254432   2.935   8.551   6.279
14260SOL     OW54433   9.773   0.377   5.980
14260SOL    HW154434   9.725   0.318   5.915
14260SOL    HW254435   9.864   0.341   5.997
14261SOL     OW54436   2.265   5.082   5.652
14261SOL    HW154437   2.242   5.166   5.700
14261SOL    HW254438   2.195   5.013   5.671
14262SOL     OW54439   5.842   0.579   5.828
14262SOL    HW154440   5.830   0.572   5.729
14262SOL    HW254441   5.783   0.512   5.873
14263SOL     OW54442   4.204   8.669   5.756
14263SOL    HW154443   4.220   8.668   5.855
14263SOL    HW254444   4.291   8.670   5.708
14264SOL     OW54445   2.020   7.246   4.017
14264SOL    HW154446   1.978   7.319   4.071
14264SOL    HW254447   1.998   7.259   3.921
14265SOL     OW54448   9.646   9.614   5.545
14265SOL    HW154449   9.624   9.707   5.575
14265SOL    HW254450   9.609   9.548   5.611
14266SOL     OW54451   1.632   4.693   0.341
14266SOL    HW154452   1.594   4.650   0.259
14266SOL    HW254453   1.729   4.713   0.327
14267SOL     OW54454   4.348   7.131   3.930
14267SOL    HW154455   4.293   7.048   3.925
14267SOL    HW254456   4.325   7.191   3.853
14268SOL     OW54457   9.287   8.187   1.426
14268SOL    HW154458   9.267   8.276   1.468
14268SOL    HW254459   9.230   8.175   1.345
14269SOL     OW54460   1.631   5.146   2.267
14269SOL    HW154461   1.566   5.144   2.343
14269SOL    HW254462   1.675   5.235   2.264
14270SOL     OW54463   4.359   2.259   4.296
14270SOL    HW154464   4.381   2.209   4.380
14270SOL    HW254465   4.392   2.353   4.304
14271SOL     OW54466   9.834   5.225   5.890
14271SOL    HW154467   9.841   5.319   5.921
14271SOL    HW254468   9.888   5.213   5.806
14272SOL     OW54469   8.878   4.081   1.410
14272SOL    HW154470   8.927   4.169   1.406
14272SOL    HW254471   8.935   4.009   1.370
14273SOL     OW54472   2.553   8.474   0.179
14273SOL    HW154473   2.627   8.421   0.221
14273SOL    HW254474   2.587   8.566   0.158
14274SOL     OW54475   0.693   2.215   7.379
14274SOL    HW154476   0.679   2.247   7.472
14274SOL    HW254477   0.792   2.213   7.359
14275SOL     OW54478   3.612   0.675   3.507
14275SOL    HW154479   3.626   0.771   3.528
14275SOL    HW254480   3.690   0.640   3.455
14276SOL     OW54481   2.398   3.818   3.797
14276SOL    HW154482   2.343   3.739   3.824
14276SOL    HW254483   2.392   3.889   3.867
14277SOL     OW54484   9.090   5.042   5.257
14277SOL    HW154485   9.003   5.005   5.223
14277SOL    HW254486   9.166   5.001   5.207
14278SOL     OW54487   2.541   8.863   1.681
14278SOL    HW154488   2.463   8.913   1.720
14278SOL    HW254489   2.625   8.894   1.724
14279SOL     OW54490   6.126   9.987   3.967
14279SOL    HW154491   6.101   0.060   4.030
14279SOL    HW254492   6.221   9.999   3.937
14280SOL     OW54493   9.442   2.985   6.732
14280SOL    HW154494   9.508   3.021   6.799
14280SOL    HW254495   9.359   2.957   6.779
14281SOL     OW54496   3.020   4.197   3.410
14281SOL    HW154497   3.067   4.166   3.327
14281SOL    HW254498   2.925   4.220   3.388
14282SOL     OW54499   2.068   7.706   6.585
14282SOL    HW154500   1.970   7.726   6.593
14282SOL    HW254501   2.082   7.607   6.588
14283SOL     OW54502   3.571   3.866   4.650
14283SOL    HW154503   3.561   3.766   4.650
14283SOL    HW254504   3.503   3.906   4.711
14284SOL     OW54505   2.008   9.162   2.949
14284SOL    HW154506   1.935   9.204   3.003
14284SOL    HW254507   1.968   9.110   2.874
14285SOL     OW54508   5.842   1.533   0.384
14285SOL    HW154509   5.791   1.481   0.453
14285SOL    HW254510   5.822   1.630   0.394
14286SOL     OW54511   3.000   9.759   6.971
14286SOL    HW154512   2.911   9.714   6.979
14286SOL    HW254513   3.033   9.785   7.061
14287SOL     OW54514   9.161   9.213   5.602
14287SOL    HW154515   9.075   9.165   5.583
14287SOL    HW254516   9.168   9.293   5.543
14288SOL     OW54517   9.790   0.735   1.724
14288SOL    HW154518   9.838   0.659   1.768
14288SOL    HW254519   9.856   0.807   1.701
14289SOL     OW54520   8.920   3.350   6.357
14289SOL    HW154521   9.011   3.390   6.350
14289SOL    HW254522   8.876   3.381   6.441
14290SOL     OW54523   9.303   8.360   2.999
14290SOL    HW154524   9.227   8.424   2.990
14290SOL    HW254525   9.322   8.344   3.095
14291SOL     OW54526   4.556   3.760   7.662
14291SOL    HW154527   4.623   3.686   7.662
14291SOL    HW254528   4.468   3.726   7.629
14292SOL     OW54529   7.446   5.229   0.137
14292SOL    HW154530   7.444   5.130   0.133
14292SOL    HW254531   7.353   5.265   0.126
14293SOL     OW54532   9.907   0.617   3.562
14293SOL    HW154533   9.999   0.594   3.596
14293SOL    HW254534   9.884   0.559   3.485
14294SOL     OW54535   9.120   5.910   4.994
14294SOL    HW154536   9.142   5.847   4.919
14294SOL    HW254537   9.026   5.895   5.024
14295SOL     OW54538   7.088   9.047   3.005
14295SOL    HW154539   7.125   9.125   3.056
14295SOL    HW254540   6.989   9.057   2.997
14296SOL     OW54541   2.548   7.239   5.544
14296SOL    HW154542   2.460   7.194   5.553
14296SOL    HW254543   2.604   7.221   5.625
14297SOL     OW54544   5.688   6.023   1.317
14297SOL    HW154545   5.619   5.953   1.335
14297SOL    HW254546   5.749   5.991   1.244
14298SOL     OW54547   3.557   1.819   2.543
14298SOL    HW154548   3.496   1.835   2.621
14298SOL    HW254549   3.616   1.740   2.563
14299SOL     OW54550   3.476   6.015   4.005
14299SOL    HW154551   3.516   5.973   3.924
14299SOL    HW254552   3.411   5.952   4.047
14300SOL     OW54553   3.275   8.342   4.346
14300SOL    HW154554   3.227   8.266   4.301
14300SOL    HW254555   3.363   8.358   4.302
14301SOL     OW54556   9.528   5.582   6.847
14301SOL    HW154557   9.530   5.482   6.840
14301SOL    HW254558   9.484   5.608   6.933
14302SOL     OW54559   6.822   7.089   4.560
14302SOL    HW154560   6.755   7.016   4.553
14302SOL    HW254561   6.833   7.134   4.471
14303SOL     OW54562   4.012   8.555   6.647
14303SOL    HW154563   3.954   8.485   6.689
14303SOL    HW254564   4.056   8.517   6.565
14304SOL     OW54565   7.232   7.417   5.313
14304SOL    HW154566   7.182   7.333   5.334
14304SOL    HW254567   7.168   7.488   5.284
14305SOL     OW54568   5.063   3.027   2.335
14305SOL    HW154569   5.022   3.030   2.243
14305SOL    HW254570   5.122   3.107   2.346
14306SOL     OW54571   8.300   8.495   2.535
14306SOL    HW154572   8.349   8.468   2.618
14306SOL    HW254573   8.355   8.471   2.454
14307SOL     OW54574   8.134   7.778   0.586
14307SOL    HW154575   8.039   7.776   0.618
14307SOL    HW254576   8.181   7.694   0.614
14308SOL     OW54577   3.114   4.204   5.320
14308SOL    HW154578   3.208   4.234   5.302
14308SOL    HW254579   3.084   4.143   5.247
14309SOL     OW54580   4.905   9.961   6.635
14309SOL    HW154581   4.812   9.934   6.611
14309SOL    HW254582   4.914   9.963   6.735
14310SOL     OW54583   7.094   0.245   7.258
14310SOL    HW154584   7.035   0.319   7.228
14310SOL    HW254585   7.159   0.222   7.185
14311SOL     OW54586   5.599   1.706   4.722
14311SOL    HW154587   5.634   1.767   4.793
14311SOL    HW254588   5.532   1.755   4.667
14312SOL     OW54589   2.597   4.777   2.419
14312SOL    HW154590   2.563   4.831   2.342
14312SOL    HW254591   2.653   4.835   2.479
14313SOL     OW54592   1.054   4.741   7.122
14313SOL    HW154593   0.998   4.786   7.052
14313SOL    HW254594   1.043   4.789   7.209
14314SOL     OW54595   7.964   3.719   0.485
14314SOL    HW154596   8.034   3.679   0.427
14314SOL    HW254597   7.906   3.645   0.522
14315SOL     OW54598   9.859   9.416   2.427
14315SOL    HW154599   9.816   9.494   2.473
14315SOL    HW254600   9.891   9.350   2.495
14316SOL     OW54601   0.645   7.850   7.593
14316SOL    HW154602   0.732   7.888   7.563
14316SOL    HW254603   0.656   7.804   7.681
14317SOL     OW54604   6.496   1.944   0.880
14317SOL    HW154605   6.545   1.909   0.800
14317SOL    HW254606   6.424   2.006   0.851
14318SOL     OW54607   0.706   1.171   1.105
14318SOL    HW154608   0.749   1.257   1.075
14318SOL    HW254609   0.747   1.094   1.056
14319SOL     OW54610   9.202   1.177   5.881
14319SOL    HW154611   9.297   1.156   5.860
14319SOL    HW254612   9.143   1.105   5.846
14320SOL     OW54613   9.329   5.279   6.370
14320SOL    HW154614   9.361   5.368   6.404
14320SOL    HW254615   9.294   5.289   6.277
14321SOL     OW54616   3.629   2.960   4.843
14321SOL    HW154617   3.566   3.023   4.888
14321SOL    HW254618   3.596   2.866   4.854
14322SOL     OW54619   0.455   7.862   1.323
14322SOL    HW154620   0.545   7.820   1.321
14322SOL    HW254621   0.431   7.884   1.418
14323SOL     OW54622   6.887   9.522   7.648
14323SOL    HW154623   6.926   9.614   7.643
14323SOL    HW254624   6.944   9.465   7.708
14324SOL     OW54625   3.651   5.833   7.895
14324SOL    HW154626   3.633   5.860   7.800
14324SOL    HW254627   3.569   5.847   7.950
14325SOL     OW54628   8.423   3.377   1.923
14325SOL    HW154629   8.345   3.313   1.918
14325SOL    HW254630   8.398   3.463   1.880
14326SOL     OW54631   1.570   1.523   1.259
14326SOL    HW154632   1.476   1.496   1.277
14326SOL    HW254633   1.595   1.600   1.317
14327SOL     OW54634   8.026   3.149   1.054
14327SOL    HW154635   7.987   3.228   1.007
14327SOL    HW254636   8.107   3.177   1.104
14328SOL     OW54637   7.341   9.891   1.786
14328SOL    HW154638   7.313   9.797   1.806
14328SOL    HW254639   7.262   9.951   1.798
14329SOL     OW54640   0.469   5.959   7.114
14329SOL    HW154641   0.534   6.035   7.119
14329SOL    HW254642   0.385   5.984   7.162
14330SOL     OW54643   2.332   5.423   1.923
14330SOL    HW154644   2.348   5.522   1.917
14330SOL    HW254645   2.243   5.407   1.967
14331SOL     OW54646   0.103   8.400   3.108
14331SOL    HW154647   0.082   8.497   3.111
14331SOL    HW254648   0.083   8.363   3.017
14332SOL     OW54649   3.992   3.220   5.818
14332SOL    HW154650   4.085   3.246   5.844
14332SOL    HW254651   3.984   3.221   5.718
14333SOL     OW54652   8.313   7.922   0.089
14333SOL    HW154653   8.277   7.900  10.080
14333SOL    HW254654   8.315   8.022   0.100
14334SOL     OW54655   0.266   4.094   0.142
14334SOL    HW154656   0.309   4.132   0.224
14334SOL    HW254657   0.295   3.999   0.130
14335SOL     OW54658   4.153   4.270   6.522
14335SOL    HW154659   4.106   4.358   6.512
14335SOL    HW254660   4.090   4.196   6.498
14336SOL     OW54661   4.806   8.366   6.754
14336SOL    HW154662   4.814   8.459   6.716
14336SOL    HW254663   4.759   8.307   6.688
14337SOL     OW54664   1.885   6.739   0.087
14337SOL    HW154665   1.880   6.837   0.063
14337SOL    HW254666   1.882   6.729   0.186
14338SOL     OW54667   5.903   5.039   0.389
14338SOL    HW154668   5.976   5.089   0.436
14338SOL    HW254669   5.917   4.941   0.401
14339SOL     OW54670   1.221   0.201   0.865
14339SOL    HW154671   1.152   0.273   0.874
14339SOL    HW254672   1.309   0.236   0.896
14340SOL     OW54673   9.631   2.605   6.681
14340SOL    HW154674   9.648   2.667   6.605
14340SOL    HW254675   9.648   2.653   6.767
14341SOL     OW54676   2.658   5.659   6.089
14341SOL    HW154677   2.558   5.666   6.088
14341SOL    HW254678   2.695   5.694   6.003
14342SOL     OW54679   3.052   3.331   7.709
14342SOL    HW154680   3.102   3.263   7.656
14342SOL    HW254681   2.954   3.310   7.707
14343SOL     OW54682   1.000   1.804   7.325
14343SOL    HW154683   0.993   1.706   7.344
14343SOL    HW254684   0.958   1.856   7.400
14344SOL     OW54685   9.978   2.152   4.246
14344SOL    HW154686   0.054   2.088   4.244
14344SOL    HW254687   0.001   2.230   4.303
14345SOL     OW54688   6.529   5.197   2.354
14345SOL    HW154689   6.456   5.164   2.295
14345SOL    HW254690   6.565   5.283   2.317
14346SOL     OW54691   2.169   1.009   6.018
14346SOL    HW154692   2.113   1.003   5.935
14346SOL    HW254693   2.239   1.079   6.005
14347SOL     OW54694   1.498   0.867   3.236
14347SOL    HW154695   1.558   0.940   3.204
14347SOL    HW254696   1.481   0.878   3.334
14348SOL     OW54697   2.336   7.854   3.802
14348SOL    HW154698   2.392   7.911   3.741
14348SOL    HW254699   2.242   7.889   3.804
14349SOL     OW54700   2.624   1.288   4.506
14349SOL    HW154701   2.573   1.239   4.576
14349SOL    HW254702   2.608   1.386   4.516
14350SOL     OW54703   8.231   5.691   1.511
14350SOL    HW154704   8.184   5.742   1.439
14350SOL    HW254705   8.325   5.726   1.520
14351SOL     OW54706   8.358   6.831   3.546
14351SOL    HW154707   8.319   6.778   3.471
14351SOL    HW254708   8.285   6.869   3.602
14352SOL     OW54709   3.252   9.196   6.134
14352SOL    HW154710   3.316   9.265   6.099
14352SOL    HW254711   3.262   9.189   6.233
14353SOL     OW54712   2.842   2.958   6.435
14353SOL    HW154713   2.841   3.041   6.491
14353SOL    HW254714   2.817   2.879   6.491
14354SOL     OW54715   1.736   5.977   0.218
14354SOL    HW154716   1.769   5.916   0.291
14354SOL    HW254717   1.815   6.017   0.171
14355SOL     OW54718   3.438   0.278   7.182
14355SOL    HW154719   3.535   0.263   7.163
14355SOL    HW254720   3.393   0.315   7.101
14356SOL     OW54721   0.061   9.620   7.543
14356SOL    HW154722   0.127   9.646   7.473
14356SOL    HW254723   0.033   9.701   7.594
14357SOL     OW54724   8.375   7.373   5.570
14357SOL    HW154725   8.458   7.339   5.615
14357SOL    HW254726   8.401   7.440   5.500
14358SOL     OW54727   2.483   3.625   2.808
14358SOL    HW154728   2.542   3.567   2.752
14358SOL    HW254729   2.387   3.603   2.790
14359SOL     OW54730   0.100   4.528   6.003
14359SOL    HW154731   0.083   4.565   5.912
14359SOL    HW254732   0.198   4.516   6.017
14360SOL     OW54733   1.056   6.138   0.729
14360SOL    HW154734   1.141   6.192   0.725
14360SOL    HW254735   1.029   6.126   0.824
14361SOL     OW54736   9.489   6.454   1.072
14361SOL    HW154737   9.490   6.532   1.136
14361SOL    HW254738   9.445   6.482   0.987
14362SOL     OW54739   4.498   8.032   5.229
14362SOL    HW154740   4.464   7.955   5.176
14362SOL    HW254741   4.576   8.073   5.182
14363SOL     OW54742   9.819   1.079   5.854
14363SOL    HW154743   9.798   1.176   5.839
14363SOL    HW254744   9.760   1.023   5.795
14364SOL     OW54745   4.558   2.486   5.191
14364SOL    HW154746   4.626   2.556   5.213
14364SOL    HW254747   4.550   2.422   5.268
14365SOL     OW54748   3.066   2.044   0.617
14365SOL    HW154749   3.164   2.065   0.614
14365SOL    HW254750   3.046   1.992   0.701
14366SOL     OW54751   9.787   7.315   4.182
14366SOL    HW154752   9.720   7.303   4.256
14366SOL    HW254753   9.875   7.344   4.221
14367SOL     OW54754   7.933   5.423   3.972
14367SOL    HW154755   7.951   5.498   4.036
14367SOL    HW254756   7.838   5.392   3.982
14368SOL     OW54757   8.540   6.321   4.489
14368SOL    HW154758   8.557   6.407   4.441
14368SOL    HW254759   8.567   6.329   4.584
14369SOL     OW54760   6.642   8.863   6.122
14369SOL    HW154761   6.661   8.924   6.199
14369SOL    HW254762   6.712   8.875   6.052
14370SOL     OW54763   1.292   4.640   5.453
14370SOL    HW154764   1.266   4.551   5.416
14370SOL    HW254765   1.359   4.683   5.393
14371SOL     OW54766   0.748   5.948   6.317
14371SOL    HW154767   0.766   5.879   6.387
14371SOL    HW254768   0.806   5.930   6.237
14372SOL     OW54769   4.627   4.582   0.883
14372SOL    HW154770   4.631   4.639   0.965
14372SOL    HW254771   4.554   4.615   0.823
14373SOL     OW54772   3.458   4.912   2.441
14373SOL    HW154773   3.392   4.837   2.447
14373SOL    HW254774   3.458   4.948   2.347
14374SOL     OW54775   3.253   0.777   0.285
14374SOL    HW154776   3.300   0.792   0.372
14374SOL    HW254777   3.173   0.719   0.299
14375SOL     OW54778   8.957   5.108   7.391
14375SOL    HW154779   8.933   5.174   7.320
14375SOL    HW254780   8.874   5.071   7.432
14376SOL     OW54781   6.540   8.313   2.473
14376SOL    HW154782   6.624   8.334   2.422
14376SOL    HW254783   6.539   8.215   2.496
14377SOL     OW54784   4.295   6.707   0.501
14377SOL    HW154785   4.282   6.659   0.414
14377SOL    HW254786   4.392   6.705   0.526
14378SOL     OW54787   1.497   2.023   5.126
14378SOL    HW154788   1.521   2.084   5.201
14378SOL    HW254789   1.522   1.929   5.149
14379SOL     OW54790   8.301   8.831   4.792
14379SOL    HW154791   8.251   8.851   4.876
14379SOL    HW254792   8.266   8.889   4.718
14380SOL     OW54793   4.332   1.896   6.677
14380SOL    HW154794   4.408   1.871   6.617
14380SOL    HW254795   4.365   1.955   6.750
14381SOL     OW54796   0.159   6.126   6.004
14381SOL    HW154797   0.258   6.117   6.012
14381SOL    HW254798   0.127   6.072   5.926
14382SOL     OW54799   3.401   1.940   6.371
14382SOL    HW154800   3.325   2.005   6.373
14382SOL    HW254801   3.413   1.901   6.462
14383SOL     OW54802   4.548   9.146   3.387
14383SOL    HW154803   4.451   9.173   3.385
14383SOL    HW254804   4.556   9.049   3.408
14384SOL     OW54805   9.170   8.822   2.672
14384SOL    HW154806   9.216   8.837   2.585
14384SOL    HW254807   9.094   8.887   2.680
14385SOL     OW54808   8.757   4.382   3.894
14385SOL    HW154809   8.839   4.438   3.903
14385SOL    HW254810   8.676   4.441   3.895
14386SOL     OW54811   1.954   2.048   5.321
14386SOL    HW154812   2.042   2.032   5.365
14386SOL    HW254813   1.959   2.129   5.263
14387SOL     OW54814   6.876   7.362   6.989
14387SOL    HW154815   6.881   7.363   6.889
14387SOL    HW254816   6.836   7.275   7.019
14388SOL     OW54817   3.937   3.200   2.500
14388SOL    HW154818   4.028   3.200   2.459
14388SOL    HW254819   3.897   3.292   2.492
14389SOL     OW54820   9.446   5.420   5.321
14389SOL    HW154821   9.376   5.352   5.342
14389SOL    HW254822   9.402   5.506   5.295
14390SOL     OW54823   2.053   8.851   7.564
14390SOL    HW154824   2.137   8.879   7.610
14390SOL    HW254825   2.026   8.761   7.596
14391SOL     OW54826   3.529   3.802   0.147
14391SOL    HW154827   3.527   3.758   0.058
14391SOL    HW254828   3.607   3.768   0.199
14392SOL     OW54829   2.872   1.872   1.487
14392SOL    HW154830   2.950   1.934   1.475
14392SOL    HW254831   2.835   1.884   1.579
14393SOL     OW54832   0.703   9.864   6.001
14393SOL    HW154833   0.621   9.836   5.952
14393SOL    HW254834   0.780   9.871   5.938
14394SOL     OW54835   0.270   3.591   5.061
14394SOL    HW154836   0.295   3.661   4.994
14394SOL    HW254837   0.284   3.626   5.153
14395SOL     OW54838   1.030   4.001   3.453
14395SOL    HW154839   1.064   3.914   3.487
14395SOL    HW254840   1.028   4.000   3.353
14396SOL     OW54841   6.181   2.296   1.473
14396SOL    HW154842   6.092   2.251   1.480
14396SOL    HW254843   6.212   2.294   1.378
14397SOL     OW54844   5.372   6.133   1.041
14397SOL    HW154845   5.436   6.096   0.974
14397SOL    HW254846   5.341   6.060   1.102
14398SOL     OW54847   2.868   2.483   6.488
14398SOL    HW154848   2.781   2.471   6.440
14398SOL    HW254849   2.942   2.496   6.421
14399SOL     OW54850   3.318   7.362   7.008
14399SOL    HW154851   3.239   7.408   7.050
14399SOL    HW254852   3.393   7.360   7.074
14400SOL     OW54853   7.940   0.751   6.041
14400SOL    HW154854   8.034   0.786   6.041
14400SOL    HW254855   7.931   0.678   5.974
14401SOL     OW54856   8.811   6.570   2.617
14401SOL    HW154857   8.762   6.646   2.659
14401SOL    HW254858   8.823   6.497   2.684
14402SOL     OW54859   1.135   2.196   6.449
14402SOL    HW154860   1.039   2.217   6.431
14402SOL    HW254861   1.183   2.187   6.362
14403SOL     OW54862   1.658   6.513   7.520
14403SOL    HW154863   1.695   6.590   7.572
14403SOL    HW254864   1.726   6.441   7.514
14404SOL     OW54865   2.646   0.198   1.762
14404SOL    HW154866   2.728   0.198   1.821
14404SOL    HW254867   2.594   0.114   1.777
14405SOL     OW54868   4.540   1.807   1.586
14405SOL    HW154869   4.522   1.732   1.650
14405SOL    HW254870   4.497   1.891   1.619
14406SOL     OW54871   7.569   8.875   4.405
14406SOL    HW154872   7.611   8.947   4.350
14406SOL    HW254873   7.472   8.895   4.419
14407SOL     OW54874   7.153   0.846   5.210
14407SOL    HW154875   7.150   0.831   5.308
14407SOL    HW254876   7.215   0.780   5.168
14408SOL     OW54877   2.065   8.732   1.172
14408SOL    HW154878   2.068   8.755   1.074
14408SOL    HW254879   2.048   8.634   1.182
14409SOL     OW54880   8.555   8.244   2.533
14409SOL    HW154881   8.514   8.294   2.457
14409SOL    HW254882   8.487   8.180   2.572
14410SOL     OW54883   2.099   4.164   0.082
14410SOL    HW154884   2.104   4.169   0.182
14410SOL    HW254885   2.058   4.248   0.046
14411SOL     OW54886   3.213   5.440   1.506
14411SOL    HW154887   3.271   5.518   1.532
14411SOL    HW254888   3.248   5.357   1.549
14412SOL     OW54889   5.613   3.951   2.060
14412SOL    HW154890   5.650   3.958   1.968
14412SOL    HW254891   5.526   3.902   2.058
14413SOL     OW54892   7.364   0.753   6.470
14413SOL    HW154893   7.323   0.768   6.560
14413SOL    HW254894   7.354   0.836   6.415
14414SOL     OW54895   2.584   0.757   5.991
14414SOL    HW154896   2.618   0.839   5.944
14414SOL    HW254897   2.502   0.780   6.043
14415SOL     OW54898   8.297   3.743   3.221
14415SOL    HW154899   8.390   3.744   3.186
14415SOL    HW254900   8.236   3.790   3.157
14416SOL     OW54901   3.649   3.053   7.644
14416SOL    HW154902   3.699   3.137   7.668
14416SOL    HW254903   3.656   2.988   7.720
14417SOL     OW54904   9.550   6.332   3.624
14417SOL    HW154905   9.557   6.266   3.549
14417SOL    HW254906   9.641   6.365   3.648
14418SOL     OW54907   1.911   6.836   6.371
14418SOL    HW154908   1.999   6.840   6.418
14418SOL    HW254909   1.838   6.832   6.438
14419SOL     OW54910   2.209   0.526   7.488
14419SOL    HW154911   2.256   0.614   7.478
14419SOL    HW254912   2.204   0.502   7.585
14420SOL     OW54913   9.997   9.261   0.251
14420SOL    HW154914   0.059   9.197   0.204
14420SOL    HW254915   0.027   9.272   0.346
14421SOL     OW54916   7.508   8.790   7.493
14421SOL    HW154917   7.565   8.742   7.560
14421SOL    HW254918   7.420   8.743   7.483
14422SOL     OW54919   2.972   2.311   4.437
14422SOL    HW154920   3.043   2.255   4.479
14422SOL    HW254921   2.963   2.397   4.487
14423SOL     OW54922   8.701   3.068   1.989
14423SOL    HW154923   8.708   3.021   2.077
14423SOL    HW254924   8.790   3.104   1.963
14424SOL     OW54925   0.238   8.176   1.527
14424SOL    HW154926   0.240   8.134   1.436
14424SOL    HW254927   0.230   8.275   1.518
14425SOL     OW54928   4.890   7.414   0.927
14425SOL    HW154929   4.921   7.366   1.009
14425SOL    HW254930   4.947   7.495   0.913
14426SOL     OW54931   7.400   6.896   3.767
14426SOL    HW154932   7.485   6.948   3.767
14426SOL    HW254933   7.360   6.897   3.675
14427SOL     OW54934   7.224   2.661   1.744
14427SOL    HW154935   7.233   2.702   1.653
14427SOL    HW254936   7.128   2.636   1.759
14428SOL     OW54937   2.214   1.115   7.051
14428SOL    HW154938   2.168   1.108   6.962
14428SOL    HW254939   2.182   1.041   7.110
14429SOL     OW54940   9.218   1.357   0.391
14429SOL    HW154941   9.252   1.263   0.396
14429SOL    HW254942   9.121   1.357   0.366
14430SOL     OW54943   2.671   0.371   1.284
14430SOL    HW154944   2.661   0.306   1.360
14430SOL    HW254945   2.767   0.398   1.277
14431SOL     OW54946   2.072   4.035   5.521
14431SOL    HW154947   1.984   4.056   5.563
14431SOL    HW254948   2.076   3.937   5.498
14432SOL     OW54949   9.000   1.873   5.039
14432SOL    HW154950   9.069   1.847   5.106
14432SOL    HW254951   8.998   1.972   5.028
14433SOL     OW54952   7.834   5.868   5.879
14433SOL    HW154953   7.850   5.871   5.977
14433SOL    HW254954   7.764   5.935   5.854
14434SOL     OW54955   6.795   1.803   5.568
14434SOL    HW154956   6.735   1.854   5.631
14434SOL    HW254957   6.820   1.716   5.610
14435SOL     OW54958   1.922   6.098   3.172
14435SOL    HW154959   1.933   6.052   3.260
14435SOL    HW254960   1.880   6.188   3.187
14436SOL     OW54961   5.249   4.936   1.010
14436SOL    HW154962   5.272   4.960   0.916
14436SOL    HW254963   5.158   4.972   1.032
14437SOL     OW54964   7.786   3.060   0.698
14437SOL    HW154965   7.856   3.007   0.652
14437SOL    HW254966   7.807   3.158   0.691
14438SOL     OW54967   8.295   2.122   5.644
14438SOL    HW154968   8.238   2.070   5.707
14438SOL    HW254969   8.356   2.060   5.595
14439SOL     OW54970   7.499   6.823   2.737
14439SOL    HW154971   7.510   6.817   2.836
14439SOL    HW254972   7.563   6.761   2.692
14440SOL     OW54973   1.269   9.261   1.333
14440SOL    HW154974   1.233   9.182   1.383
14440SOL    HW254975   1.200   9.295   1.270
14441SOL     OW54976   7.434   6.488   2.208
14441SOL    HW154977   7.534   6.488   2.204
14441SOL    HW254978   7.399   6.407   2.161
14442SOL     OW54979   2.847   5.496   5.783
14442SOL    HW154980   2.827   5.446   5.866
14442SOL    HW254981   2.807   5.448   5.704
14443SOL     OW54982   5.976   3.287   2.573
14443SOL    HW154983   6.047   3.293   2.502
14443SOL    HW254984   5.991   3.357   2.642
14444SOL     OW54985   9.472   1.140   5.850
14444SOL    HW154986   9.486   1.139   5.949
14444SOL    HW254987   9.534   1.206   5.808
14445SOL     OW54988   3.500   7.210   2.520
14445SOL    HW154989   3.583   7.252   2.483
14445SOL    HW254990   3.514   7.190   2.617
14446SOL     OW54991   0.404   9.805   3.834
14446SOL    HW154992   0.316   9.848   3.857
14446SOL    HW254993   0.478   9.862   3.868
14447SOL     OW54994   9.611   4.131   3.121
14447SOL    HW154995   9.683   4.131   3.190
14447SOL    HW254996   9.572   4.223   3.114
14448SOL     OW54997   6.983   4.648   2.278
14448SOL    HW154998   6.965   4.705   2.357
14448SOL    HW254999   7.078   4.660   2.249
14449SOL     OW55000   3.597   3.610   7.332
14449SOL    HW155001   3.545   3.525   7.341
14449SOL    HW255002   3.694   3.589   7.319
14450SOL     OW55003   1.904   6.998   5.336
14450SOL    HW155004   1.929   7.088   5.373
14450SOL    HW255005   1.804   6.989   5.336
14451SOL     OW55006   6.002   1.144   3.812
14451SOL    HW155007   5.997   1.221   3.876
14451SOL    HW255008   5.982   1.176   3.720
14452SOL     OW55009   9.475   8.997   2.572
14452SOL    HW155010   9.402   9.056   2.541
14452SOL    HW255011   9.484   9.005   2.672
14453SOL     OW55012   3.311   4.850   4.777
14453SOL    HW155013   3.346   4.895   4.859
14453SOL    HW255014   3.225   4.803   4.799
14454SOL     OW55015   5.731   8.822   4.677
14454SOL    HW155016   5.670   8.900   4.663
14454SOL    HW255017   5.820   8.842   4.636
14455SOL     OW55018   3.545   7.040   0.993
14455SOL    HW155019   3.638   7.072   0.972
14455SOL    HW255020   3.508   6.992   0.913
14456SOL     OW55021   7.853   1.290   2.071
14456SOL    HW155022   7.935   1.320   2.023
14456SOL    HW255023   7.784   1.262   2.004
14457SOL     OW55024   3.763   1.593   5.656
14457SOL    HW155025   3.852   1.598   5.611
14457SOL    HW255026   3.690   1.594   5.587
14458SOL     OW55027   9.518   7.506   1.105
14458SOL    HW155028   9.427   7.519   1.065
14458SOL    HW255029   9.567   7.434   1.055
14459SOL     OW55030   5.292   1.316   0.360
14459SOL    HW155031   5.349   1.246   0.316
14459SOL    HW255032   5.207   1.274   0.392
14460SOL     OW55033   4.282   0.106   0.849
14460SOL    HW155034   4.358   0.169   0.866
14460SOL    HW255035   4.288   0.073   0.755
14461SOL     OW55036   1.455   0.939   4.486
14461SOL    HW155037   1.552   0.927   4.467
14461SOL    HW255038   1.433   0.897   4.574
14462SOL     OW55039   7.393   3.683   3.695
14462SOL    HW155040   7.477   3.709   3.647
14462SOL    HW255041   7.327   3.757   3.689
14463SOL     OW55042   8.468   8.342   0.858
14463SOL    HW155043   8.554   8.392   0.844
14463SOL    HW255044   8.399   8.404   0.896
14464SOL     OW55045   9.200   2.644   2.287
14464SOL    HW155046   9.243   2.675   2.372
14464SOL    HW255047   9.120   2.702   2.268
14465SOL     OW55048   8.589   2.083   1.634
14465SOL    HW155049   8.523   2.027   1.584
14465SOL    HW255050   8.547   2.170   1.660
14466SOL     OW55051   3.422   7.317   5.759
14466SOL    HW155052   3.413   7.311   5.858
14466SOL    HW255053   3.332   7.327   5.718
14467SOL     OW55054   8.665   3.351   5.527
14467SOL    HW155055   8.660   3.361   5.428
14467SOL    HW255056   8.681   3.255   5.550
14468SOL     OW55057   3.838   1.073   2.283
14468SOL    HW155058   3.790   1.038   2.364
14468SOL    HW255059   3.775   1.126   2.227
14469SOL     OW55060   1.765   2.786   7.179
14469SOL    HW155061   1.771   2.739   7.090
14469SOL    HW255062   1.694   2.743   7.235
14470SOL     OW55063   7.483   7.859   4.245
14470SOL    HW155064   7.463   7.947   4.202
14470SOL    HW255065   7.561   7.816   4.201
14471SOL     OW55066   7.602   8.656   6.879
14471SOL    HW155067   7.675   8.608   6.831
14471SOL    HW255068   7.607   8.634   6.977
14472SOL     OW55069   8.544   2.338   0.749
14472SOL    HW155070   8.531   2.240   0.732
14472SOL    HW255071   8.615   2.350   0.819
14473SOL     OW55072   5.166   0.732   4.544
14473SOL    HW155073   5.101   0.769   4.477
14473SOL    HW255074   5.246   0.697   4.497
14474SOL     OW55075   9.086   3.071   6.724
14474SOL    HW155076   9.135   3.027   6.799
14474SOL    HW255077   9.064   3.003   6.654
14475SOL     OW55078   7.844   7.477   6.093
14475SOL    HW155079   7.898   7.559   6.110
14475SOL    HW255080   7.893   7.416   6.030
14476SOL     OW55081   1.780   0.049   6.944
14476SOL    HW155082   1.725   0.083   6.867
14476SOL    HW255083   1.820   9.961   6.920
14477SOL     OW55084   2.252   9.532   4.197
14477SOL    HW155085   2.199   9.610   4.229
14477SOL    HW255086   2.220   9.504   4.107
14478SOL     OW55087   7.638   8.113   2.293
14478SOL    HW155088   7.678   8.112   2.384
14478SOL    HW255089   7.652   8.203   2.251
14479SOL     OW55090   7.223   5.695   2.072
14479SOL    HW155091   7.226   5.793   2.092
14479SOL    HW255092   7.316   5.658   2.071
14480SOL     OW55093   8.350   6.572   2.148
14480SOL    HW155094   8.376   6.481   2.114
14480SOL    HW255095   8.354   6.638   2.072
14481SOL     OW55096   9.494   6.093   0.642
14481SOL    HW155097   9.449   6.007   0.617
14481SOL    HW255098   9.500   6.100   0.741
14482SOL     OW55099   5.013   0.330   5.361
14482SOL    HW155100   5.001   0.320   5.262
14482SOL    HW255101   4.925   0.353   5.402
14483SOL     OW55102   9.224   8.636   1.161
14483SOL    HW155103   9.237   8.586   1.075
14483SOL    HW255104   9.293   8.707   1.169
14484SOL     OW55105   1.563   0.362   0.120
14484SOL    HW155106   1.587   0.459   0.111
14484SOL    HW255107   1.488   0.340   0.058
14485SOL     OW55108   2.841   6.006   0.629
14485SOL    HW155109   2.834   6.081   0.564
14485SOL    HW255110   2.755   5.954   0.630
14486SOL     OW55111   7.712   7.833   3.824
14486SOL    HW155112   7.616   7.853   3.845
14486SOL    HW255113   7.740   7.883   3.742
14487SOL     OW55114   7.783   0.607   2.818
14487SOL    HW155115   7.804   0.511   2.799
14487SOL    HW255116   7.703   0.612   2.877
14488SOL     OW55117   9.221   4.312   3.675
14488SOL    HW155118   9.131   4.323   3.634
14488SOL    HW255119   9.290   4.354   3.616
14489SOL     OW55120   3.597   8.223   5.392
14489SOL    HW155121   3.551   8.309   5.415
14489SOL    HW255122   3.567   8.191   5.303
14490SOL     OW55123   7.549   8.942   2.362
14490SOL    HW155124   7.568   8.958   2.459
14490SOL    HW255125   7.467   8.993   2.335
14491SOL     OW55126   6.581   4.981   0.753
14491SOL    HW155127   6.648   4.917   0.790
14491SOL    HW255128   6.490   4.958   0.789
14492SOL     OW55129   0.733   4.805   4.107
14492SOL    HW155130   0.635   4.809   4.125
14492SOL    HW255131   0.776   4.739   4.169
14493SOL     OW55132   3.773   9.353   2.508
14493SOL    HW155133   3.705   9.301   2.562
14493SOL    HW255134   3.858   9.360   2.560
14494SOL     OW55135   9.572   3.113   1.344
14494SOL    HW155136   9.591   3.204   1.307
14494SOL    HW255137   9.650   3.084   1.400
14495SOL     OW55138   3.053   4.811   6.770
14495SOL    HW155139   2.955   4.794   6.780
14495SOL    HW255140   3.104   4.727   6.790
14496SOL     OW55141   1.045   8.581   4.536
14496SOL    HW155142   1.002   8.642   4.470
14496SOL    HW255143   1.144   8.592   4.533
14497SOL     OW55144   8.889   0.853   1.288
14497SOL    HW155145   8.841   0.797   1.221
14497SOL    HW255146   8.931   0.932   1.242
14498SOL     OW55147   7.919   8.670   7.749
14498SOL    HW155148   8.010   8.687   7.787
14498SOL    HW255149   7.915   8.576   7.714
14499SOL     OW55150   6.679   8.241   4.810
14499SOL    HW155151   6.626   8.173   4.759
14499SOL    HW255152   6.738   8.292   4.747
14500SOL     OW55153   3.377   4.239   3.473
14500SOL    HW155154   3.295   4.280   3.514
14500SOL    HW255155   3.352   4.152   3.429
14501SOL     OW55156   0.463   4.832   4.152
14501SOL    HW155157   0.423   4.896   4.218
14501SOL    HW255158   0.436   4.859   4.059
14502SOL     OW55159   7.602   5.702   5.132
14502SOL    HW155160   7.586   5.667   5.040
14502SOL    HW255161   7.517   5.744   5.166
14503SOL     OW55162   2.221   7.117   1.707
14503SOL    HW155163   2.174   7.075   1.785
14503SOL    HW255164   2.187   7.211   1.694
14504SOL     OW55165   5.355   1.899   5.559
14504SOL    HW155166   5.277   1.941   5.513
14504SOL    HW255167   5.439   1.946   5.533
14505SOL     OW55168   0.105   3.102   0.427
14505SOL    HW155169   0.178   3.160   0.465
14505SOL    HW255170   0.125   3.006   0.445
14506SOL     OW55171   5.128   3.837   1.317
14506SOL    HW155172   5.122   3.933   1.344
14506SOL    HW255173   5.126   3.779   1.398
14507SOL     OW55174   0.283   1.704   1.443
14507SOL    HW155175   0.249   1.622   1.488
14507SOL    HW255176   0.319   1.681   1.352
14508SOL     OW55177   8.665   0.722   7.015
14508SOL    HW155178   8.585   0.669   7.045
14508SOL    HW255179   8.635   0.801   6.962
14509SOL     OW55180   7.497   2.414   2.431
14509SOL    HW155181   7.561   2.416   2.507
14509SOL    HW255182   7.423   2.479   2.448
14510SOL     OW55183   0.284   6.633   6.324
14510SOL    HW155184   0.242   6.542   6.327
14510SOL    HW255185   0.353   6.639   6.395
14511SOL     OW55186   8.753   2.556   5.588
14511SOL    HW155187   8.661   2.592   5.603
14511SOL    HW255188   8.771   2.550   5.490
14512SOL     OW55189   1.338   7.383   6.410
14512SOL    HW155190   1.327   7.479   6.436
14512SOL    HW255191   1.248   7.340   6.402
14513SOL     OW55192   5.039   5.785   2.144
14513SOL    HW155193   5.077   5.715   2.206
14513SOL    HW255194   4.994   5.856   2.199
14514SOL     OW55195   9.182   1.958   4.265
14514SOL    HW155196   9.222   2.019   4.333
14514SOL    HW255197   9.253   1.930   4.200
14515SOL     OW55198   2.255   9.157   7.358
14515SOL    HW155199   2.307   9.159   7.443
14515SOL    HW255200   2.318   9.161   7.280
14516SOL     OW55201   3.363   4.233   1.895
14516SOL    HW155202   3.394   4.186   1.813
14516SOL    HW255203   3.277   4.192   1.926
14517SOL     OW55204   3.954   4.134   5.535
14517SOL    HW155205   3.877   4.110   5.477
14517SOL    HW255206   4.030   4.167   5.478
14518SOL     OW55207   3.884   7.631   5.171
14518SOL    HW155208   3.800   7.597   5.130
14518SOL    HW255209   3.923   7.561   5.231
14519SOL     OW55210   6.794   9.876   6.588
14519SOL    HW155211   6.854   9.954   6.569
14519SOL    HW255212   6.708   9.909   6.625
14520SOL     OW55213   3.858   0.154   5.097
14520SOL    HW155214   3.903   0.065   5.086
14520SOL    HW255215   3.840   0.194   5.007
14521SOL     OW55216   9.981   2.182   7.488
14521SOL    HW155217   0.015   2.276   7.479
14521SOL    HW255218   9.991   2.153   7.583
14522SOL     OW55219   0.567   7.434   0.142
14522SOL    HW155220   0.491   7.416   0.079
14522SOL    HW255221   0.542   7.508   0.204
14523SOL     OW55222   0.127   4.350   0.468
14523SOL    HW155223   0.090   4.416   0.532
14523SOL    HW255224   0.092   4.259   0.489
14524SOL     OW55225   1.299   8.868   4.689
14524SOL    HW155226   1.365   8.923   4.739
14524SOL    HW255227   1.208   8.879   4.730
14525SOL     OW55228   0.190   5.051   5.094
14525SOL    HW155229   0.125   5.077   5.166
14525SOL    HW255230   0.209   4.953   5.101
14526SOL     OW55231   2.522   5.106   1.553
14526SOL    HW155232   2.456   5.066   1.490
14526SOL    HW255233   2.474   5.155   1.626
14527SOL     OW55234   0.791   8.189   1.051
14527SOL    HW155235   0.875   8.136   1.065
14527SOL    HW255236   0.712   8.133   1.078
14528SOL     OW55237   2.275   7.607   5.430
14528SOL    HW155238   2.184   7.633   5.396
14528SOL    HW255239   2.338   7.684   5.419
14529SOL     OW55240   8.793   1.607   7.203
14529SOL    HW155241   8.888   1.589   7.231
14529SOL    HW255242   8.783   1.584   7.106
14530SOL     OW55243   6.937   9.763   6.359
14530SOL    HW155244   6.891   9.799   6.440
14530SOL    HW255245   7.016   9.707   6.387
14531SOL     OW55246   0.572   1.363   1.262
14531SOL    HW155247   0.574   1.433   1.190
14531SOL    HW255248   0.617   1.280   1.228
14532SOL     OW55249   7.432   2.259   3.609
14532SOL    HW155250   7.410   2.286   3.703
14532SOL    HW255251   7.509   2.195   3.609
14533SOL     OW55252   0.670   1.321   2.461
14533SOL    HW155253   0.678   1.365   2.372
14533SOL    HW255254   0.574   1.315   2.487
14534SOL     OW55255   4.028   2.434   2.157
14534SOL    HW155256   4.027   2.494   2.237
14534SOL    HW255257   4.010   2.340   2.185
14535SOL     OW55258   1.700   3.614   6.344
14535SOL    HW155259   1.650   3.532   6.316
14535SOL    HW255260   1.741   3.656   6.263
14536SOL     OW55261   1.148   2.445   0.316
14536SOL    HW155262   1.164   2.362   0.264
14536SOL    HW255263   1.235   2.477   0.355
14537SOL     OW55264   1.353   4.399   1.518
14537SOL    HW155265   1.321   4.461   1.446
14537SOL    HW255266   1.453   4.404   1.524
14538SOL     OW55267   8.485   2.099   2.952
14538SOL    HW155268   8.561   2.164   2.951
14538SOL    HW255269   8.399   2.148   2.935
14539SOL     OW55270   5.553   9.400   6.803
14539SOL    HW155271   5.514   9.391   6.895
14539SOL    HW255272   5.579   9.310   6.769
14540SOL     OW55273   4.817   0.301   4.341
14540SOL    HW155274   4.734   0.350   4.365
14540SOL    HW255275   4.829   0.223   4.403
14541SOL     OW55276   1.430   3.622   4.173
14541SOL    HW155277   1.510   3.578   4.132
14541SOL    HW255278   1.378   3.555   4.226
14542SOL     OW55279   2.570   6.939   2.578
14542SOL    HW155280   2.575   6.839   2.578
14542SOL    HW255281   2.662   6.977   2.565
14543SOL     OW55282   2.905   5.829   5.083
14543SOL    HW155283   2.871   5.833   4.989
14543SOL    HW255284   2.969   5.752   5.092
14544SOL     OW55285   6.870   7.565   4.150
14544SOL    HW155286   6.909   7.477   4.123
14544SOL    HW255287   6.779   7.575   4.109
14545SOL     OW55288   1.208   1.367   2.090
14545SOL    HW155289   1.146   1.443   2.069
14545SOL    HW255290   1.174   1.283   2.049
14546SOL     OW55291   5.173   8.917   5.737
14546SOL    HW155292   5.148   8.985   5.806
14546SOL    HW255293   5.236   8.851   5.776
14547SOL     OW55294   4.969   9.000   1.804
14547SOL    HW155295   4.974   9.099   1.788
14547SOL    HW255296   5.026   8.952   1.737
14548SOL     OW55297   2.960   7.037   2.225
14548SOL    HW155298   2.958   7.136   2.216
14548SOL    HW255299   2.893   6.996   2.164
14549SOL     OW55300   5.808   9.260   1.833
14549SOL    HW155301   5.731   9.208   1.871
14549SOL    HW255302   5.875   9.277   1.906
14550SOL     OW55303   3.674   2.275   7.041
14550SOL    HW155304   3.635   2.216   7.112
14550SOL    HW255305   3.618   2.357   7.033
14551SOL     OW55306   7.719   8.085   5.236
14551SOL    HW155307   7.730   8.149   5.312
14551SOL    HW255308   7.809   8.055   5.205
14552SOL     OW55309   9.245   6.972   6.108
14552SOL    HW155310   9.270   6.971   6.011
14552SOL    HW255311   9.211   7.063   6.132
14553SOL     OW55312   9.862   5.763   4.514
14553SOL    HW155313   9.802   5.824   4.566
14553SOL    HW255314   9.895   5.810   4.433
14554SOL     OW55315   2.732   5.540   6.669
14554SOL    HW155316   2.814   5.596   6.679
14554SOL    HW255317   2.703   5.507   6.759
14555SOL     OW55318   8.550   6.073   1.552
14555SOL    HW155319   8.579   6.093   1.646
14555SOL    HW255320   8.456   6.104   1.539
14556SOL     OW55321   5.203   9.987   2.314
14556SOL    HW155322   5.190   0.084   2.337
14556SOL    HW255323   5.289   9.955   2.354
14557SOL     OW55324   1.060   4.471   7.172
14557SOL    HW155325   1.071   4.566   7.144
14557SOL    HW255326   0.973   4.459   7.218
14558SOL     OW55327   0.646   5.717   3.218
14558SOL    HW155328   0.727   5.661   3.206
14558SOL    HW255329   0.565   5.665   3.190
14559SOL     OW55330   8.696   7.040   5.118
14559SOL    HW155331   8.623   7.107   5.129
14559SOL    HW255332   8.659   6.948   5.130
14560SOL     OW55333   2.412   7.721   0.421
14560SOL    HW155334   2.459   7.640   0.456
14560SOL    HW255335   2.356   7.696   0.342
14561SOL     OW55336   6.325   9.773   1.570
14561SOL    HW155337   6.367   9.700   1.516
14561SOL    HW255338   6.226   9.763   1.567
14562SOL     OW55339   0.580   4.597   6.478
14562SOL    HW155340   0.598   4.687   6.440
14562SOL    HW255341   0.488   4.594   6.516
14563SOL     OW55342   3.210   7.794   4.766
14563SOL    HW155343   3.301   7.756   4.755
14563SOL    HW255344   3.203   7.880   4.716
14564SOL     OW55345   4.005   1.790   2.869
14564SOL    HW155346   4.028   1.872   2.816
14564SOL    HW255347   3.975   1.816   2.960
14565SOL     OW55348   0.796   3.144   5.342
14565SOL    HW155349   0.730   3.068   5.338
14565SOL    HW255350   0.790   3.188   5.431
14566SOL     OW55351   0.973   5.194   1.727
14566SOL    HW155352   0.936   5.157   1.812
14566SOL    HW255353   0.968   5.124   1.655
14567SOL     OW55354   4.834   3.070   0.769
14567SOL    HW155355   4.852   2.977   0.802
14567SOL    HW255356   4.904   3.096   0.703
14568SOL     OW55357   9.975   6.066   1.149
14568SOL    HW155358   9.939   6.111   1.068
14568SOL    HW255359   9.974   6.130   1.226
14569SOL     OW55360   3.972   9.629   3.144
14569SOL    HW155361   3.998   9.632   3.047
14569SOL    HW255362   4.014   9.549   3.187
14570SOL     OW55363   9.706   1.074   3.239
14570SOL    HW155364   9.653   1.088   3.155
14570SOL    HW255365   9.760   1.156   3.258
14571SOL     OW55366   3.947   4.092   6.461
14571SOL    HW155367   3.872   4.116   6.400
14571SOL    HW255368   3.913   4.085   6.555
14572SOL     OW55369   7.300   6.308   6.438
14572SOL    HW155370   7.370   6.350   6.381
14572SOL    HW255371   7.322   6.323   6.534
14573SOL     OW55372   2.587   0.557   4.575
14573SOL    HW155373   2.622   0.650   4.579
14573SOL    HW255374   2.489   0.557   4.592
14574SOL     OW55375   1.514   6.323   3.829
14574SOL    HW155376   1.558   6.410   3.853
14574SOL    HW255377   1.525   6.259   3.905
14575SOL     OW55378   1.322   8.580   0.853
14575SOL    HW155379   1.276   8.669   0.852
14575SOL    HW255380   1.410   8.589   0.899
14576SOL     OW55381   8.075   1.678   6.319
14576SOL    HW155382   8.160   1.651   6.273
14576SOL    HW255383   8.066   1.627   6.404
14577SOL     OW55384   8.634   4.196   4.619
14577SOL    HW155385   8.656   4.288   4.585
14577SOL    HW255386   8.551   4.163   4.574
14578SOL     OW55387   7.896   0.663   6.305
14578SOL    HW155388   7.908   0.689   6.209
14578SOL    HW255389   7.856   0.571   6.310
14579SOL     OW55390   9.543   5.884   1.781
14579SOL    HW155391   9.524   5.883   1.879
14579SOL    HW255392   9.518   5.796   1.741
14580SOL     OW55393   5.962   2.893   1.532
14580SOL    HW155394   5.937   2.959   1.602
14580SOL    HW255395   6.056   2.910   1.501
14581SOL     OW55396   4.719   5.707   0.974
14581SOL    HW155397   4.669   5.793   0.969
14581SOL    HW255398   4.685   5.644   0.904
14582SOL     OW55399   4.476   3.451   4.429
14582SOL    HW155400   4.450   3.546   4.410
14582SOL    HW255401   4.410   3.390   4.385
14583SOL     OW55402   0.825   0.130   7.109
14583SOL    HW155403   0.793   0.225   7.117
14583SOL    HW255404   0.869   0.117   7.020
14584SOL     OW55405   9.044   0.508   3.610
14584SOL    HW155406   9.133   0.489   3.569
14584SOL    HW255407   8.990   0.564   3.547
14585SOL     OW55408   2.273   2.167   4.487
14585SOL    HW155409   2.234   2.252   4.521
14585SOL    HW255410   2.333   2.185   4.409
14586SOL     OW55411   8.211   2.607   3.091
14586SOL    HW155412   8.298   2.557   3.083
14586SOL    HW255413   8.190   2.650   3.003
14587SOL     OW55414   9.208   6.460   6.762
14587SOL    HW155415   9.200   6.412   6.849
14587SOL    HW255416   9.276   6.414   6.704
14588SOL     OW55417   5.507   8.571   1.908
14588SOL    HW155418   5.595   8.587   1.864
14588SOL    HW255419   5.437   8.552   1.839
14589SOL     OW55420   9.006   6.790   5.245
14589SOL    HW155421   9.019   6.719   5.314
14589SOL    HW255422   8.937   6.760   5.179
14590SOL     OW55423   1.623   2.133   7.377
14590SOL    HW155424   1.588   2.055   7.428
14590SOL    HW255425   1.685   2.102   7.306
14591SOL     OW55426   1.304   2.993   4.419
14591SOL    HW155427   1.245   2.995   4.339
14591SOL    HW255428   1.398   3.015   4.393
14592SOL     OW55429   4.567   0.853   1.165
14592SOL    HW155430   4.665   0.842   1.153
14592SOL    HW255431   4.544   0.950   1.160
14593SOL     OW55432   6.287   7.769   2.647
14593SOL    HW155433   6.334   7.740   2.730
14593SOL    HW255434   6.354   7.787   2.575
14594SOL     OW55435   3.821   4.527   3.030
14594SOL    HW155436   3.801   4.489   3.120
14594SOL    HW255437   3.915   4.503   3.003
14595SOL     OW55438   1.825   0.828   1.608
14595SOL    HW155439   1.757   0.878   1.662
14595SOL    HW255440   1.784   0.800   1.521
14596SOL     OW55441   7.915   3.855   4.828
14596SOL    HW155442   7.928   3.790   4.902
14596SOL    HW255443   7.899   3.806   4.742
14597SOL     OW55444   4.114   9.882   1.321
14597SOL    HW155445   4.153   9.824   1.250
14597SOL    HW255446   4.090   9.971   1.282
14598SOL     OW55447   2.082   3.794   7.674
14598SOL    HW155448   2.077   3.739   7.757
14598SOL    HW255449   2.154   3.757   7.614
14599SOL     OW55450   9.519   0.276   4.357
14599SOL    HW155451   9.517   0.184   4.395
14599SOL    HW255452   9.428   0.299   4.321
14600SOL     OW55453   4.305   2.880   7.081
14600SOL    HW155454   4.268   2.955   7.026
14600SOL    HW255455   4.366   2.916   7.151
14601SOL     OW55456   8.668   0.699   2.872
14601SOL    HW155457   8.622   0.613   2.897
14601SOL    HW255458   8.600   0.764   2.837
14602SOL     OW55459   7.472   7.209   5.630
14602SOL    HW155460   7.408   7.135   5.646
14602SOL    HW255461   7.533   7.218   5.709
14603SOL     OW55462   3.599   9.104   0.694
14603SOL    HW155463   3.536   9.033   0.661
14603SOL    HW255464   3.627   9.083   0.787
14604SOL     OW55465   7.248   0.732   4.087
14604SOL    HW155466   7.218   0.784   4.008
14604SOL    HW255467   7.232   0.634   4.071
14605SOL     OW55468   2.962   2.903   6.191
14605SOL    HW155469   2.921   2.923   6.280
14605SOL    HW255470   3.048   2.952   6.182
14606SOL     OW55471   5.032   0.460   3.798
14606SOL    HW155472   5.074   0.471   3.888
14606SOL    HW255473   4.934   0.477   3.804
14607SOL     OW55474   3.771   2.377   1.481
14607SOL    HW155475   3.830   2.349   1.557
14607SOL    HW255476   3.819   2.442   1.423
14608SOL     OW55477   3.980   1.273   7.584
14608SOL    HW155478   3.923   1.195   7.610
14608SOL    HW255479   4.075   1.255   7.608
14609SOL     OW55480   2.021   9.168   3.511
14609SOL    HW155481   1.971   9.223   3.579
14609SOL    HW255482   2.072   9.097   3.558
14610SOL     OW55483   8.167   8.113   7.150
14610SOL    HW155484   8.228   8.120   7.229
14610SOL    HW255485   8.209   8.055   7.081
14611SOL     OW55486   0.335   6.553   5.224
14611SOL    HW155487   0.295   6.613   5.294
14611SOL    HW255488   0.266   6.533   5.155
14612SOL     OW55489   2.815   0.217   2.784
14612SOL    HW155490   2.836   0.154   2.859
14612SOL    HW255491   2.861   0.305   2.801
14613SOL     OW55492   0.032   2.428   4.012
14613SOL    HW155493   0.020   2.513   4.063
14613SOL    HW255494   9.942   2.388   3.991
14614SOL     OW55495   3.171   3.240   5.285
14614SOL    HW155496   3.105   3.285   5.345
14614SOL    HW255497   3.127   3.215   5.199
14615SOL     OW55498   8.594   9.047   3.575
14615SOL    HW155499   8.541   8.966   3.548
14615SOL    HW255500   8.540   9.104   3.636
14616SOL     OW55501   0.263   0.401   1.479
14616SOL    HW155502   0.313   0.461   1.417
14616SOL    HW255503   0.272   0.306   1.448
14617SOL     OW55504   2.510   3.739   4.753
14617SOL    HW155505   2.561   3.717   4.836
14617SOL    HW255506   2.525   3.835   4.729
14618SOL     OW55507   0.320   5.926   7.691
14618SOL    HW155508   0.302   5.893   7.598
14618SOL    HW255509   0.383   5.862   7.736
14619SOL     OW55510   6.204   8.252   6.178
14619SOL    HW155511   6.133   8.263   6.108
14619SOL    HW255512   6.243   8.161   6.172
14620SOL     OW55513   3.063   4.541   0.449
14620SOL    HW155514   3.159   4.567   0.439
14620SOL    HW255515   3.043   4.462   0.390
14621SOL     OW55516   3.596   5.349   2.239
14621SOL    HW155517   3.605   5.324   2.143
14621SOL    HW255518   3.657   5.294   2.295
14622SOL     OW55519   2.247   4.734   2.995
14622SOL    HW155520   2.280   4.675   2.921
14622SOL    HW255521   2.205   4.677   3.066
14623SOL     OW55522   2.796   9.145   3.388
14623SOL    HW155523   2.826   9.212   3.321
14623SOL    HW255524   2.875   9.106   3.434
14624SOL     OW55525   4.076   6.095   2.006
14624SOL    HW155526   4.062   6.134   2.097
14624SOL    HW255527   4.069   5.996   2.011
14625SOL     OW55528   9.474   1.504   5.816
14625SOL    HW155529   9.399   1.471   5.759
14625SOL    HW255530   9.438   1.532   5.905
14626SOL     OW55531   5.345   9.421   4.135
14626SOL    HW155532   5.320   9.393   4.042
14626SOL    HW255533   5.400   9.350   4.178
14627SOL     OW55534   3.682   6.472   7.808
14627SOL    HW155535   3.769   6.447   7.850
14627SOL    HW255536   3.669   6.418   7.724
14628SOL     OW55537   3.919   3.991   1.982
14628SOL    HW155538   3.944   4.078   1.941
14628SOL    HW255539   3.855   4.006   2.057
14629SOL     OW55540   3.503   9.257   2.597
14629SOL    HW155541   3.438   9.208   2.657
14629SOL    HW255542   3.456   9.333   2.553
14630SOL     OW55543   8.193   1.962   0.520
14630SOL    HW155544   8.218   1.973   0.616
14630SOL    HW255545   8.093   1.965   0.511
14631SOL     OW55546   3.831   0.321   6.140
14631SOL    HW155547   3.793   0.236   6.103
14631SOL    HW255548   3.853   0.383   6.065
14632SOL     OW55549   2.155   3.737   2.335
14632SOL    HW155550   2.252   3.757   2.345
14632SOL    HW255551   2.105   3.773   2.413
14633SOL     OW55552   6.764   2.072   4.314
14633SOL    HW155553   6.673   2.049   4.279
14633SOL    HW255554   6.755   2.136   4.390
14634SOL     OW55555   5.033   8.081   1.975
14634SOL    HW155556   4.953   8.093   1.917
14634SOL    HW255557   5.079   7.995   1.952
14635SOL     OW55558   0.907   5.663   6.938
14635SOL    HW155559   0.867   5.752   6.960
14635SOL    HW255560   0.863   5.593   6.995
14636SOL     OW55561   9.829   8.318   0.836
14636SOL    HW155562   9.863   8.408   0.863
14636SOL    HW255563   9.859   8.250   0.903
14637SOL     OW55564   2.092   1.997   7.707
14637SOL    HW155565   2.013   1.997   7.646
14637SOL    HW255566   2.087   2.077   7.768
14638SOL     OW55567   9.473   0.975   7.579
14638SOL    HW155568   9.417   0.936   7.652
14638SOL    HW255569   9.562   1.002   7.617
14639SOL     OW55570   7.748   6.871   3.617
14639SOL    HW155571   7.698   6.950   3.652
14639SOL    HW255572   7.833   6.901   3.575
14640SOL     OW55573   5.932   4.268   1.251
14640SOL    HW155574   5.875   4.297   1.175
14640SOL    HW255575   5.880   4.206   1.310
14641SOL     OW55576   1.619   4.208   5.134
14641SOL    HW155577   1.600   4.275   5.206
14641SOL    HW255578   1.711   4.223   5.099
14642SOL     OW55579   4.408   5.740   0.387
14642SOL    HW155580   4.449   5.802   0.455
14642SOL    HW255581   4.405   5.786   0.298
14643SOL     OW55582   9.387   3.584   0.632
14643SOL    HW155583   9.399   3.492   0.670
14643SOL    HW255584   9.356   3.577   0.537
14644SOL     OW55585   7.167   2.854   1.021
14644SOL    HW155586   7.109   2.809   0.953
14644SOL    HW255587   7.261   2.856   0.987
14645SOL     OW55588   2.374   2.757   5.898
14645SOL    HW155589   2.285   2.768   5.853
14645SOL    HW255590   2.372   2.676   5.956
14646SOL     OW55591   9.205   5.872   6.783
14646SOL    HW155592   9.271   5.820   6.729
14646SOL    HW255593   9.115   5.830   6.775
14647SOL     OW55594   5.908   8.609   5.035
14647SOL    HW155595   5.968   8.600   4.955
14647SOL    HW255596   5.874   8.519   5.061
14648SOL     OW55597   8.446   8.588   6.994
14648SOL    HW155598   8.463   8.497   6.955
14648SOL    HW255599   8.498   8.599   7.078
14649SOL     OW55600   0.465   0.503   2.187
14649SOL    HW155601   0.404   0.563   2.239
14649SOL    HW255602   0.536   0.467   2.248
14650SOL     OW55603   7.810   8.135   5.674
14650SOL    HW155604   7.860   8.108   5.756
14650SOL    HW255605   7.714   8.150   5.697
14651SOL     OW55606   8.915   5.968   1.790
14651SOL    HW155607   9.014   5.967   1.805
14651SOL    HW255608   8.870   6.008   1.869
14652SOL     OW55609   4.389   3.027   6.365
14652SOL    HW155610   4.296   2.991   6.357
14652SOL    HW255611   4.432   3.029   6.275
14653SOL     OW55612   3.116   4.147   6.546
14653SOL    HW155613   3.034   4.126   6.492
14653SOL    HW255614   3.182   4.072   6.537
14654SOL     OW55615   9.664   8.555   5.847
14654SOL    HW155616   9.603   8.547   5.926
14654SOL    HW255617   9.745   8.606   5.873
14655SOL     OW55618   1.413   0.349   7.844
14655SOL    HW155619   1.430   0.251   7.854
14655SOL    HW255620   1.380   0.368   7.752
14656SOL     OW55621   4.875   3.807   6.931
14656SOL    HW155622   4.961   3.846   6.963
14656SOL    HW255623   4.873   3.809   6.831
14657SOL     OW55624   7.310   9.672   7.382
14657SOL    HW155625   7.406   9.644   7.381
14657SOL    HW255626   7.252   9.591   7.368
14658SOL     OW55627   8.307   2.927   5.347
14658SOL    HW155628   8.314   3.015   5.394
14658SOL    HW255629   8.391   2.909   5.296
14659SOL     OW55630   5.813   6.377   0.499
14659SOL    HW155631   5.866   6.453   0.462
14659SOL    HW255632   5.715   6.398   0.493
14660SOL     OW55633   0.212   4.239   5.847
14660SOL    HW155634   0.122   4.267   5.814
14660SOL    HW255635   0.206   4.217   5.944
14661SOL     OW55636   6.244   5.600   1.221
14661SOL    HW155637   6.255   5.689   1.265
14661SOL    HW255638   6.147   5.583   1.204
14662SOL     OW55639   6.721   9.178   3.335
14662SOL    HW155640   6.704   9.268   3.376
14662SOL    HW255641   6.797   9.134   3.382
14663SOL     OW55642   9.119   0.229   1.008
14663SOL    HW155643   9.217   0.237   1.025
14663SOL    HW255644   9.079   0.164   1.072
14664SOL     OW55645   8.775   3.219   4.989
14664SOL    HW155646   8.718   3.263   4.919
14664SOL    HW255647   8.787   3.123   4.967
14665SOL     OW55648   0.814   9.265   6.267
14665SOL    HW155649   0.776   9.336   6.326
14665SOL    HW255650   0.846   9.189   6.323
14666SOL     OW55651   9.865   0.619   5.082
14666SOL    HW155652   9.766   0.629   5.072
14666SOL    HW255653   9.886   0.526   5.113
14667SOL     OW55654   7.446   9.649   4.359
14667SOL    HW155655   7.532   9.700   4.366
14667SOL    HW255656   7.430   9.624   4.263
14668SOL     OW55657   6.784   0.076   6.117
14668SOL    HW155658   6.871   0.034   6.141
14668SOL    HW255659   6.785   0.103   6.021
14669SOL     OW55660   2.381   8.752   6.710
14669SOL    HW155661   2.376   8.661   6.669
14669SOL    HW255662   2.402   8.819   6.638
14670SOL     OW55663   8.039   5.329   2.642
14670SOL    HW155664   7.964   5.265   2.655
14670SOL    HW255665   8.117   5.302   2.698
14671SOL     OW55666   7.097   2.778   0.141
14671SOL    HW155667   7.186   2.822   0.150
14671SOL    HW255668   7.099   2.716   0.062
14672SOL     OW55669   0.520   2.961   6.964
14672SOL    HW155670   0.556   2.957   7.058
14672SOL    HW255671   0.596   2.956   6.899
14673SOL     OW55672   3.045   0.679   3.838
14673SOL    HW155673   2.965   0.736   3.818
14673SOL    HW255674   3.128   0.728   3.811
14674SOL     OW55675   6.231   8.260   5.040
14674SOL    HW155676   6.140   8.220   5.031
14674SOL    HW255677   6.257   8.304   4.953
14675SOL     OW55678   3.289   2.072   1.272
14675SOL    HW155679   3.320   2.162   1.303
14675SOL    HW255680   3.337   2.046   1.188
14676SOL     OW55681   2.604   8.952   3.364
14676SOL    HW155682   2.662   9.033   3.368
14676SOL    HW255683   2.660   8.871   3.350
14677SOL     OW55684   9.291   0.314   7.711
14677SOL    HW155685   9.327   0.220   7.714
14677SOL    HW255686   9.294   0.347   7.616
14678SOL     OW55687   1.672   4.152   7.748
14678SOL    HW155688   1.576   4.173   7.767
14678SOL    HW255689   1.731   4.221   7.792
14679SOL     OW55690   0.759   7.113   1.115
14679SOL    HW155691   0.814   7.059   1.180
14679SOL    HW255692   0.708   7.051   1.056
14680SOL     OW55693   6.991   9.936   3.667
14680SOL    HW155694   6.927   9.941   3.590
14680SOL    HW255695   6.984   9.846   3.710
14681SOL     OW55696   8.388   0.578   2.551
14681SOL    HW155697   8.462   0.644   2.552
14681SOL    HW255698   8.308   0.618   2.507
14682SOL     OW55699   6.433   0.536   4.672
14682SOL    HW155700   6.520   0.486   4.667
14682SOL    HW255701   6.445   0.618   4.728
14683SOL     OW55702   9.383   8.993   5.138
14683SOL    HW155703   9.382   9.045   5.223
14683SOL    HW255704   9.294   9.000   5.094
14684SOL     OW55705   9.598   2.948   3.924
14684SOL    HW155706   9.618   2.921   4.018
14684SOL    HW255707   9.657   2.897   3.862
14685SOL     OW55708   0.598   7.261   1.616
14685SOL    HW155709   0.598   7.163   1.636
14685SOL    HW255710   0.530   7.280   1.545
14686SOL     OW55711   6.169   8.139   2.802
14686SOL    HW155712   6.121   8.164   2.886
14686SOL    HW255713   6.266   8.163   2.811
14687SOL     OW55714   7.513   7.332   1.452
14687SOL    HW155715   7.477   7.347   1.360
14687SOL    HW255716   7.597   7.384   1.464
14688SOL     OW55717   8.697   4.339   7.288
14688SOL    HW155718   8.671   4.416   7.346
14688SOL    HW255719   8.792   4.314   7.305
14689SOL     OW55720   0.889   5.009   4.446
14689SOL    HW155721   0.956   5.047   4.510
14689SOL    HW255722   0.831   5.082   4.411
14690SOL     OW55723   2.401   4.266   2.187
14690SOL    HW155724   2.392   4.335   2.116
14690SOL    HW255725   2.431   4.310   2.272
14691SOL     OW55726   7.962   6.531   6.579
14691SOL    HW155727   7.946   6.578   6.666
14691SOL    HW255728   8.041   6.571   6.533
14692SOL     OW55729   9.653   7.526   6.423
14692SOL    HW155730   9.653   7.626   6.432
14692SOL    HW255731   9.577   7.488   6.476
14693SOL     OW55732   9.321   2.276   4.697
14693SOL    HW155733   9.234   2.277   4.747
14693SOL    HW255734   9.378   2.201   4.731
14694SOL     OW55735   9.031   4.168   5.745
14694SOL    HW155736   9.067   4.251   5.702
14694SOL    HW255737   9.045   4.090   5.684
14695SOL     OW55738   3.061   2.597   3.005
14695SOL    HW155739   2.989   2.532   2.980
14695SOL    HW255740   3.094   2.642   2.923
14696SOL     OW55741   2.557   4.939   7.089
14696SOL    HW155742   2.621   5.001   7.136
14696SOL    HW255743   2.566   4.847   7.127
14697SOL     OW55744   6.214   2.963   1.442
14697SOL    HW155745   6.251   2.871   1.428
14697SOL    HW255746   6.207   3.009   1.353
14698SOL     OW55747   3.730   3.847   0.677
14698SOL    HW155748   3.798   3.914   0.645
14698SOL    HW255749   3.753   3.818   0.769
14699SOL     OW55750   1.129   5.955   5.534
14699SOL    HW155751   1.148   5.987   5.627
14699SOL    HW255752   1.215   5.934   5.488
14700SOL     OW55753   8.156   9.687   4.175
14700SOL    HW155754   8.128   9.771   4.221
14700SOL    HW255755   8.156   9.701   4.076
14701SOL     OW55756   0.561   7.866   6.366
14701SOL    HW155757   0.616   7.950   6.370
14701SOL    HW255758   0.621   7.787   6.356
14702SOL     OW55759   3.768   6.249   2.479
14702SOL    HW155760   3.830   6.326   2.466
14702SOL    HW255761   3.805   6.187   2.548
14703SOL     OW55762   1.771   5.068   3.620
14703SOL    HW155763   1.785   5.160   3.655
14703SOL    HW255764   1.823   5.057   3.535
14704SOL     OW55765   3.252   1.738   3.759
14704SOL    HW155766   3.325   1.803   3.779
14704SOL    HW255767   3.216   1.755   3.667
14705SOL     OW55768   6.207   9.799   7.326
14705SOL    HW155769   6.196   9.851   7.241
14705SOL    HW255770   6.304   9.775   7.338
14706SOL     OW55771   5.121   7.860   1.397
14706SOL    HW155772   5.145   7.803   1.475
14706SOL    HW255773   5.048   7.817   1.344
14707SOL     OW55774   3.157   7.015   3.828
14707SOL    HW155775   3.150   7.087   3.897
14707SOL    HW255776   3.126   6.928   3.867
14708SOL     OW55777   3.379   5.482   6.913
14708SOL    HW155778   3.460   5.513   6.963
14708SOL    HW255779   3.331   5.561   6.875
14709SOL     OW55780   2.977   1.832   6.594
14709SOL    HW155781   2.995   1.759   6.527
14709SOL    HW255782   2.973   1.920   6.547
14710SOL     OW55783   0.038   9.604   5.589
14710SOL    HW155784   0.123   9.552   5.577
14710SOL    HW255785   9.963   9.556   5.541
14711SOL     OW55786   8.473   8.241   6.015
14711SOL    HW155787   8.532   8.245   5.935
14711SOL    HW255788   8.436   8.148   6.025
14712SOL     OW55789   3.142   4.759   6.335
14712SOL    HW155790   3.086   4.732   6.257
14712SOL    HW255791   3.092   4.825   6.391
14713SOL     OW55792   3.054   7.516   1.457
14713SOL    HW155793   3.045   7.488   1.362
14713SOL    HW255794   3.038   7.437   1.517
14714SOL     OW55795   7.008   9.487   3.433
14714SOL    HW155796   6.950   9.562   3.465
14714SOL    HW255797   6.964   9.441   3.356
14715SOL     OW55798   0.941   0.395   6.858
14715SOL    HW155799   0.883   0.432   6.931
14715SOL    HW255800   0.932   0.295   6.856
14716SOL     OW55801   2.162   0.157   0.847
14716SOL    HW155802   2.111   0.220   0.787
14716SOL    HW255803   2.257   0.152   0.817
14717SOL     OW55804   3.015   9.424   2.098
14717SOL    HW155805   2.990   9.328   2.099
14717SOL    HW255806   3.104   9.436   2.144
14718SOL     OW55807   1.074   5.223   2.654
14718SOL    HW155808   1.153   5.222   2.714
14718SOL    HW255809   1.103   5.241   2.560
14719SOL     OW55810   8.737   2.123   2.297
14719SOL    HW155811   8.791   2.062   2.355
14719SOL    HW255812   8.797   2.170   2.232
14720SOL     OW55813   8.955   6.738   6.556
14720SOL    HW155814   8.884   6.749   6.487
14720SOL    HW255815   8.962   6.641   6.582
14721SOL     OW55816   3.820   9.688   2.321
14721SOL    HW155817   3.742   9.627   2.335
14721SOL    HW255818   3.828   9.749   2.400
14722SOL     OW55819   0.835   1.789   4.728
14722SOL    HW155820   0.922   1.766   4.771
14722SOL    HW255821   0.833   1.886   4.706
14723SOL     OW55822   7.543   2.424   5.095
14723SOL    HW155823   7.532   2.328   5.071
14723SOL    HW255824   7.556   2.433   5.193
14724SOL     OW55825   9.289   9.747   1.468
14724SOL    HW155826   9.241   9.661   1.453
14724SOL    HW255827   9.388   9.734   1.455
14725SOL     OW55828   0.991   4.546   0.651
14725SOL    HW155829   0.995   4.611   0.726
14725SOL    HW255830   0.895   4.528   0.627
14726SOL     OW55831   3.287   8.179   1.896
14726SOL    HW155832   3.247   8.109   1.838
14726SOL    HW255833   3.250   8.268   1.872
14727SOL     OW55834   7.623   2.553   3.516
14727SOL    HW155835   7.523   2.552   3.517
14727SOL    HW255836   7.656   2.485   3.451
14728SOL     OW55837   3.621   1.960   1.527
14728SOL    HW155838   3.576   2.048   1.511
14728SOL    HW255839   3.712   1.961   1.485
14729SOL     OW55840   7.528   0.303   2.956
14729SOL    HW155841   7.486   0.284   2.867
14729SOL    HW255842   7.561   0.217   2.996
14730SOL     OW55843   0.554   0.988   1.247
14730SOL    HW155844   0.503   0.942   1.174
14730SOL    HW255845   0.611   1.060   1.208
14731SOL     OW55846   9.330   1.209   4.702
14731SOL    HW155847   9.318   1.306   4.678
14731SOL    HW255848   9.365   1.159   4.623
14732SOL     OW55849   7.942   0.109   2.406
14732SOL    HW155850   7.922   0.145   2.315
14732SOL    HW255851   7.881   0.033   2.427
14733SOL     OW55852   0.449   8.120   7.217
14733SOL    HW155853   0.425   8.052   7.285
14733SOL    HW255854   0.485   8.202   7.262
14734SOL     OW55855   5.807   1.307   5.566
14734SOL    HW155856   5.834   1.301   5.662
14734SOL    HW255857   5.713   1.274   5.556
14735SOL     OW55858   6.712   3.168   0.806
14735SOL    HW155859   6.740   3.244   0.746
14735SOL    HW255860   6.682   3.205   0.894
14736SOL     OW55861   1.405   1.391   3.098
14736SOL    HW155862   1.459   1.475   3.094
14736SOL    HW255863   1.364   1.373   3.009
14737SOL     OW55864   8.710   1.543   5.530
14737SOL    HW155865   8.714   1.618   5.596
14737SOL    HW255866   8.701   1.457   5.579
14738SOL     OW55867   1.239   8.756   5.156
14738SOL    HW155868   1.151   8.727   5.194
14738SOL    HW255869   1.252   8.853   5.174
14739SOL     OW55870   3.669   6.026   5.604
14739SOL    HW155871   3.686   6.036   5.702
14739SOL    HW255872   3.664   6.116   5.561
14740SOL     OW55873   4.678   5.620   2.508
14740SOL    HW155874   4.758   5.584   2.459
14740SOL    HW255875   4.595   5.578   2.470
14741SOL     OW55876   4.431   5.830   1.118
14741SOL    HW155877   4.359   5.777   1.075
14741SOL    HW255878   4.479   5.884   1.049
14742SOL     OW55879   1.891   1.092   2.661
14742SOL    HW155880   1.975   1.146   2.666
14742SOL    HW255881   1.817   1.142   2.705
14743SOL     OW55882   3.699   0.075   3.175
14743SOL    HW155883   3.784   0.035   3.141
14743SOL    HW255884   3.682   0.042   3.268
14744SOL     OW55885   4.068   0.536   6.419
14744SOL    HW155886   3.994   0.566   6.481
14744SOL    HW255887   4.150   0.590   6.437
14745SOL     OW55888   4.219   5.147   2.860
14745SOL    HW155889   4.122   5.156   2.838
14745SOL    HW255890   4.236   5.181   2.952
14746SOL     OW55891   7.495   6.776   3.009
14746SOL    HW155892   7.495   6.676   3.016
14746SOL    HW255893   7.420   6.813   3.064
14747SOL     OW55894   3.400   9.458   1.288
14747SOL    HW155895   3.408   9.556   1.272
14747SOL    HW255896   3.468   9.430   1.356
14748SOL     OW55897   0.126   4.621   2.746
14748SOL    HW155898   0.128   4.559   2.668
14748SOL    HW255899   0.127   4.716   2.713
14749SOL     OW55900   9.125   8.889   5.373
14749SOL    HW155901   9.213   8.842   5.380
14749SOL    HW255902   9.063   8.835   5.316
14750SOL     OW55903   6.958   7.348   6.272
14750SOL    HW155904   7.021   7.391   6.207
14750SOL    HW255905   6.943   7.253   6.245
14751SOL     OW55906   8.913   9.528   2.894
14751SOL    HW155907   8.840   9.461   2.908
14751SOL    HW255908   8.949   9.557   2.983
14752SOL     OW55909   8.767   1.097   4.148
14752SOL    HW155910   8.754   1.105   4.246
14752SOL    HW255911   8.749   1.186   4.105
14753SOL     OW55912   9.302   7.688   5.888
14753SOL    HW155913   9.399   7.711   5.885
14753SOL    HW255914   9.265   7.683   5.795
14754SOL     OW55915   1.761   5.217   7.558
14754SOL    HW155916   1.741   5.212   7.656
14754SOL    HW255917   1.849   5.175   7.539
14755SOL     OW55918   6.363   9.827   4.280
14755SOL    HW155919   6.383   9.820   4.378
14755SOL    HW255920   6.271   9.792   4.262
14756SOL     OW55921   7.713   5.430   1.534
14756SOL    HW155922   7.760   5.490   1.598
14756SOL    HW255923   7.687   5.345   1.581
14757SOL     OW55924   6.769   8.516   3.533
14757SOL    HW155925   6.766   8.501   3.434
14757SOL    HW255926   6.701   8.585   3.558
14758SOL     OW55927   9.557   2.416   5.750
14758SOL    HW155928   9.489   2.369   5.694
14758SOL    HW255929   9.608   2.348   5.804
14759SOL     OW55930   5.906   0.526   2.979
14759SOL    HW155931   5.885   0.482   2.892
14759SOL    HW255932   5.833   0.506   3.045
14760SOL     OW55933   8.415   0.594   7.038
14760SOL    HW155934   8.433   0.542   6.955
14760SOL    HW255935   8.343   0.661   7.021
14761SOL     OW55936   4.112   6.354   0.760
14761SOL    HW155937   4.126   6.453   0.756
14761SOL    HW255938   4.186   6.312   0.811
14762SOL     OW55939   8.728   9.331   2.945
14762SOL    HW155940   8.680   9.352   3.031
14762SOL    HW255941   8.666   9.284   2.883
14763SOL     OW55942   8.522   1.384   0.179
14763SOL    HW155943   8.446   1.380   0.115
14763SOL    HW255944   8.535   1.293   0.220
14764SOL     OW55945   0.514   8.585   7.008
14764SOL    HW155946   0.571   8.656   7.049
14764SOL    HW255947   0.469   8.621   6.927
14765SOL     OW55948   2.087   6.031   5.298
14765SOL    HW155949   2.050   6.122   5.321
14765SOL    HW255950   2.076   5.970   5.377
14766SOL     OW55951   2.076   3.987   2.217
14766SOL    HW155952   2.094   3.894   2.248
14766SOL    HW255953   1.983   3.994   2.182
14767SOL     OW55954   3.148   2.381   4.176
14767SOL    HW155955   3.195   2.320   4.240
14767SOL    HW255956   3.122   2.465   4.222
14768SOL     OW55957   6.864   1.370   6.530
14768SOL    HW155958   6.790   1.305   6.512
14768SOL    HW255959   6.943   1.321   6.565
14769SOL     OW55960   3.456   1.884   7.130
14769SOL    HW155961   3.406   1.804   7.163
14769SOL    HW255962   3.438   1.898   7.033
14770SOL     OW55963   1.819   4.070   5.627
14770SOL    HW155964   1.750   4.002   5.602
14770SOL    HW255965   1.816   4.146   5.562
14771SOL     OW55966   1.584   5.893   5.048
14771SOL    HW155967   1.635   5.807   5.052
14771SOL    HW255968   1.633   5.964   5.099
14772SOL     OW55969   4.719   9.882   2.939
14772SOL    HW155970   4.645   9.946   2.962
14772SOL    HW255971   4.717   9.863   2.841
14773SOL     OW55972   9.639   3.502   0.845
14773SOL    HW155973   9.626   3.594   0.882
14773SOL    HW255974   9.652   3.507   0.746
14774SOL     OW55975   1.645   3.674   0.384
14774SOL    HW155976   1.552   3.671   0.421
14774SOL    HW255977   1.709   3.698   0.458
14775SOL     OW55978   4.780   8.447   2.013
14775SOL    HW155979   4.768   8.546   2.021
14775SOL    HW255980   4.692   8.404   1.995
14776SOL     OW55981   5.686   0.876   5.044
14776SOL    HW155982   5.681   0.972   5.016
14776SOL    HW255983   5.659   0.869   5.140
14777SOL     OW55984   2.014   0.751   7.664
14777SOL    HW155985   1.975   0.669   7.623
14777SOL    HW255986   1.964   0.831   7.631
14778SOL     OW55987   9.510   8.455   4.515
14778SOL    HW155988   9.417   8.462   4.479
14778SOL    HW255989   9.573   8.428   4.441
14779SOL     OW55990   6.882   1.411   2.964
14779SOL    HW155991   6.981   1.399   2.976
14779SOL    HW255992   6.863   1.436   2.869
14780SOL     OW55993   2.772   8.151   1.934
14780SOL    HW155994   2.694   8.153   1.997
14780SOL    HW255995   2.848   8.203   1.972
14781SOL     OW55996   9.280   2.506   3.699
14781SOL    HW155997   9.182   2.525   3.687
14781SOL    HW255998   9.310   2.541   3.788
14782SOL     OW55999   6.056   9.485   5.277
14782SOL    HW156000   6.104   9.555   5.330
14782SOL    HW256001   6.121   9.436   5.220
14783SOL     OW56002   4.092   8.224   3.060
14783SOL    HW156003   4.173   8.170   3.080
14783SOL    HW256004   4.112   8.290   2.988
14784SOL     OW56005   0.098   0.641   7.699
14784SOL    HW156006   0.078   0.572   7.630
14784SOL    HW256007   0.024   0.708   7.702
14785SOL     OW56008   2.817   4.717   7.076
14785SOL    HW156009   2.763   4.704   7.159
14785SOL    HW256010   2.865   4.632   7.054
14786SOL     OW56011   5.152   2.419   0.608
14786SOL    HW156012   5.206   2.408   0.692
14786SOL    HW256013   5.085   2.345   0.601
14787SOL     OW56014   8.869   8.616   1.726
14787SOL    HW156015   8.890   8.711   1.748
14787SOL    HW256016   8.954   8.565   1.712
14788SOL     OW56017   8.177   2.985   1.724
14788SOL    HW156018   8.139   2.990   1.632
14788SOL    HW256019   8.175   2.890   1.756
14789SOL     OW56020   1.573   2.950   6.872
14789SOL    HW156021   1.670   2.967   6.855
14789SOL    HW256022   1.552   2.970   6.968
14790SOL     OW56023   6.696   5.649   0.814
14790SOL    HW156024   6.691   5.583   0.739
14790SOL    HW256025   6.790   5.652   0.849
14791SOL     OW56026   7.454   4.814   1.890
14791SOL    HW156027   7.359   4.790   1.910
14791SOL    HW256028   7.512   4.790   1.968
14792SOL     OW56029   8.417   5.759   5.392
14792SOL    HW156030   8.482   5.750   5.468
14792SOL    HW256031   8.356   5.836   5.411
14793SOL     OW56032   3.840   0.165   1.333
14793SOL    HW156033   3.752   0.120   1.317
14793SOL    HW256034   3.905   0.135   1.264
14794SOL     OW56035   1.920   5.885   6.746
14794SOL    HW156036   1.940   5.981   6.768
14794SOL    HW256037   1.909   5.833   6.830
14795SOL     OW56038   3.307   6.486   3.809
14795SOL    HW156039   3.309   6.390   3.838
14795SOL    HW256040   3.216   6.507   3.771
14796SOL     OW56041   2.116   1.816   3.631
14796SOL    HW156042   2.086   1.876   3.705
14796SOL    HW256043   2.059   1.831   3.550
14797SOL     OW56044   1.119   0.476   5.630
14797SOL    HW156045   1.141   0.544   5.561
14797SOL    HW256046   1.116   0.519   5.720
14798SOL     OW56047   9.019   6.322   4.967
14798SOL    HW156048   9.117   6.323   4.951
14798SOL    HW256049   8.979   6.409   4.938
14799SOL     OW56050   2.877   6.960   5.690
14799SOL    HW156051   2.902   7.035   5.630
14799SOL    HW256052   2.950   6.943   5.756
14800SOL     OW56053   7.799   9.781   1.079
14800SOL    HW156054   7.816   9.766   0.982
14800SOL    HW256055   7.793   9.879   1.098
14801SOL     OW56056   1.526   0.179   7.202
14801SOL    HW156057   1.624   0.178   7.182
14801SOL    HW256058   1.475   0.188   7.117
14802SOL     OW56059   0.304   8.395   4.059
14802SOL    HW156060   0.285   8.376   3.962
14802SOL    HW256061   0.220   8.426   4.103
14803SOL     OW56062   3.429   4.615   5.980
14803SOL    HW156063   3.348   4.672   5.990
14803SOL    HW256064   3.461   4.618   5.885
14804SOL     OW56065   8.521   0.818   7.333
14804SOL    HW156066   8.538   0.720   7.327
14804SOL    HW256067   8.440   0.835   7.389
14805SOL     OW56068   7.428   2.588   4.270
14805SOL    HW156069   7.378   2.510   4.232
14805SOL    HW256070   7.491   2.556   4.341
14806SOL     OW56071   1.751   7.027   0.335
14806SOL    HW156072   1.809   7.004   0.257
14806SOL    HW256073   1.658   6.996   0.317
14807SOL     OW56074   9.542   0.613   2.549
14807SOL    HW156075   9.543   0.576   2.642
14807SOL    HW256076   9.627   0.588   2.502
14808SOL     OW56077   7.338   6.194   3.859
14808SOL    HW156078   7.384   6.160   3.941
14808SOL    HW256079   7.377   6.282   3.833
14809SOL     OW56080   9.857   1.167   7.916
14809SOL    HW156081   9.900   1.126   7.835
14809SOL    HW256082   9.901   1.131   7.998
14810SOL     OW56083   0.796   0.329   4.343
14810SOL    HW156084   0.890   0.296   4.341
14810SOL    HW256085   0.736   0.258   4.381
14811SOL     OW56086   4.485   6.466   4.394
14811SOL    HW156087   4.542   6.385   4.408
14811SOL    HW256088   4.407   6.442   4.336
14812SOL     OW56089   9.926   0.059   6.504
14812SOL    HW156090   9.850   0.107   6.460
14812SOL    HW256091   9.941   9.972   6.458
14813SOL     OW56092   2.363   7.581   3.761
14813SOL    HW156093   2.434   7.567   3.831
14813SOL    HW256094   2.336   7.677   3.761
14814SOL     OW56095   8.479   9.353   3.432
14814SOL    HW156096   8.422   9.432   3.412
14814SOL    HW256097   8.518   9.362   3.524
14815SOL     OW56098   1.307   9.936   1.800
14815SOL    HW156099   1.257   0.023   1.795
14815SOL    HW256100   1.364   9.936   1.882
14816SOL     OW56101   1.027   6.720   6.194
14816SOL    HW156102   1.059   6.699   6.102
14816SOL    HW256103   0.929   6.741   6.191
14817SOL     OW56104   2.166   8.891   1.591
14817SOL    HW156105   2.139   8.831   1.666
14817SOL    HW256106   2.086   8.944   1.561
14818SOL     OW56107   3.039   8.687   6.852
14818SOL    HW156108   2.994   8.605   6.887
14818SOL    HW256109   3.108   8.661   6.784
14819SOL     OW56110   3.544   3.703   1.840
14819SOL    HW156111   3.589   3.668   1.922
14819SOL    HW256112   3.467   3.762   1.866
14820SOL     OW56113   0.541   8.443   6.625
14820SOL    HW156114   0.560   8.402   6.714
14820SOL    HW256115   0.533   8.371   6.556
14821SOL     OW56116   5.968   0.106   6.559
14821SOL    HW156117   5.968   0.022   6.504
14821SOL    HW256118   5.876   0.120   6.597
14822SOL     OW56119   1.121   7.768   2.465
14822SOL    HW156120   1.169   7.854   2.448
14822SOL    HW256121   1.042   7.785   2.525
14823SOL     OW56122   5.018   5.520   1.626
14823SOL    HW156123   4.965   5.596   1.666
14823SOL    HW256124   5.080   5.557   1.557
14824SOL     OW56125   5.119   9.390   6.282
14824SOL    HW156126   5.217   9.374   6.289
14824SOL    HW256127   5.102   9.474   6.231
14825SOL     OW56128   1.071   8.440   7.054
14825SOL    HW156129   1.148   8.402   7.105
14825SOL    HW256130   1.008   8.486   7.116
14826SOL     OW56131   9.437   1.766   0.543
14826SOL    HW156132   9.371   1.833   0.510
14826SOL    HW256133   9.528   1.787   0.507
14827SOL     OW56134   8.613   0.516   2.020
14827SOL    HW156135   8.604   0.436   1.961
14827SOL    HW256136   8.526   0.565   2.024
14828SOL     OW56137   0.429   3.018   7.408
14828SOL    HW156138   0.489   3.016   7.488
14828SOL    HW256139   0.340   2.979   7.433
14829SOL     OW56140   9.227   7.257   2.094
14829SOL    HW156141   9.283   7.287   2.172
14829SOL    HW256142   9.210   7.159   2.102
14830SOL     OW56143   0.626   9.435   2.490
14830SOL    HW156144   0.560   9.383   2.544
14830SOL    HW256145   0.718   9.397   2.504
14831SOL     OW56146   9.740   0.367   1.186
14831SOL    HW156147   9.818   0.311   1.157
14831SOL    HW256148   9.725   0.353   1.284
14832SOL     OW56149   8.794   3.687   7.702
14832SOL    HW156150   8.878   3.691   7.756
14832SOL    HW256151   8.798   3.757   7.631
14833SOL     OW56152   5.110   4.120   6.639
14833SOL    HW156153   5.061   4.156   6.718
14833SOL    HW256154   5.134   4.024   6.655
14834SOL     OW56155   3.964   0.308   3.389
14834SOL    HW156156   3.886   0.300   3.327
14834SOL    HW256157   3.952   0.388   3.448
14835SOL     OW56158   4.196   2.865   2.598
14835SOL    HW156159   4.210   2.892   2.503
14835SOL    HW256160   4.209   2.766   2.607
14836SOL     OW56161   1.582   7.333   3.262
14836SOL    HW156162   1.608   7.255   3.205
14836SOL    HW256163   1.630   7.328   3.350
14837SOL     OW56164   3.169   9.879   4.592
14837SOL    HW156165   3.143   9.933   4.672
14837SOL    HW256166   3.153   9.932   4.509
14838SOL     OW56167   8.958   8.317   3.944
14838SOL    HW156168   8.906   8.402   3.938
14838SOL    HW256169   8.894   8.240   3.950
14839SOL     OW56170   7.943   5.534   3.263
14839SOL    HW156171   8.024   5.581   3.298
14839SOL    HW256172   7.958   5.435   3.264
14840SOL     OW56173   8.677   9.610   2.332
14840SOL    HW156174   8.624   9.690   2.360
14840SOL    HW256175   8.692   9.613   2.233
14841SOL     OW56176   7.074   6.995   7.364
14841SOL    HW156177   7.050   7.074   7.420
14841SOL    HW256178   6.995   6.966   7.310
14842SOL     OW56179   3.460   3.380   1.892
14842SOL    HW156180   3.518   3.461   1.883
14842SOL    HW256181   3.406   3.367   1.809
14843SOL     OW56182   1.421   8.889   1.733
14843SOL    HW156183   1.513   8.851   1.726
14843SOL    HW256184   1.384   8.902   1.641
14844SOL     OW56185   5.645   0.279   2.584
14844SOL    HW156186   5.670   0.231   2.500
14844SOL    HW256187   5.576   0.225   2.633
14845SOL     OW56188   9.742   7.461   6.164
14845SOL    HW156189   9.755   7.362   6.160
14845SOL    HW256190   9.699   7.485   6.251
14846SOL     OW56191   2.450   3.296   0.438
14846SOL    HW156192   2.441   3.387   0.396
14846SOL    HW256193   2.482   3.231   0.370
14847SOL     OW56194   9.065   8.554   5.717
14847SOL    HW156195   9.045   8.641   5.672
14847SOL    HW256196   9.134   8.504   5.664
14848SOL     OW56197   8.381   6.377   5.660
14848SOL    HW156198   8.447   6.329   5.602
14848SOL    HW256199   8.371   6.327   5.746
14849SOL     OW56200   0.095   3.522   7.086
14849SOL    HW156201   0.123   3.439   7.038
14849SOL    HW256202   0.083   3.596   7.020
14850SOL     OW56203   7.579   9.943   1.674
14850SOL    HW156204   7.494   9.922   1.722
14850SOL    HW256205   7.629   9.858   1.655
14851SOL     OW56206   7.279   9.918   6.086
14851SOL    HW156207   7.331   9.998   6.053
14851SOL    HW256208   7.268   9.853   6.012
14852SOL     OW56209   5.551   2.164   5.724
14852SOL    HW156210   5.555   2.132   5.629
14852SOL    HW256211   5.633   2.217   5.745
14853SOL     OW56212   4.883   7.686   3.297
14853SOL    HW156213   4.934   7.765   3.330
14853SOL    HW256214   4.785   7.703   3.307
14854SOL     OW56215   9.188   0.412   5.119
14854SOL    HW156216   9.250   0.396   5.196
14854SOL    HW256217   9.095   0.424   5.153
14855SOL     OW56218   3.162   7.596   6.278
14855SOL    HW156219   3.120   7.629   6.363
14855SOL    HW256220   3.196   7.673   6.225
14856SOL     OW56221   0.265   7.607   2.839
14856SOL    HW156222   0.358   7.602   2.804
14856SOL    HW256223   0.241   7.521   2.884
14857SOL     OW56224   2.529   4.826   3.390
14857SOL    HW156225   2.522   4.730   3.362
14857SOL    HW256226   2.453   4.877   3.349
14858SOL     OW56227   1.772   8.051   1.363
14858SOL    HW156228   1.830   8.095   1.432
14858SOL    HW256229   1.704   8.116   1.330
14859SOL     OW56230   3.270   9.879   0.217
14859SOL    HW156231   3.315   9.794   0.190
14859SOL    HW256232   3.180   9.885   0.174
14860SOL     OW56233   9.559   0.720   0.715
14860SOL    HW156234   9.578   0.737   0.812
14860SOL    HW256235   9.621   0.649   0.681
14861SOL     OW56236   5.277   4.467   7.320
14861SOL    HW156237   5.268   4.417   7.234
14861SOL    HW256238   5.234   4.415   7.393
14862SOL     OW56239   0.726   0.361   7.801
14862SOL    HW156240   0.780   0.313   7.870
14862SOL    HW256241   0.731   0.460   7.817
14863SOL     OW56242   9.624   7.768   6.713
14863SOL    HW156243   9.699   7.821   6.753
14863SOL    HW256244   9.625   7.778   6.614
14864SOL     OW56245   2.811   6.440   5.078
14864SOL    HW156246   2.855   6.351   5.068
14864SOL    HW256247   2.768   6.466   4.992
14865SOL     OW56248   4.371   2.778   5.841
14865SOL    HW156249   4.445   2.727   5.884
14865SOL    HW256250   4.317   2.717   5.783
14866SOL     OW56251   3.999   0.475   7.499
14866SOL    HW156252   4.048   0.394   7.531
14866SOL    HW256253   3.944   0.452   7.419
14867SOL     OW56254   1.471   6.507   1.684
14867SOL    HW156255   1.425   6.419   1.687
14867SOL    HW256256   1.407   6.578   1.654
14868SOL     OW56257   8.505   6.584   5.889
14868SOL    HW156258   8.594   6.546   5.865
14868SOL    HW256259   8.461   6.621   5.808
14869SOL     OW56260   2.097   0.416   7.730
14869SOL    HW156261   2.042   0.354   7.674
14869SOL    HW256262   2.044   0.445   7.810
14870SOL     OW56263   1.122   5.308   6.334
14870SOL    HW156264   1.087   5.401   6.330
14870SOL    HW256265   1.159   5.283   6.244
14871SOL     OW56266   0.527   1.281   6.073
14871SOL    HW156267   0.547   1.362   6.018
14871SOL    HW256268   0.429   1.261   6.067
14872SOL     OW56269   4.349   1.236   5.817
14872SOL    HW156270   4.294   1.216   5.898
14872SOL    HW256271   4.365   1.335   5.812
14873SOL     OW56272   4.733   3.022   0.322
14873SOL    HW156273   4.702   3.115   0.303
14873SOL    HW256274   4.729   2.967   0.238
14874SOL     OW56275   3.038   9.051   3.491
14874SOL    HW156276   3.070   8.962   3.522
14874SOL    HW256277   3.089   9.078   3.409
14875SOL     OW56278   5.203   0.606   7.156
14875SOL    HW156279   5.272   0.616   7.227
14875SOL    HW256280   5.213   0.680   7.089
14876SOL     OW56281   4.380   2.087   4.522
14876SOL    HW156282   4.454   2.130   4.574
14876SOL    HW256283   4.312   2.050   4.585
14877SOL     OW56284   0.093   6.886   0.193
14877SOL    HW156285   0.179   6.848   0.159
14877SOL    HW256286   0.102   6.985   0.204
14878SOL     OW56287   8.538   2.592   5.292
14878SOL    HW156288   8.495   2.539   5.365
14878SOL    HW256289   8.638   2.586   5.301
14879SOL     OW56290   3.975   8.901   2.040
14879SOL    HW156291   4.075   8.898   2.038
14879SOL    HW256292   3.944   8.996   2.044
14880SOL     OW56293   5.877   2.103   0.221
14880SOL    HW156294   5.930   2.070   0.298
14880SOL    HW256295   5.938   2.136   0.149
14881SOL     OW56296   8.378   8.050   2.638
14881SOL    HW156297   8.426   7.973   2.596
14881SOL    HW256298   8.402   8.054   2.735
14882SOL     OW56299   2.194   1.725   6.228
14882SOL    HW156300   2.139   1.695   6.306
14882SOL    HW256301   2.281   1.761   6.260
14883SOL     OW56302   2.550   0.608   6.925
14883SOL    HW156303   2.514   0.700   6.932
14883SOL    HW256304   2.560   0.568   7.016
14884SOL     OW56305   1.810   8.928   5.724
14884SOL    HW156306   1.730   8.869   5.729
14884SOL    HW256307   1.842   8.934   5.629
14885SOL     OW56308   9.465   1.876   5.104
14885SOL    HW156309   9.454   1.962   5.053
14885SOL    HW256310   9.462   1.799   5.040
14886SOL     OW56311   9.030   8.851   0.607
14886SOL    HW156312   9.074   8.924   0.554
14886SOL    HW256313   8.967   8.800   0.548
14887SOL     OW56314   0.159   0.974   4.995
14887SOL    HW156315   0.179   1.057   5.048
14887SOL    HW256316   0.062   0.972   4.971
14888SOL     OW56317   8.379   9.285   1.166
14888SOL    HW156318   8.418   9.353   1.227
14888SOL    HW256319   8.447   9.214   1.146
14889SOL     OW56320   1.166   2.874   4.816
14889SOL    HW156321   1.126   2.902   4.729
14889SOL    HW256322   1.225   2.946   4.851
14890SOL     OW56323   0.690   8.985   7.745
14890SOL    HW156324   0.689   8.890   7.713
14890SOL    HW256325   0.601   9.007   7.786
14891SOL     OW56326   5.265   3.477   0.815
14891SOL    HW156327   5.307   3.420   0.885
14891SOL    HW256328   5.313   3.466   0.728
14892SOL     OW56329   7.583   9.537   5.955
14892SOL    HW156330   7.483   9.537   5.948
14892SOL    HW256331   7.622   9.495   5.873
14893SOL     OW56332   0.513   4.605   4.296
14893SOL    HW156333   0.490   4.686   4.241
14893SOL    HW256334   0.478   4.618   4.389
14894SOL     OW56335   1.652   1.925   1.874
14894SOL    HW156336   1.702   1.849   1.834
14894SOL    HW256337   1.634   1.994   1.803
14895SOL     OW56338   7.882   5.858   6.146
14895SOL    HW156339   7.978   5.881   6.166
14895SOL    HW256340   7.857   5.773   6.193
14896SOL     OW56341   8.331   6.675   0.570
14896SOL    HW156342   8.307   6.753   0.627
14896SOL    HW256343   8.349   6.706   0.477
14897SOL     OW56344   4.686   1.483   7.437
14897SOL    HW156345   4.677   1.413   7.367
14897SOL    HW256346   4.603   1.540   7.438
14898SOL     OW56347   1.515   4.828   4.368
14898SOL    HW156348   1.586   4.856   4.304
14898SOL    HW256349   1.556   4.805   4.456
14899SOL     OW56350   7.199   9.366   4.480
14899SOL    HW156351   7.160   9.279   4.510
14899SOL    HW256352   7.264   9.350   4.406
14900SOL     OW56353   9.003   9.156   6.167
14900SOL    HW156354   8.931   9.116   6.111
14900SOL    HW256355   9.064   9.083   6.200
14901SOL     OW56356   5.578   9.497   7.791
14901SOL    HW156357   5.637   9.556   7.845
14901SOL    HW256358   5.493   9.480   7.840
14902SOL     OW56359   8.404   3.266   2.344
14902SOL    HW156360   8.388   3.360   2.372
14902SOL    HW256361   8.408   3.208   2.426
14903SOL     OW56362   8.302   3.873   5.374
14903SOL    HW156363   8.309   3.861   5.473
14903SOL    HW256364   8.390   3.903   5.338
14904SOL     OW56365   9.627   8.333   2.660
14904SOL    HW156366   9.547   8.304   2.607
14904SOL    HW256367   9.597   8.367   2.749
14905SOL     OW56368   8.653   4.568   2.339
14905SOL    HW156369   8.708   4.498   2.385
14905SOL    HW256370   8.564   4.575   2.383
14906SOL     OW56371   0.547   4.452   4.070
14906SOL    HW156372   0.556   4.354   4.088
14906SOL    HW256373   0.530   4.501   4.156
14907SOL     OW56374   1.720   3.199   6.378
14907SOL    HW156375   1.807   3.223   6.420
14907SOL    HW256376   1.683   3.278   6.329
14908SOL     OW56377   2.347   2.517   4.062
14908SOL    HW156378   2.421   2.490   4.124
14908SOL    HW256379   2.370   2.490   3.969
14909SOL     OW56380   0.859   2.226   5.165
14909SOL    HW156381   0.859   2.142   5.220
14909SOL    HW256382   0.953   2.257   5.152
14910SOL     OW56383   7.315   6.131   7.323
14910SOL    HW156384   7.290   6.071   7.247
14910SOL    HW256385   7.347   6.219   7.286
14911SOL     OW56386   9.042   4.377   2.374
14911SOL    HW156387   8.947   4.356   2.399
14911SOL    HW256388   9.082   4.298   2.328
14912SOL     OW56389   1.418   5.937   6.402
14912SOL    HW156390   1.472   5.907   6.481
14912SOL    HW256391   1.392   5.857   6.347
14913SOL     OW56392   2.243   8.373   1.598
14913SOL    HW156393   2.291   8.286   1.607
14913SOL    HW256394   2.310   8.447   1.599
14914SOL     OW56395   0.807   3.471   1.089
14914SOL    HW156396   0.769   3.499   1.177
14914SOL    HW256397   0.735   3.431   1.032
14915SOL     OW56398   0.544   3.619   3.426
14915SOL    HW156399   0.579   3.711   3.443
14915SOL    HW256400   0.444   3.621   3.425
14916SOL     OW56401   3.578   7.897   3.323
14916SOL    HW156402   3.554   7.993   3.336
14916SOL    HW256403   3.674   7.890   3.295
14917SOL     OW56404   7.678   1.230   3.636
14917SOL    HW156405   7.599   1.202   3.690
14917SOL    HW256406   7.653   1.307   3.577
14918SOL     OW56407   6.673   9.705   5.558
14918SOL    HW156408   6.602   9.648   5.518
14918SOL    HW256409   6.740   9.646   5.605
14919SOL     OW56410   7.728   8.116   7.931
14919SOL    HW156411   7.787   8.136   7.853
14919SOL    HW256412   7.643   8.166   7.922
14920SOL     OW56413   1.936   5.419   2.313
14920SOL    HW156414   1.900   5.342   2.365
14920SOL    HW256415   2.000   5.470   2.369
14921SOL     OW56416   8.378   0.969   5.468
14921SOL    HW156417   8.343   0.906   5.536
14921SOL    HW256418   8.316   1.047   5.459
14922SOL     OW56419   1.789   3.950   1.692
14922SOL    HW156420   1.850   3.962   1.771
14922SOL    HW256421   1.750   4.039   1.667
14923SOL     OW56422   1.836   2.455   1.739
14923SOL    HW156423   1.803   2.484   1.649
14923SOL    HW256424   1.758   2.434   1.798
14924SOL     OW56425   5.549   1.046   1.019
14924SOL    HW156426   5.475   1.050   1.087
14924SOL    HW256427   5.511   1.024   0.929
14925SOL     OW56428   8.062   9.392   0.994
14925SOL    HW156429   7.990   9.372   1.061
14925SOL    HW256430   8.050   9.332   0.914
14926SOL     OW56431   8.660   6.087   6.953
14926SOL    HW156432   8.692   6.080   7.047
14926SOL    HW256433   8.734   6.063   6.890
14927SOL     OW56434   3.177   4.575   6.832
14927SOL    HW156435   3.166   4.510   6.757
14927SOL    HW256436   3.269   4.567   6.870
14928SOL     OW56437   8.573   0.380   2.477
14928SOL    HW156438   8.641   0.399   2.548
14928SOL    HW256439   8.492   0.437   2.492
14929SOL     OW56440   8.752   8.319   4.730
14929SOL    HW156441   8.750   8.317   4.630
14929SOL    HW256442   8.781   8.230   4.765
14930SOL     OW56443   7.210   5.527   0.539
14930SOL    HW156444   7.273   5.595   0.575
14930SOL    HW256445   7.221   5.442   0.590
14931SOL     OW56446   5.963   3.331   0.278
14931SOL    HW156447   6.059   3.354   0.258
14931SOL    HW256448   5.957   3.238   0.313
14932SOL     OW56449   3.968   2.875   3.860
14932SOL    HW156450   4.062   2.904   3.882
14932SOL    HW256451   3.905   2.951   3.879
14933SOL     OW56452   2.418   3.184   4.009
14933SOL    HW156453   2.511   3.180   4.043
14933SOL    HW256454   2.398   3.277   3.977
14934SOL     OW56455   6.053   8.233   3.036
14934SOL    HW156456   6.019   8.320   3.000
14934SOL    HW256457   6.096   8.248   3.125
14935SOL     OW56458   0.434   4.138   6.185
14935SOL    HW156459   0.337   4.129   6.162
14935SOL    HW256460   0.476   4.205   6.123
14936SOL     OW56461   2.518   8.738   1.440
14936SOL    HW156462   2.525   8.788   1.527
14936SOL    HW256463   2.422   8.736   1.411
14937SOL     OW56464   7.252   3.804   1.417
14937SOL    HW156465   7.192   3.882   1.397
14937SOL    HW256466   7.247   3.738   1.343
14938SOL     OW56467   4.270   3.569   0.831
14938SOL    HW156468   4.245   3.484   0.783
14938SOL    HW256469   4.369   3.580   0.827
14939SOL     OW56470   3.740   3.776   7.800
14939SOL    HW156471   3.818   3.773   7.862
14939SOL    HW256472   3.660   3.810   7.850
14940SOL     OW56473   0.036   3.519   1.382
14940SOL    HW156474   0.008   3.426   1.408
14940SOL    HW256475   0.134   3.520   1.363
14941SOL     OW56476   2.631   1.983   4.302
14941SOL    HW156477   2.560   2.054   4.303
14941SOL    HW256478   2.617   1.923   4.223
14942SOL     OW56479   4.873   5.171   2.537
14942SOL    HW156480   4.812   5.220   2.600
14942SOL    HW256481   4.923   5.100   2.588
14943SOL     OW56482   6.358   7.274   2.829
14943SOL    HW156483   6.322   7.191   2.871
14943SOL    HW256484   6.293   7.349   2.843
14944SOL     OW56485   3.219   3.465   1.996
14944SOL    HW156486   3.205   3.543   1.935
14944SOL    HW256487   3.305   3.419   1.972
14945SOL     OW56488   0.555   1.231   7.807
14945SOL    HW156489   0.629   1.276   7.758
14945SOL    HW256490   0.478   1.294   7.817
14946SOL     OW56491   9.037   5.058   7.878
14946SOL    HW156492   8.940   5.078   7.892
14946SOL    HW256493   9.048   4.963   7.850
14947SOL     OW56494   0.440   6.275   2.445
14947SOL    HW156495   0.510   6.313   2.384
14947SOL    HW256496   0.375   6.220   2.392
14948SOL     OW56497   1.922   5.122   1.914
14948SOL    HW156498   1.960   5.208   1.880
14948SOL    HW256499   1.967   5.096   1.999
14949SOL     OW56500   4.627   2.636   7.666
14949SOL    HW156501   4.563   2.567   7.700
14949SOL    HW256502   4.715   2.594   7.645
14950SOL     OW56503   7.511   1.717   2.328
14950SOL    HW156504   7.567   1.788   2.370
14950SOL    HW256505   7.415   1.731   2.352
14951SOL     OW56506   4.635   4.498   6.968
14951SOL    HW156507   4.553   4.542   7.005
14951SOL    HW256508   4.625   4.488   6.869
14952SOL     OW56509   4.595   0.104   2.318
14952SOL    HW156510   4.661   0.037   2.352
14952SOL    HW256511   4.618   0.129   2.224
14953SOL     OW56512   6.991   4.241   0.083
14953SOL    HW156513   6.975   4.184   0.164
14953SOL    HW256514   7.083   4.223   0.048
14954SOL     OW56515   9.458   1.164   5.295
14954SOL    HW156516   9.523   1.186   5.222
14954SOL    HW256517   9.406   1.083   5.269
14955SOL     OW56518   4.945   3.078   5.613
14955SOL    HW156519   5.009   3.143   5.653
14955SOL    HW256520   4.873   3.056   5.680
14956SOL     OW56521   2.797   6.265   6.313
14956SOL    HW156522   2.848   6.262   6.399
14956SOL    HW256523   2.761   6.357   6.298
14957SOL     OW56524   8.627   8.844   3.923
14957SOL    HW156525   8.707   8.835   3.863
14957SOL    HW256526   8.554   8.783   3.890
14958SOL     OW56527   9.411   9.289   1.193
14958SOL    HW156528   9.430   9.204   1.143
14958SOL    HW256529   9.475   9.298   1.269
14959SOL     OW56530   3.290   9.122   1.421
14959SOL    HW156531   3.306   9.118   1.322
14959SOL    HW256532   3.254   9.212   1.445
14960SOL     OW56533   7.448   6.861   1.311
14960SOL    HW156534   7.547   6.872   1.319
14960SOL    HW256535   7.428   6.786   1.248
14961SOL     OW56536   8.281   2.407   7.237
14961SOL    HW156537   8.293   2.353   7.154
14961SOL    HW256538   8.329   2.494   7.228
14962SOL     OW56539   9.966   5.858   6.346
14962SOL    HW156540   9.926   5.873   6.436
14962SOL    HW256541   0.060   5.826   6.356
14963SOL     OW56542   2.627   0.085   3.231
14963SOL    HW156543   2.574   0.170   3.235
14963SOL    HW256544   2.662   0.062   3.321
14964SOL     OW56545   2.768   9.609   6.966
14964SOL    HW156546   2.806   9.550   6.894
14964SOL    HW256547   2.770   9.560   7.053
14965SOL     OW56548   8.370   5.586   2.534
14965SOL    HW156549   8.400   5.681   2.520
14965SOL    HW256550   8.275   5.586   2.568
14966SOL     OW56551   8.836   1.730   1.434
14966SOL    HW156552   8.814   1.827   1.445
14966SOL    HW256553   8.811   1.701   1.341
14967SOL     OW56554   1.959   3.840   0.368
14967SOL    HW156555   1.905   3.818   0.449
14967SOL    HW256556   2.030   3.771   0.355
14968SOL     OW56557   4.865   9.094   5.916
14968SOL    HW156558   4.837   9.065   5.824
14968SOL    HW256559   4.964   9.104   5.918
14969SOL     OW56560   3.321   9.841   3.003
14969SOL    HW156561   3.409   9.886   2.989
14969SOL    HW256562   3.330   9.743   2.984
14970SOL     OW56563   2.713   4.509   7.501
14970SOL    HW156564   2.654   4.429   7.496
14970SOL    HW256565   2.809   4.480   7.501
14971SOL     OW56566   7.355   0.372   1.002
14971SOL    HW156567   7.328   0.367   0.905
14971SOL    HW256568   7.455   0.366   1.008
14972SOL     OW56569   0.832   4.866   6.217
14972SOL    HW156570   0.832   4.928   6.138
14972SOL    HW256571   0.829   4.772   6.185
14973SOL     OW56572   6.294   6.233   1.222
14973SOL    HW156573   6.269   6.199   1.131
14973SOL    HW256574   6.215   6.276   1.265
14974SOL     OW56575   7.702   8.338   2.139
14974SOL    HW156576   7.614   8.356   2.095
14974SOL    HW256577   7.754   8.274   2.084
14975SOL     OW56578   3.623   3.095   2.818
14975SOL    HW156579   3.632   3.103   2.718
14975SOL    HW256580   3.690   3.030   2.852
14976SOL     OW56581   4.523   7.664   2.428
14976SOL    HW156582   4.583   7.592   2.463
14976SOL    HW256583   4.508   7.651   2.330
14977SOL     OW56584   4.684   6.039   7.436
14977SOL    HW156585   4.762   6.062   7.495
14977SOL    HW256586   4.613   6.108   7.446
14978SOL     OW56587   4.871   0.728   4.002
14978SOL    HW156588   4.966   0.755   3.983
14978SOL    HW256589   4.825   0.802   4.050
14979SOL     OW56590   2.564   3.018   6.818
14979SOL    HW156591   2.501   3.024   6.740
14979SOL    HW256592   2.632   3.091   6.810
14980SOL     OW56593   9.377   1.889   2.568
14980SOL    HW156594   9.464   1.919   2.609
14980SOL    HW256595   9.309   1.962   2.578
14981SOL     OW56596   8.470   3.956   6.092
14981SOL    HW156597   8.485   3.857   6.093
14981SOL    HW256598   8.405   3.981   6.164
14982SOL     OW56599   2.433   0.815   3.122
14982SOL    HW156600   2.457   0.719   3.108
14982SOL    HW256601   2.478   0.871   3.053
14983SOL     OW56602   6.433   3.015   1.127
14983SOL    HW156603   6.452   3.019   1.029
14983SOL    HW256604   6.334   3.015   1.141
14984SOL     OW56605   7.357   8.561   6.011
14984SOL    HW156606   7.448   8.598   6.027
14984SOL    HW256607   7.341   8.483   6.071
14985SOL     OW56608   3.770   6.492   3.173
14985SOL    HW156609   3.710   6.513   3.095
14985SOL    HW256610   3.842   6.561   3.179
14986SOL     OW56611   1.554   9.666   7.682
14986SOL    HW156612   1.505   9.716   7.610
14986SOL    HW256613   1.647   9.701   7.690
14987SOL     OW56614   2.638   4.551   7.762
14987SOL    HW156615   2.678   4.534   7.671
14987SOL    HW256616   2.545   4.585   7.752
14988SOL     OW56617   9.169   0.465   1.504
14988SOL    HW156618   9.204   0.476   1.597
14988SOL    HW256619   9.121   0.548   1.476
14989SOL     OW56620   8.787   0.407   0.224
14989SOL    HW156621   8.844   0.489   0.220
14989SOL    HW256622   8.828   0.336   0.167
14990SOL     OW56623   1.436   7.882   6.814
14990SOL    HW156624   1.337   7.891   6.825
14990SOL    HW256625   1.471   7.960   6.763
14991SOL     OW56626   3.557   8.368   3.154
14991SOL    HW156627   3.477   8.341   3.101
14991SOL    HW256628   3.625   8.410   3.094
14992SOL     OW56629   1.147   2.137   7.799
14992SOL    HW156630   1.195   2.076   7.736
14992SOL    HW256631   1.072   2.087   7.843
14993SOL     OW56632   7.788   5.509   2.371
14993SOL    HW156633   7.736   5.460   2.441
14993SOL    HW256634   7.802   5.448   2.292
14994SOL     OW56635   3.958   0.288   6.384
14994SOL    HW156636   3.912   0.292   6.295
14994SOL    HW256637   4.003   0.376   6.402
14995SOL     OW56638   9.341   1.682   3.748
14995SOL    HW156639   9.322   1.685   3.650
14995SOL    HW256640   9.411   1.613   3.766
14996SOL     OW56641   2.002   0.458   4.726
14996SOL    HW156642   1.999   0.541   4.670
14996SOL    HW256643   2.086   0.457   4.780
14997SOL     OW56644   9.185   2.385   6.202
14997SOL    HW156645   9.115   2.314   6.217
14997SOL    HW256646   9.222   2.375   6.109
14998SOL     OW56647   2.633   8.007   2.715
14998SOL    HW156648   2.629   7.929   2.778
14998SOL    HW256649   2.718   8.004   2.663
14999SOL     OW56650   8.406   1.372   1.598
14999SOL    HW156651   8.479   1.313   1.563
14999SOL    HW256652   8.384   1.442   1.530
15000SOL     OW56653   9.989   7.588   7.300
15000SOL    HW156654   9.941   7.504   7.275
15000SOL    HW256655   0.051   7.614   7.226
15001SOL     OW56656   3.732   6.991   5.668
15001SOL    HW156657   3.681   7.064   5.621
15001SOL    HW256658   3.791   7.032   5.738
15002SOL     OW56659   1.286   5.713   0.785
15002SOL    HW156660   1.236   5.772   0.721
15002SOL    HW256661   1.243   5.623   0.788
15003SOL     OW56662   8.495   9.437   7.311
15003SOL    HW156663   8.573   9.393   7.267
15003SOL    HW256664   8.519   9.531   7.336
15004SOL     OW56665   2.524   7.351   2.096
15004SOL    HW156666   2.569   7.331   2.009
15004SOL    HW256667   2.581   7.317   2.171
15005SOL     OW56668   4.138   2.177   0.702
15005SOL    HW156669   4.228   2.218   0.719
15005SOL    HW256670   4.150   2.081   0.675
15006SOL     OW56671   6.895   1.412   1.655
15006SOL    HW156672   6.898   1.333   1.594
15006SOL    HW256673   6.814   1.406   1.713
15007SOL     OW56674   2.596   5.807   3.938
15007SOL    HW156675   2.522   5.873   3.925
15007SOL    HW256676   2.562   5.715   3.920
15008SOL     OW56677   1.416   1.561   2.470
15008SOL    HW156678   1.438   1.631   2.402
15008SOL    HW256679   1.368   1.486   2.425
15009SOL     OW56680   7.358   2.491   1.257
15009SOL    HW156681   7.422   2.423   1.294
15009SOL    HW256682   7.410   2.567   1.217
15010SOL     OW56683   8.019   0.328   2.555
15010SOL    HW156684   7.985   0.256   2.495
15010SOL    HW256685   8.089   0.291   2.616
15011SOL     OW56686   0.957   3.125   5.767
15011SOL    HW156687   0.919   3.094   5.854
15011SOL    HW256688   1.032   3.189   5.785
15012SOL     OW56689   1.782   1.678   0.565
15012SOL    HW156690   1.722   1.730   0.625
15012SOL    HW256691   1.794   1.586   0.603
15013SOL     OW56692   0.945   8.366   4.309
15013SOL    HW156693   1.018   8.393   4.246
15013SOL    HW256694   0.984   8.313   4.384
15014SOL     OW56695   4.186   8.092   1.088
15014SOL    HW156696   4.146   8.182   1.109
15014SOL    HW256697   4.269   8.079   1.143
15015SOL     OW56698   4.315   0.135   3.547
15015SOL    HW156699   4.407   0.106   3.520
15015SOL    HW256700   4.270   0.179   3.469
15016SOL     OW56701   5.820   0.203   3.184
15016SOL    HW156702   5.828   0.192   3.283
15016SOL    HW256703   5.784   0.295   3.164
15017SOL     OW56704   1.951   0.418   7.095
15017SOL    HW156705   2.031   0.423   7.154
15017SOL    HW256706   1.981   0.399   7.001
15018SOL     OW56707   3.620   1.823   0.868
15018SOL    HW156708   3.530   1.852   0.835
15018SOL    HW256709   3.622   1.723   0.877
15019SOL     OW56710   1.270   9.941   2.471
15019SOL    HW156711   1.259   9.905   2.378
15019SOL    HW256712   1.362   9.921   2.504
15020SOL     OW56713   8.908   5.438   2.274
15020SOL    HW156714   8.986   5.401   2.323
15020SOL    HW256715   8.894   5.386   2.189
15021SOL     OW56716   5.418   2.151   0.423
15021SOL    HW156717   5.465   2.071   0.387
15021SOL    HW256718   5.365   2.195   0.350
15022SOL     OW56719   6.135   0.056   4.714
15022SOL    HW156720   6.069   0.129   4.698
15022SOL    HW256721   6.097   9.969   4.683
15023SOL     OW56722   5.042   5.765   0.112
15023SOL    HW156723   4.952   5.741   0.147
15023SOL    HW256724   5.061   5.861   0.130
15024SOL     OW56725   3.603   9.524   2.388
15024SOL    HW156726   3.512   9.500   2.421
15024SOL    HW256727   3.671   9.463   2.430
15025SOL     OW56728   0.184   9.519   7.159
15025SOL    HW156729   0.130   9.448   7.204
15025SOL    HW256730   0.194   9.498   7.062
15026SOL     OW56731   8.035   5.631   2.377
15026SOL    HW156732   8.056   5.643   2.474
15026SOL    HW256733   7.938   5.610   2.366
15027SOL     OW56734   9.673   8.208   0.167
15027SOL    HW156735   9.708   8.294   0.129
15027SOL    HW256736   9.574   8.213   0.174
15028SOL     OW56737   9.744   7.110   5.873
15028SOL    HW156738   9.825   7.154   5.835
15028SOL    HW256739   9.698   7.057   5.802
15029SOL     OW56740   4.686   8.154   2.801
15029SOL    HW156741   4.664   8.057   2.789
15029SOL    HW256742   4.606   8.209   2.778
15030SOL     OW56743   0.700   4.428   1.706
15030SOL    HW156744   0.662   4.390   1.791
15030SOL    HW256745   0.748   4.513   1.727
15031SOL     OW56746   8.773   8.411   6.622
15031SOL    HW156747   8.783   8.390   6.525
15031SOL    HW256748   8.772   8.510   6.635
15032SOL     OW56749   3.399   4.951   1.353
15032SOL    HW156750   3.443   4.990   1.434
15032SOL    HW256751   3.306   4.986   1.345
15033SOL     OW56752   3.037   9.301   6.000
15033SOL    HW156753   3.043   9.289   5.901
15033SOL    HW256754   3.105   9.244   6.045
15034SOL     OW56755   2.213   7.287   1.416
15034SOL    HW156756   2.253   7.378   1.406
15034SOL    HW256757   2.260   7.222   1.357
15035SOL     OW56758   9.150   5.853   4.069
15035SOL    HW156759   9.175   5.863   4.165
15035SOL    HW256760   9.174   5.937   4.019
15036SOL     OW56761   4.775   7.741   1.467
15036SOL    HW156762   4.826   7.752   1.381
15036SOL    HW256763   4.679   7.725   1.446
15037SOL     OW56764   1.353   6.200   5.000
15037SOL    HW156765   1.448   6.229   5.011
15037SOL    HW256766   1.328   6.203   4.904
15038SOL     OW56767   0.911   9.603   2.042
15038SOL    HW156768   0.814   9.603   2.066
15038SOL    HW256769   0.927   9.535   1.970
15039SOL     OW56770   9.658   8.600   3.705
15039SOL    HW156771   9.612   8.646   3.628
15039SOL    HW256772   9.656   8.501   3.689
15040SOL     OW56773   8.126   0.429   1.830
15040SOL    HW156774   8.039   0.459   1.791
15040SOL    HW256775   8.161   0.500   1.891
15041SOL     OW56776   4.771   5.387   7.660
15041SOL    HW156777   4.787   5.439   7.744
15041SOL    HW256778   4.844   5.320   7.647
15042SOL     OW56779   8.292   0.990   6.276
15042SOL    HW156780   8.329   1.030   6.360
15042SOL    HW256781   8.197   0.962   6.292
15043SOL     OW56782   6.602   9.736   7.224
15043SOL    HW156783   6.544   9.686   7.288
15043SOL    HW256784   6.612   9.684   7.140
15044SOL     OW56785   3.847   7.520   6.700
15044SOL    HW156786   3.800   7.521   6.789
15044SOL    HW256787   3.781   7.505   6.627
15045SOL     OW56788   3.592   3.063   3.682
15045SOL    HW156789   3.542   3.007   3.748
15045SOL    HW256790   3.537   3.144   3.659
15046SOL     OW56791   8.088   1.058   0.881
15046SOL    HW156792   8.143   1.077   0.800
15046SOL    HW256793   7.993   1.044   0.854
15047SOL     OW56794   2.664   6.308   1.430
15047SOL    HW156795   2.569   6.304   1.459
15047SOL    HW256796   2.695   6.217   1.403
15048SOL     OW56797   1.781   5.975   0.976
15048SOL    HW156798   1.760   5.878   0.986
15048SOL    HW256799   1.778   6.019   1.066
15049SOL     OW56800   8.733   5.553   2.056
15049SOL    HW156801   8.790   5.569   2.137
15049SOL    HW256802   8.755   5.620   1.986
15050SOL     OW56803   0.411   0.909   6.174
15050SOL    HW156804   0.442   0.815   6.182
15050SOL    HW256805   0.360   0.920   6.089
15051SOL     OW56806   9.522   8.757   6.917
15051SOL    HW156807   9.588   8.795   6.852
15051SOL    HW256808   9.467   8.687   6.873
15052SOL     OW56809   7.363   2.250   0.220
15052SOL    HW156810   7.452   2.221   0.188
15052SOL    HW256811   7.374   2.308   0.301
15053SOL     OW56812   4.036   5.193   6.516
15053SOL    HW156813   3.980   5.157   6.590
15053SOL    HW256814   4.069   5.285   6.540
15054SOL     OW56815   1.173   9.657   3.082
15054SOL    HW156816   1.253   9.642   3.025
15054SOL    HW256817   1.100   9.698   3.027
15055SOL     OW56818   0.277   3.860   4.048
15055SOL    HW156819   0.328   3.806   3.981
15055SOL    HW256820   0.182   3.830   4.051
15056SOL     OW56821   1.035   2.883   6.722
15056SOL    HW156822   1.050   2.825   6.642
15056SOL    HW256823   1.004   2.974   6.692
15057SOL     OW56824   3.423   6.950   2.463
15057SOL    HW156825   3.359   6.928   2.389
15057SOL    HW256826   3.441   7.048   2.464
15058SOL     OW56827   6.060   3.589   2.434
15058SOL    HW156828   6.033   3.532   2.357
15058SOL    HW256829   6.001   3.669   2.438
15059SOL     OW56830   8.535   9.008   7.364
15059SOL    HW156831   8.436   9.000   7.359
15059SOL    HW256832   8.573   8.927   7.409
15060SOL     OW56833   7.439   6.542   4.818
15060SOL    HW156834   7.415   6.583   4.730
15060SOL    HW256835   7.462   6.446   4.805
15061SOL     OW56836   9.179   0.167   4.553
15061SOL    HW156837   9.253   0.183   4.618
15061SOL    HW256838   9.117   0.246   4.554
15062SOL     OW56839   5.283   5.266   7.486
15062SOL    HW156840   5.279   5.167   7.499
15062SOL    HW256841   5.304   5.309   7.574
15063SOL     OW56842   8.205   0.923   1.328
15063SOL    HW156843   8.292   0.916   1.376
15063SOL    HW256844   8.220   0.923   1.229
15064SOL     OW56845   1.185   0.235   5.880
15064SOL    HW156846   1.193   0.220   5.782
15064SOL    HW256847   1.243   0.312   5.907
15065SOL     OW56848   9.285   2.764   1.057
15065SOL    HW156849   9.335   2.839   1.098
15065SOL    HW256850   9.341   2.721   0.985
15066SOL     OW56851   7.263   0.565   2.090
15066SOL    HW156852   7.351   0.543   2.132
15066SOL    HW256853   7.278   0.623   2.010
15067SOL     OW56854   3.695   1.903   5.431
15067SOL    HW156855   3.753   1.928   5.509
15067SOL    HW256856   3.745   1.842   5.370
15068SOL     OW56857   8.077   6.485   3.195
15068SOL    HW156858   8.073   6.388   3.171
15068SOL    HW256859   7.991   6.529   3.168
15069SOL     OW56860   6.930   6.316   2.781
15069SOL    HW156861   6.943   6.217   2.783
15069SOL    HW256862   6.982   6.356   2.706
15070SOL     OW56863   1.472   3.258   6.509
15070SOL    HW156864   1.548   3.211   6.466
15070SOL    HW256865   1.396   3.193   6.523
15071SOL     OW56866   0.001   4.338   4.313
15071SOL    HW156867   0.038   4.428   4.335
15071SOL    HW256868   9.987   4.331   4.214
15072SOL     OW56869   2.235   1.840   6.544
15072SOL    HW156870   2.252   1.874   6.637
15072SOL    HW256871   2.174   1.761   6.549
15073SOL     OW56872   1.215   3.047   1.326
15073SOL    HW156873   1.226   3.126   1.387
15073SOL    HW256874   1.305   3.014   1.298
15074SOL     OW56875   1.181   5.370   2.385
15074SOL    HW156876   1.271   5.407   2.407
15074SOL    HW256877   1.162   5.383   2.288
15075SOL     OW56878   3.807   8.700   5.250
15075SOL    HW156879   3.718   8.711   5.206
15075SOL    HW256880   3.869   8.651   5.189
15076SOL     OW56881   3.600   7.220   5.574
15076SOL    HW156882   3.658   7.294   5.542
15076SOL    HW256883   3.536   7.254   5.643
15077SOL     OW56884   3.199   1.728   5.968
15077SOL    HW156885   3.144   1.647   5.989
15077SOL    HW256886   3.261   1.747   6.044
15078SOL     OW56887   8.626   0.096   0.917
15078SOL    HW156888   8.707   0.092   0.858
15078SOL    HW256889   8.573   0.012   0.906
15079SOL     OW56890   7.370   4.422   1.046
15079SOL    HW156891   7.425   4.393   0.968
15079SOL    HW256892   7.398   4.514   1.074
15080SOL     OW56893   2.769   6.750   1.867
15080SOL    HW156894   2.831   6.778   1.793
15080SOL    HW256895   2.777   6.652   1.881
15081SOL     OW56896   1.107   4.046   1.408
15081SOL    HW156897   1.033   4.113   1.419
15081SOL    HW256898   1.181   4.067   1.472
15082SOL     OW56899   0.873   4.537   5.868
15082SOL    HW156900   0.877   4.438   5.849
15082SOL    HW256901   0.799   4.578   5.815
15083SOL     OW56902   8.957   0.345   2.879
15083SOL    HW156903   9.006   0.259   2.866
15083SOL    HW256904   9.021   0.422   2.871
15084SOL     OW56905   1.636   9.503   4.414
15084SOL    HW156906   1.628   9.583   4.474
15084SOL    HW256907   1.573   9.432   4.446
15085SOL     OW56908   0.492   8.230   3.358
15085SOL    HW156909   0.585   8.212   3.325
15085SOL    HW256910   0.496   8.281   3.444
15086SOL     OW56911   1.235   7.152   3.334
15086SOL    HW156912   1.255   7.139   3.236
15086SOL    HW256913   1.290   7.228   3.369
15087SOL     OW56914   9.822   6.253   2.980
15087SOL    HW156915   9.764   6.183   3.021
15087SOL    HW256916   9.790   6.272   2.887
15088SOL     OW56917   7.769   3.072   0.193
15088SOL    HW156918   7.744   3.168   0.187
15088SOL    HW256919   7.766   3.030   0.102
15089SOL     OW56920   8.832   7.272   2.230
15089SOL    HW156921   8.873   7.247   2.318
15089SOL    HW256922   8.895   7.332   2.180
15090SOL     OW56923   1.675   0.166   7.633
15090SOL    HW156924   1.616   0.137   7.708
15090SOL    HW256925   1.644   0.123   7.548
15091SOL     OW56926   5.151   0.762   3.950
15091SOL    HW156927   5.157   0.858   3.921
15091SOL    HW256928   5.241   0.719   3.942
15092SOL     OW56929   9.497   9.555   0.179
15092SOL    HW156930   9.457   9.642   0.209
15092SOL    HW256931   9.423   9.490   0.160
15093SOL     OW56932   4.939   8.692   1.326
15093SOL    HW156933   4.925   8.723   1.420
15093SOL    HW256934   4.882   8.611   1.309
15094SOL     OW56935   3.121   1.370   0.516
15094SOL    HW156936   3.040   1.384   0.458
15094SOL    HW256937   3.188   1.316   0.467
15095SOL     OW56938   4.901   8.044   2.218
15095SOL    HW156939   4.902   7.944   2.221
15095SOL    HW256940   4.948   8.075   2.136
15096SOL     OW56941   8.151   8.234   2.736
15096SOL    HW156942   8.063   8.231   2.689
15096SOL    HW256943   8.215   8.172   2.691
15097SOL     OW56944   7.509   5.059   2.091
15097SOL    HW156945   7.447   5.058   2.013
15097SOL    HW256946   7.541   5.152   2.107
15098SOL     OW56947   0.184   9.015   5.496
15098SOL    HW156948   0.258   9.006   5.429
15098SOL    HW256949   0.209   9.085   5.564
15099SOL     OW56950   5.528   2.089   6.424
15099SOL    HW156951   5.441   2.080   6.471
15099SOL    HW256952   5.516   2.066   6.327
15100SOL     OW56953   3.222   9.053   7.803
15100SOL    HW156954   3.270   9.097   7.727
15100SOL    HW256955   3.261   9.084   7.890
15101SOL     OW56956   7.294   0.314   6.367
15101SOL    HW156957   7.360   0.377   6.326
15101SOL    HW256958   7.230   0.282   6.297
15102SOL     OW56959   3.082   5.527   0.208
15102SOL    HW156960   3.093   5.615   0.161
15102SOL    HW256961   3.170   5.482   0.215
15103SOL     OW56962   8.296   2.865   4.067
15103SOL    HW156963   8.308   2.809   4.149
15103SOL    HW256964   8.297   2.806   3.986
15104SOL     OW56965   4.034   4.224   1.870
15104SOL    HW156966   4.124   4.195   1.838
15104SOL    HW256967   3.997   4.292   1.807
15105SOL     OW56968   8.050   0.404   0.843
15105SOL    HW156969   8.141   0.392   0.882
15105SOL    HW256970   8.051   0.377   0.747
15106SOL     OW56971   4.459   5.187   3.624
15106SOL    HW156972   4.501   5.202   3.713
15106SOL    HW256973   4.383   5.251   3.611
15107SOL     OW56974   3.158   0.584   6.831
15107SOL    HW156975   3.150   0.596   6.732
15107SOL    HW256976   3.178   0.671   6.875
15108SOL     OW56977   3.838   8.882   6.360
15108SOL    HW156978   3.889   8.878   6.274
15108SOL    HW256979   3.744   8.909   6.342
15109SOL     OW56980   5.576   0.843   7.295
15109SOL    HW156981   5.511   0.768   7.304
15109SOL    HW256982   5.664   0.808   7.262
15110SOL     OW56983   6.519   9.658   1.891
15110SOL    HW156984   6.460   9.732   1.859
15110SOL    HW256985   6.502   9.641   1.988
15111SOL     OW56986   8.274   6.509   0.210
15111SOL    HW156987   8.252   6.434   0.272
15111SOL    HW256988   8.196   6.527   0.150
15112SOL     OW56989   6.821   9.079   2.968
15112SOL    HW156990   6.738   9.101   3.019
15112SOL    HW256991   6.836   9.148   2.898
15113SOL     OW56992   0.649   7.660   1.042
15113SOL    HW156993   0.588   7.666   0.963
15113SOL    HW256994   0.741   7.634   1.011
15114SOL     OW56995   3.907   9.650   4.182
15114SOL    HW156996   3.849   9.568   4.189
15114SOL    HW256997   4.003   9.624   4.188
15115SOL     OW56998   9.134   2.458   1.923
15115SOL    HW156999   9.127   2.390   1.850
15115SOL    HW257000   9.186   2.537   1.889
15116SOL     OW57001   3.302   3.541   2.251
15116SOL    HW157002   3.345   3.461   2.293
15116SOL    HW257003   3.266   3.516   2.161
15117SOL     OW57004   2.429   6.807   4.241
15117SOL    HW157005   2.391   6.789   4.151
15117SOL    HW257006   2.436   6.722   4.293
15118SOL     OW57007   3.897   1.471   4.164
15118SOL    HW157008   3.845   1.556   4.167
15118SOL    HW257009   3.846   1.402   4.112
15119SOL     OW57010   1.912   2.090   4.534
15119SOL    HW157011   1.863   2.158   4.479
15119SOL    HW257012   1.885   1.998   4.505
15120SOL     OW57013   3.662   0.032   3.449
15120SOL    HW157014   3.639   0.128   3.467
15120SOL    HW257015   3.752   0.012   3.487
15121SOL     OW57016   8.824   1.481   7.589
15121SOL    HW157017   8.726   1.504   7.590
15121SOL    HW257018   8.878   1.564   7.581
15122SOL     OW57019   7.740   3.254   1.165
15122SOL    HW157020   7.728   3.170   1.112
15122SOL    HW257021   7.786   3.233   1.252
15123SOL     OW57022   2.980   5.518   2.723
15123SOL    HW157023   3.058   5.519   2.786
15123SOL    HW257024   3.012   5.496   2.631
15124SOL     OW57025   7.597   7.256   6.657
15124SOL    HW157026   7.658   7.270   6.736
15124SOL    HW257027   7.585   7.343   6.609
15125SOL     OW57028   1.595   1.971   4.143
15125SOL    HW157029   1.502   1.966   4.179
15125SOL    HW257030   1.635   1.879   4.141
15126SOL     OW57031   5.136   2.640   0.845
15126SOL    HW157032   5.160   2.672   0.937
15126SOL    HW257033   5.179   2.700   0.777
15127SOL     OW57034   8.052   4.937   7.023
15127SOL    HW157035   8.116   4.976   7.089
15127SOL    HW257036   7.991   5.009   6.990
15128SOL     OW57037   3.626   0.903   4.085
15128SOL    HW157038   3.630   0.917   4.184
15128SOL    HW257039   3.596   0.810   4.066
15129SOL     OW57040   7.332   6.257   2.900
15129SOL    HW157041   7.329   6.158   2.911
15129SOL    HW257042   7.347   6.280   2.804
15130SOL     OW57043   1.384   0.256   3.181
15130SOL    HW157044   1.353   0.299   3.095
15130SOL    HW257045   1.466   0.303   3.213
15131SOL     OW57046   8.366   1.076   2.225
15131SOL    HW157047   8.338   1.172   2.235
15131SOL    HW257048   8.410   1.063   2.136
15132SOL     OW57049   3.411   0.219   0.731
15132SOL    HW157050   3.400   0.284   0.656
15132SOL    HW257051   3.330   0.222   0.790
15133SOL     OW57052   9.757   9.309   0.144
15133SOL    HW157053   9.757   9.397   0.098
15133SOL    HW257054   9.848   9.289   0.180
15134SOL     OW57055   3.737   9.144   1.583
15134SOL    HW157056   3.775   9.236   1.595
15134SOL    HW257057   3.640   9.145   1.606
15135SOL     OW57058   4.640   5.500   3.485
15135SOL    HW157059   4.608   5.416   3.440
15135SOL    HW257060   4.715   5.539   3.432
15136SOL     OW57061   1.959   7.552   7.110
15136SOL    HW157062   1.861   7.541   7.126
15136SOL    HW257063   1.999   7.601   7.187
15137SOL     OW57064   4.070   3.756   1.963
15137SOL    HW157065   4.091   3.726   2.056
15137SOL    HW257066   3.998   3.826   1.966
15138SOL     OW57067   8.570   5.712   6.827
15138SOL    HW157068   8.564   5.668   6.738
15138SOL    HW257069   8.527   5.802   6.823
15139SOL     OW57070   8.151   0.946   7.676
15139SOL    HW157071   8.078   0.879   7.694
15139SOL    HW257072   8.124   1.035   7.713
15140SOL     OW57073   2.993   5.185   6.584
15140SOL    HW157074   3.046   5.227   6.510
15140SOL    HW257075   2.987   5.086   6.570
15141SOL     OW57076   9.083   2.406   1.105
15141SOL    HW157077   9.089   2.494   1.152
15141SOL    HW257078   9.052   2.420   1.011
15142SOL     OW57079   4.303   9.510   1.222
15142SOL    HW157080   4.329   9.543   1.313
15142SOL    HW257081   4.212   9.469   1.227
15143SOL     OW57082   7.358   7.027   5.361
15143SOL    HW157083   7.454   7.054   5.357
15143SOL    HW257084   7.343   6.950   5.299
15144SOL     OW57085   6.050   0.595   3.443
15144SOL    HW157086   6.113   0.540   3.498
15144SOL    HW257087   6.054   0.564   3.348
15145SOL     OW57088   3.674   3.653   6.644
15145SOL    HW157089   3.755   3.711   6.653
15145SOL    HW257090   3.640   3.656   6.550
15146SOL     OW57091   5.152   9.823   1.185
15146SOL    HW157092   5.169   9.797   1.090
15146SOL    HW257093   5.173   9.745   1.244
15147SOL     OW57094   6.462   0.126   7.360
15147SOL    HW157095   6.434   0.098   7.451
15147SOL    HW257096   6.511   0.213   7.365
15148SOL     OW57097   8.201   9.635   2.137
15148SOL    HW157098   8.125   9.698   2.125
15148SOL    HW257099   8.242   9.650   2.227
15149SOL     OW57100   4.822   6.118   7.663
15149SOL    HW157101   4.744   6.069   7.702
15149SOL    HW257102   4.828   6.209   7.703
15150SOL     OW57103   1.017   7.163   0.723
15150SOL    HW157104   0.947   7.208   0.667
15150SOL    HW257105   1.050   7.226   0.792
15151SOL     OW57106   9.622   2.128   3.257
15151SOL    HW157107   9.715   2.163   3.242
15151SOL    HW257108   9.562   2.204   3.280
15152SOL     OW57109   1.621   4.737   4.610
15152SOL    HW157110   1.558   4.664   4.635
15152SOL    HW257111   1.659   4.778   4.693
15153SOL     OW57112   4.333   1.223   3.592
15153SOL    HW157113   4.398   1.182   3.655
15153SOL    HW257114   4.298   1.308   3.631
15154SOL     OW57115   0.366   0.171   4.906
15154SOL    HW157116   0.417   0.244   4.862
15154SOL    HW257117   0.275   0.163   4.864
15155SOL     OW57118   2.284   8.388   6.139
15155SOL    HW157119   2.269   8.436   6.052
15155SOL    HW257120   2.382   8.371   6.151
15156SOL     OW57121   7.511   0.512   2.207
15156SOL    HW157122   7.555   0.434   2.251
15156SOL    HW257123   7.570   0.547   2.135
15157SOL     OW57124   9.242   5.072   7.115
15157SOL    HW157125   9.324   5.115   7.076
15157SOL    HW257126   9.160   5.113   7.074
15158SOL     OW57127   9.557   6.338   3.208
15158SOL    HW157128   9.603   6.423   3.233
15158SOL    HW257129   9.531   6.341   3.111
15159SOL     OW57130   2.885   1.251   2.971
15159SOL    HW157131   2.977   1.281   2.946
15159SOL    HW257132   2.819   1.322   2.946
15160SOL     OW57133   2.173   1.275   3.100
15160SOL    HW157134   2.102   1.287   3.169
15160SOL    HW257135   2.223   1.190   3.119
15161SOL     OW57136   4.631   2.399   1.440
15161SOL    HW157137   4.683   2.368   1.519
15161SOL    HW257138   4.653   2.495   1.422
15162SOL     OW57139   0.133   4.163   4.728
15162SOL    HW157140   0.165   4.249   4.770
15162SOL    HW257141   0.211   4.114   4.690
15163SOL     OW57142   8.679   2.248   2.681
15163SOL    HW157143   8.674   2.273   2.778
15163SOL    HW257144   8.682   2.149   2.672
15164SOL     OW57145   1.643   4.262   0.337
15164SOL    HW157146   1.583   4.303   0.406
15164SOL    HW257147   1.625   4.304   0.248
15165SOL     OW57148   6.415   1.022   2.913
15165SOL    HW157149   6.324   1.057   2.934
15165SOL    HW257150   6.410   0.924   2.896
15166SOL     OW57151   4.947   3.525   7.450
15166SOL    HW157152   4.968   3.428   7.451
15166SOL    HW257153   5.007   3.572   7.386
15167SOL     OW57154   1.226   8.840   0.823
15167SOL    HW157155   1.141   8.870   0.782
15167SOL    HW257156   1.301   8.851   0.757
15168SOL     OW57157   8.054   0.827   3.959
15168SOL    HW157158   8.132   0.815   3.898
15168SOL    HW257159   7.988   0.753   3.944
15169SOL     OW57160   1.787   7.366   5.230
15169SOL    HW157161   1.785   7.446   5.290
15169SOL    HW257162   1.866   7.373   5.168
15170SOL     OW57163   4.093   5.443   6.636
15170SOL    HW157164   4.004   5.461   6.679
15170SOL    HW257165   4.115   5.518   6.574
15171SOL     OW57166   8.170   8.546   6.986
15171SOL    HW157167   8.269   8.560   6.992
15171SOL    HW257168   8.133   8.602   6.912
15172SOL     OW57169   9.490   2.418   0.788
15172SOL    HW157170   9.469   2.510   0.820
15172SOL    HW257171   9.542   2.369   0.859
15173SOL     OW57172   0.434   9.796   1.453
15173SOL    HW157173   0.490   9.861   1.402
15173SOL    HW257174   0.492   9.728   1.497
15174SOL     OW57175   0.861   9.045   4.665
15174SOL    HW157176   0.796   8.997   4.606
15174SOL    HW257177   0.933   9.086   4.608
15175SOL     OW57178   5.739   2.868   5.292
15175SOL    HW157179   5.644   2.877   5.262
15175SOL    HW257180   5.767   2.772   5.288
15176SOL     OW57181   1.418   9.949   2.808
15176SOL    HW157182   1.348   9.878   2.814
15176SOL    HW257183   1.374   0.038   2.797
15177SOL     OW57184   1.992   0.752   1.816
15177SOL    HW157185   1.955   0.666   1.850
15177SOL    HW257186   1.942   0.781   1.735
15178SOL     OW57187   6.422   3.019   1.868
15178SOL    HW157188   6.354   3.041   1.799
15178SOL    HW257189   6.451   2.924   1.857
15179SOL     OW57190   3.069   9.414   0.915
15179SOL    HW157191   3.159   9.391   0.952
15179SOL    HW257192   3.080   9.459   0.826
15180SOL     OW57193   7.163   1.471   2.018
15180SOL    HW157194   7.081   1.432   2.059
15180SOL    HW257195   7.244   1.433   2.063
15181SOL     OW57196   0.200   0.976   0.897
15181SOL    HW157197   0.235   1.038   0.968
15181SOL    HW257198   0.101   0.985   0.892
15182SOL     OW57199   5.254   9.169   4.814
15182SOL    HW157200   5.337   9.127   4.777
15182SOL    HW257201   5.262   9.177   4.914
15183SOL     OW57202   2.072   8.392   1.817
15183SOL    HW157203   2.060   8.303   1.861
15183SOL    HW257204   2.135   8.382   1.740
15184SOL     OW57205   9.358   3.889   6.007
15184SOL    HW157206   9.320   3.797   6.006
15184SOL    HW257207   9.458   3.884   6.005
15185SOL     OW57208   4.025   1.091   5.786
15185SOL    HW157209   4.017   1.007   5.839
15185SOL    HW257210   4.099   1.082   5.719
15186SOL     OW57211   8.888   8.999   5.095
15186SOL    HW157212   8.885   8.928   5.165
15186SOL    HW257213   8.843   8.964   5.012
15187SOL     OW57214   3.729   4.464   5.096
15187SOL    HW157215   3.783   4.544   5.123
15187SOL    HW257216   3.632   4.490   5.092
15188SOL     OW57217   1.507   8.977   2.780
15188SOL    HW157218   1.585   8.932   2.736
15188SOL    HW257219   1.425   8.921   2.768
15189SOL     OW57220   7.403   7.935   1.903
15189SOL    HW157221   7.353   7.881   1.835
15189SOL    HW257222   7.468   7.876   1.951
15190SOL     OW57223   8.672   3.379   5.256
15190SOL    HW157224   8.757   3.393   5.205
15190SOL    HW257225   8.605   3.447   5.227
15191SOL     OW57226   9.386   3.387   5.639
15191SOL    HW157227   9.321   3.311   5.632
15191SOL    HW257228   9.413   3.416   5.547
15192SOL     OW57229   4.392   0.052   3.251
15192SOL    HW157230   4.331   0.131   3.265
15192SOL    HW257231   4.463   0.052   3.320
15193SOL     OW57232   2.555   0.987   3.904
15193SOL    HW157233   2.624   0.946   3.965
15193SOL    HW257234   2.523   1.073   3.943
15194SOL     OW57235   8.454   5.966   6.825
15194SOL    HW157236   8.529   6.019   6.866
15194SOL    HW257237   8.368   6.015   6.838
15195SOL     OW57238   4.646   1.274   7.258
15195SOL    HW157239   4.589   1.299   7.180
15195SOL    HW257240   4.593   1.216   7.321
15196SOL     OW57241   4.015   7.053   2.609
15196SOL    HW157242   4.016   7.036   2.510
15196SOL    HW257243   4.108   7.046   2.645
15197SOL     OW57244   2.575   2.940   4.892
15197SOL    HW157245   2.628   3.023   4.872
15197SOL    HW257246   2.616   2.893   4.971
15198SOL     OW57247   2.928   6.805   1.651
15198SOL    HW157248   2.997   6.735   1.666
15198SOL    HW257249   2.972   6.895   1.644
15199SOL     OW57250   4.984   7.431   3.329
15199SOL    HW157251   4.943   7.522   3.333
15199SOL    HW257252   5.045   7.425   3.251
15200SOL     OW57253   8.076   1.088   5.209
15200SOL    HW157254   8.116   1.120   5.123
15200SOL    HW257255   8.090   0.989   5.218
15201SOL     OW57256   3.142   4.092   1.964
15201SOL    HW157257   3.105   4.027   2.030
15201SOL    HW257258   3.070   4.156   1.937
15202SOL     OW57259   9.897   5.800   1.722
15202SOL    HW157260   9.847   5.713   1.717
15202SOL    HW257261   9.949   5.804   1.808
15203SOL     OW57262   6.803   9.317   1.242
15203SOL    HW157263   6.736   9.386   1.216
15203SOL    HW257264   6.761   9.251   1.304
15204SOL     OW57265   9.175   1.559   2.951
15204SOL    HW157266   9.172   1.461   2.933
15204SOL    HW257267   9.209   1.607   2.871
15205SOL     OW57268   6.184   9.774   6.536
15205SOL    HW157269   6.205   9.861   6.491
15205SOL    HW257270   6.242   9.762   6.616
15206SOL     OW57271   1.062   4.068   5.205
15206SOL    HW157272   1.015   4.122   5.276
15206SOL    HW257273   1.159   4.092   5.204
15207SOL     OW57274   2.173   5.946   1.449
15207SOL    HW157275   2.176   6.043   1.472
15207SOL    HW257276   2.235   5.896   1.509
15208SOL     OW57277   6.230   2.542   1.585
15208SOL    HW157278   6.250   2.609   1.513
15208SOL    HW257279   6.216   2.452   1.544
15209SOL     OW57280   0.759   2.759   4.991
15209SOL    HW157281   0.844   2.725   4.952
15209SOL    HW257282   0.753   2.858   4.978
15210SOL     OW57283   8.207   7.223   3.365
15210SOL    HW157284   8.158   7.142   3.333
15210SOL    HW257285   8.140   7.295   3.385
15211SOL     OW57286   9.400   5.362   5.955
15211SOL    HW157287   9.319   5.348   6.012
15211SOL    HW257288   9.482   5.350   6.011
15212SOL     OW57289   0.634   0.098   6.404
15212SOL    HW157290   0.711   0.063   6.351
15212SOL    HW257291   0.651   0.194   6.428
15213SOL     OW57292   7.598   6.566   6.762
15213SOL    HW157293   7.571   6.612   6.847
15213SOL    HW257294   7.628   6.635   6.695
15214SOL     OW57295   8.824   4.584   0.118
15214SOL    HW157296   8.814   4.655   0.048
15214SOL    HW257297   8.791   4.497   0.082
15215SOL     OW57298   8.016   3.930   4.508
15215SOL    HW157299   7.975   3.955   4.420
15215SOL    HW257300   7.962   3.858   4.550
15216SOL     OW57301   4.247   0.095   6.701
15216SOL    HW157302   4.343   0.069   6.711
15216SOL    HW257303   4.224   0.104   6.604
15217SOL     OW57304   8.313   0.066   6.127
15217SOL    HW157305   8.367   0.068   6.211
15217SOL    HW257306   8.349   0.133   6.063
15218SOL     OW57307   3.285   2.938   2.694
15218SOL    HW157308   3.241   3.027   2.706
15218SOL    HW257309   3.351   2.923   2.768
15219SOL     OW57310   8.175   6.297   0.376
15219SOL    HW157311   8.164   6.244   0.460
15219SOL    HW257312   8.118   6.257   0.304
15220SOL     OW57313   3.487   0.629   4.834
15220SOL    HW157314   3.430   0.671   4.904
15220SOL    HW257315   3.481   0.529   4.841
15221SOL     OW57316   3.060   6.096   7.711
15221SOL    HW157317   3.069   6.166   7.781
15221SOL    HW257318   3.126   6.112   7.638
15222SOL     OW57319   0.146   7.149   0.263
15222SOL    HW157320   0.239   7.160   0.296
15222SOL    HW257321   0.082   7.154   0.340
15223SOL     OW57322   3.842   0.110   3.979
15223SOL    HW157323   3.927   0.133   3.932
15223SOL    HW257324   3.826   0.012   3.973
15224SOL     OW57325   1.405   3.924   6.230
15224SOL    HW157326   1.367   3.837   6.201
15224SOL    HW257327   1.464   3.909   6.309
15225SOL     OW57328   8.374   6.153   5.085
15225SOL    HW157329   8.370   6.174   5.183
15225SOL    HW257330   8.318   6.072   5.067
15226SOL     OW57331   7.130   1.100   2.442
15226SOL    HW157332   7.227   1.079   2.452
15226SOL    HW257333   7.087   1.033   2.380
15227SOL     OW57334   1.147   9.402   6.962
15227SOL    HW157335   1.186   9.488   6.929
15227SOL    HW257336   1.203   9.326   6.930
15228SOL     OW57337   8.944   0.631   0.210
15228SOL    HW157338   8.987   0.666   0.293
15228SOL    HW257339   8.928   0.706   0.146
15229SOL     OW57340   4.342   7.185   4.549
15229SOL    HW157341   4.382   7.095   4.567
15229SOL    HW257342   4.338   7.238   4.634
15230SOL     OW57343   8.359   3.237   6.672
15230SOL    HW157344   8.271   3.283   6.681
15230SOL    HW257345   8.413   3.253   6.755
15231SOL     OW57346   7.551   1.053   5.267
15231SOL    HW157347   7.646   1.080   5.253
15231SOL    HW257348   7.506   1.118   5.328
15232SOL     OW57349   9.120   9.460   5.444
15232SOL    HW157350   9.032   9.421   5.415
15232SOL    HW257351   9.143   9.538   5.386
15233SOL     OW57352   8.647   7.312   5.605
15233SOL    HW157353   8.622   7.245   5.535
15233SOL    HW257354   8.706   7.382   5.566
15234SOL     OW57355   5.151   2.072   1.804
15234SOL    HW157356   5.117   1.987   1.765
15234SOL    HW257357   5.248   2.063   1.825
15235SOL     OW57358   6.943   0.406   1.700
15235SOL    HW157359   6.866   0.356   1.739
15235SOL    HW257360   7.023   0.346   1.695
15236SOL     OW57361   4.293   4.752   4.437
15236SOL    HW157362   4.377   4.783   4.481
15236SOL    HW257363   4.289   4.788   4.344
15237SOL     OW57364   5.289   1.635   5.602
15237SOL    HW157365   5.189   1.626   5.607
15237SOL    HW257366   5.313   1.732   5.597
15238SOL     OW57367   0.438   2.757   5.407
15238SOL    HW157368   0.487   2.672   5.426
15238SOL    HW257369   0.340   2.743   5.424
15239SOL     OW57370   3.742   1.958   2.395
15239SOL    HW157371   3.722   2.054   2.376
15239SOL    HW257372   3.674   1.921   2.458
15240SOL     OW57373   5.822   0.362   6.370
15240SOL    HW157374   5.819   0.433   6.440
15240SOL    HW257375   5.728   0.335   6.346
15241SOL     OW57376   4.641   8.770   5.217
15241SOL    HW157377   4.573   8.843   5.222
15241SOL    HW257378   4.596   8.681   5.212
15242SOL     OW57379   0.259   1.443   6.422
15242SOL    HW157380   0.164   1.460   6.447
15242SOL    HW257381   0.267   1.353   6.380
15243SOL     OW57382   8.796   8.324   6.354
15243SOL    HW157383   8.817   8.357   6.262
15243SOL    HW257384   8.699   8.298   6.358
15244SOL     OW57385   4.899   1.663   1.269
15244SOL    HW157386   4.988   1.635   1.234
15244SOL    HW257387   4.882   1.759   1.244
15245SOL     OW57388   8.082   9.488   3.177
15245SOL    HW157389   8.085   9.586   3.198
15245SOL    HW257390   8.080   9.475   3.078
15246SOL     OW57391   9.179   7.930   4.475
15246SOL    HW157392   9.265   7.977   4.495
15246SOL    HW257393   9.104   7.974   4.524
15247SOL     OW57394   5.547   8.117   5.240
15247SOL    HW157395   5.559   8.171   5.157
15247SOL    HW257396   5.634   8.076   5.266
15248SOL     OW57397   8.464   8.631   0.157
15248SOL    HW157398   8.403   8.553   0.173
15248SOL    HW257399   8.559   8.599   0.160
15249SOL     OW57400   3.149   9.570   0.091
15249SOL    HW157401   3.067   9.608   0.049
15249SOL    HW257402   3.124   9.490   0.146
15250SOL     OW57403   9.356   2.843   3.817
15250SOL    HW157404   9.426   2.900   3.861
15250SOL    HW257405   9.266   2.873   3.847
15251SOL     OW57406   8.443   7.973   1.345
15251SOL    HW157407   8.504   7.903   1.381
15251SOL    HW257408   8.482   8.011   1.260
15252SOL     OW57409   4.399   7.341   4.330
15252SOL    HW157410   4.387   7.287   4.414
15252SOL    HW257411   4.496   7.342   4.306
15253SOL     OW57412   1.268   6.222   0.998
15253SOL    HW157413   1.306   6.130   1.006
15253SOL    HW257414   1.274   6.253   0.903
15254SOL     OW57415   4.631   4.784   1.430
15254SOL    HW157416   4.559   4.723   1.463
15254SOL    HW257417   4.638   4.777   1.331
15255SOL     OW57418   1.166   3.160   2.711
15255SOL    HW157419   1.172   3.260   2.709
15255SOL    HW257420   1.187   3.123   2.621
15256SOL     OW57421   6.595   7.014   3.862
15256SOL    HW157422   6.668   6.962   3.906
15256SOL    HW257423   6.614   7.022   3.764
15257SOL     OW57424   1.761   1.584   7.869
15257SOL    HW157425   1.742   1.681   7.878
15257SOL    HW257426   1.677   1.532   7.882
15258SOL     OW57427   7.927   8.054   6.774
15258SOL    HW157428   7.974   7.971   6.806
15258SOL    HW257429   7.864   8.030   6.700
15259SOL     OW57430   6.480   2.110   0.244
15259SOL    HW157431   6.449   2.121   0.338
15259SOL    HW257432   6.422   2.043   0.197
15260SOL     OW57433   1.158   4.028   1.879
15260SOL    HW157434   1.196   4.100   1.937
15260SOL    HW257435   1.231   3.989   1.823
15261SOL     OW57436   3.338   4.969   3.946
15261SOL    HW157437   3.321   5.044   4.010
15261SOL    HW257438   3.436   4.960   3.931
15262SOL     OW57439   5.086   9.464   2.913
15262SOL    HW157440   5.029   9.430   2.838
15262SOL    HW257441   5.175   9.492   2.876
15263SOL     OW57442   4.563   6.361   2.869
15263SOL    HW157443   4.615   6.336   2.950
15263SOL    HW257444   4.466   6.370   2.892
15264SOL     OW57445   8.715   1.895   7.663
15264SOL    HW157446   8.803   1.884   7.709
15264SOL    HW257447   8.729   1.906   7.565
15265SOL     OW57448   7.540   1.949   1.569
15265SOL    HW157449   7.547   1.983   1.663
15265SOL    HW257450   7.474   2.004   1.518
15266SOL     OW57451   0.855   6.231   6.877
15266SOL    HW157452   0.806   6.259   6.794
15266SOL    HW257453   0.921   6.160   6.854
15267SOL     OW57454   1.836   0.254   3.301
15267SOL    HW157455   1.917   0.257   3.360
15267SOL    HW257456   1.801   0.160   3.298
15268SOL     OW57457   7.116   9.116   1.898
15268SOL    HW157458   7.027   9.070   1.896
15268SOL    HW257459   7.187   9.053   1.866
15269SOL     OW57460   4.510   3.305   7.931
15269SOL    HW157461   4.456   3.309   7.847
15269SOL    HW257462   4.592   3.360   7.921
15270SOL     OW57463   3.653   9.722   4.553
15270SOL    HW157464   3.744   9.727   4.509
15270SOL    HW257465   3.662   9.683   4.644
15271SOL     OW57466   1.863   1.979   7.557
15271SOL    HW157467   1.794   1.993   7.628
15271SOL    HW257468   1.846   1.893   7.510
15272SOL     OW57469   0.729   4.199   2.725
15272SOL    HW157470   0.809   4.232   2.676
15272SOL    HW257471   0.675   4.276   2.758
15273SOL     OW57472   8.131   3.019   3.109
15273SOL    HW157473   8.156   2.947   3.175
15273SOL    HW257474   8.084   2.978   3.031
15274SOL     OW57475   5.141   2.353   7.908
15274SOL    HW157476   5.087   2.389   7.985
15274SOL    HW257477   5.228   2.401   7.903
15275SOL     OW57478   6.144   9.921   4.962
15275SOL    HW157479   6.160   9.960   4.871
15275SOL    HW257480   6.231   9.897   5.004
15276SOL     OW57481   0.051   0.692   1.339
15276SOL    HW157482   0.050   0.640   1.424
15276SOL    HW257483   0.106   0.643   1.270
15277SOL     OW57484   3.043   5.186   2.909
15277SOL    HW157485   3.012   5.259   2.970
15277SOL    HW257486   3.023   5.097   2.950
15278SOL     OW57487   7.376   3.538   0.112
15278SOL    HW157488   7.378   3.466   0.043
15278SOL    HW257489   7.283   3.574   0.120
15279SOL     OW57490   7.513   3.067   0.763
15279SOL    HW157491   7.467   3.037   0.679
15279SOL    HW257492   7.611   3.074   0.747
15280SOL     OW57493   5.950   2.787   4.578
15280SOL    HW157494   5.946   2.717   4.650
15280SOL    HW257495   6.043   2.822   4.572
15281SOL     OW57496   3.883   7.512   0.126
15281SOL    HW157497   3.902   7.416   0.106
15281SOL    HW257498   3.908   7.568   0.047
15282SOL     OW57499   9.768   2.574   7.281
15282SOL    HW157500   9.730   2.519   7.356
15282SOL    HW257501   9.789   2.666   7.314
15283SOL     OW57502   1.191   3.173   5.281
15283SOL    HW157503   1.246   3.253   5.254
15283SOL    HW257504   1.144   3.193   5.367
15284SOL     OW57505   6.040   0.649   3.968
15284SOL    HW157506   5.957   0.607   3.932
15284SOL    HW257507   6.016   0.732   4.019
15285SOL     OW57508   9.484   9.231   7.592
15285SOL    HW157509   9.451   9.152   7.643
15285SOL    HW257510   9.480   9.312   7.651
15286SOL     OW57511   3.711   0.522   6.289
15286SOL    HW157512   3.752   0.444   6.243
15286SOL    HW257513   3.684   0.497   6.382
15287SOL     OW57514   0.774   0.094   7.705
15287SOL    HW157515   0.763   0.193   7.704
15287SOL    HW257516   0.841   0.067   7.636
15288SOL     OW57517   4.917   6.449   3.000
15288SOL    HW157518   4.883   6.535   2.962
15288SOL    HW257519   5.017   6.453   3.005
15289SOL     OW57520   7.482   7.607   2.667
15289SOL    HW157521   7.461   7.702   2.644
15289SOL    HW257522   7.398   7.560   2.694
15290SOL     OW57523   9.910   6.922   5.687
15290SOL    HW157524   9.948   6.883   5.771
15290SOL    HW257525   9.810   6.912   5.689
15291SOL     OW57526   2.665   6.051   2.759
15291SOL    HW157527   2.659   6.151   2.749
15291SOL    HW257528   2.684   6.010   2.670
15292SOL     OW57529   4.053   1.786   3.870
15292SOL    HW157530   4.119   1.783   3.945
15292SOL    HW257531   4.066   1.707   3.810
15293SOL     OW57532   1.093   1.326   6.594
15293SOL    HW157533   1.011   1.343   6.649
15293SOL    HW257534   1.081   1.367   6.503
15294SOL     OW57535   9.621   4.028   0.541
15294SOL    HW157536   9.590   3.938   0.573
15294SOL    HW257537   9.632   4.089   0.619
15295SOL     OW57538   1.913   4.240   7.574
15295SOL    HW157539   1.825   4.265   7.533
15295SOL    HW257540   1.910   4.258   7.672
15296SOL     OW57541   3.467   9.187   0.364
15296SOL    HW157542   3.565   9.195   0.383
15296SOL    HW257543   3.416   9.237   0.434
15297SOL     OW57544   0.777   5.240   3.851
15297SOL    HW157545   0.757   5.173   3.923
15297SOL    HW257546   0.876   5.255   3.847
15298SOL     OW57547   0.419   5.855   2.796
15298SOL    HW157548   0.382   5.864   2.704
15298SOL    HW257549   0.357   5.799   2.852
15299SOL     OW57550   2.016   0.028   1.343
15299SOL    HW157551   2.095   9.968   1.354
15299SOL    HW257552   1.956   9.991   1.272
15300SOL     OW57553   1.829   3.191   0.701
15300SOL    HW157554   1.823   3.094   0.727
15300SOL    HW257555   1.903   3.203   0.635
15301SOL     OW57556   1.307   8.802   2.720
15301SOL    HW157557   1.348   8.715   2.748
15301SOL    HW257558   1.209   8.801   2.743
15302SOL     OW57559   3.735   9.434   4.203
15302SOL    HW157560   3.656   9.462   4.150
15302SOL    HW257561   3.713   9.351   4.255
15303SOL     OW57562   2.606   9.444   6.712
15303SOL    HW157563   2.557   9.511   6.767
15303SOL    HW257564   2.702   9.472   6.704
15304SOL     OW57565   5.798   6.193   0.276
15304SOL    HW157566   5.808   6.250   0.358
15304SOL    HW257567   5.887   6.155   0.251
15305SOL     OW57568   2.230   4.803   5.307
15305SOL    HW157569   2.301   4.843   5.365
15305SOL    HW257570   2.269   4.779   5.218
15306SOL     OW57571   7.114   8.869   6.592
15306SOL    HW157572   7.056   8.882   6.512
15306SOL    HW257573   7.198   8.922   6.580
15307SOL     OW57574   4.345   4.928   0.405
15307SOL    HW157575   4.377   5.022   0.417
15307SOL    HW257576   4.418   4.864   0.429
15308SOL     OW57577   8.909   6.260   2.531
15308SOL    HW157578   8.837   6.329   2.535
15308SOL    HW257579   8.868   6.169   2.535
15309SOL     OW57580   9.738   6.232   7.815
15309SOL    HW157581   9.829   6.206   7.847
15309SOL    HW257582   9.745   6.274   7.724
15310SOL     OW57583   0.134   2.722   1.949
15310SOL    HW157584   0.062   2.764   1.895
15310SOL    HW257585   0.220   2.771   1.936
15311SOL     OW57586   2.655   1.679   3.297
15311SOL    HW157587   2.728   1.640   3.242
15311SOL    HW257588   2.691   1.755   3.352
15312SOL     OW57589   0.870   3.826   7.803
15312SOL    HW157590   0.817   3.890   7.859
15312SOL    HW257591   0.835   3.733   7.815
15313SOL     OW57592   9.275   4.225   4.822
15313SOL    HW157593   9.209   4.249   4.893
15313SOL    HW257594   9.287   4.125   4.820
15314SOL     OW57595   8.833   9.776   0.850
15314SOL    HW157596   8.819   9.873   0.829
15314SOL    HW257597   8.890   9.735   0.779
15315SOL     OW57598   4.537   7.256   0.202
15315SOL    HW157599   4.568   7.207   0.284
15315SOL    HW257600   4.544   7.354   0.217
15316SOL     OW57601   5.950   0.176   2.167
15316SOL    HW157602   5.970   0.234   2.088
15316SOL    HW257603   5.949   0.080   2.138
15317SOL     OW57604   2.286   8.144   4.650
15317SOL    HW157605   2.265   8.126   4.554
15317SOL    HW257606   2.305   8.057   4.697
15318SOL     OW57607   0.739   5.265   3.042
15318SOL    HW157608   0.694   5.327   2.978
15318SOL    HW257609   0.672   5.234   3.110
15319SOL     OW57610   4.323   9.859   5.826
15319SOL    HW157611   4.310   9.763   5.802
15319SOL    HW257612   4.383   9.866   5.906
15320SOL     OW57613   4.784   8.463   1.349
15320SOL    HW157614   4.775   8.417   1.262
15320SOL    HW257615   4.697   8.461   1.398
15321SOL     OW57616   7.828   0.110   5.964
15321SOL    HW157617   7.787   0.198   5.942
15321SOL    HW257618   7.907   0.124   6.023
15322SOL     OW57619   5.555   3.537   0.282
15322SOL    HW157620   5.515   3.449   0.309
15322SOL    HW257621   5.483   3.598   0.249
15323SOL     OW57622   8.250   4.993   6.614
15323SOL    HW157623   8.190   4.925   6.656
15323SOL    HW257624   8.282   5.057   6.683
15324SOL     OW57625   0.947   4.037   6.855
15324SOL    HW157626   1.010   4.034   6.932
15324SOL    HW257627   0.999   4.051   6.770
15325SOL     OW57628   8.545   4.607   4.349
15325SOL    HW157629   8.615   4.662   4.302
15325SOL    HW257630   8.495   4.553   4.281
15326SOL     OW57631   0.255   3.328   0.491
15326SOL    HW157632   0.287   3.363   0.579
15326SOL    HW257633   0.208   3.401   0.441
15327SOL     OW57634   0.426   5.606   7.437
15327SOL    HW157635   0.442   5.535   7.369
15327SOL    HW257636   0.513   5.632   7.479
15328SOL     OW57637   1.659   7.794   7.233
15328SOL    HW157638   1.585   7.844   7.188
15328SOL    HW257639   1.667   7.826   7.328
15329SOL     OW57640   1.162   9.217   1.743
15329SOL    HW157641   1.144   9.155   1.667
15329SOL    HW257642   1.149   9.168   1.829
15330SOL     OW57643   6.283   1.670   2.442
15330SOL    HW157644   6.288   1.665   2.541
15330SOL    HW257645   6.270   1.765   2.414
15331SOL     OW57646   5.029   9.993   3.918
15331SOL    HW157647   4.987   0.038   3.997
15331SOL    HW257648   5.012   9.895   3.922
15332SOL     OW57649   0.272   4.747   1.508
15332SOL    HW157650   0.224   4.828   1.543
15332SOL    HW257651   0.357   4.735   1.559
15333SOL     OW57652   0.783   4.222   7.427
15333SOL    HW157653   0.817   4.311   7.398
15333SOL    HW257654   0.687   4.213   7.399
15334SOL     OW57655   0.821   1.419   1.046
15334SOL    HW157656   0.886   1.494   1.032
15334SOL    HW257657   0.729   1.452   1.024
15335SOL     OW57658   4.932   1.548   6.564
15335SOL    HW157659   4.983   1.578   6.645
15335SOL    HW257660   4.839   1.522   6.592
15336SOL     OW57661   0.156   1.548   0.839
15336SOL    HW157662   0.060   1.545   0.810
15336SOL    HW257663   0.204   1.621   0.790
15337SOL     OW57664   3.058   1.932   2.370
15337SOL    HW157665   3.121   1.872   2.322
15337SOL    HW257666   2.990   1.967   2.305
15338SOL     OW57667   9.912   5.825   5.967
15338SOL    HW157668   9.897   5.907   6.022
15338SOL    HW257669   9.986   5.770   6.007
15339SOL     OW57670   1.147   8.428   4.120
15339SOL    HW157671   1.242   8.435   4.091
15339SOL    HW257672   1.107   8.344   4.086
15340SOL     OW57673   9.592   6.761   3.668
15340SOL    HW157674   9.601   6.853   3.707
15340SOL    HW257675   9.506   6.720   3.699
15341SOL     OW57676   2.036   0.686   4.573
15341SOL    HW157677   2.135   0.680   4.585
15341SOL    HW257678   2.014   0.692   4.476
15342SOL     OW57679   4.340   1.942   5.737
15342SOL    HW157680   4.414   1.924   5.672
15342SOL    HW257681   4.369   1.915   5.829
15343SOL     OW57682   7.365   0.029   7.856
15343SOL    HW157683   7.268   0.005   7.857
15343SOL    HW257684   7.417   9.957   7.903
15344SOL     OW57685   6.990   8.531   2.273
15344SOL    HW157686   7.009   8.626   2.296
15344SOL    HW257687   7.034   8.508   2.186
15345SOL     OW57688   4.788   1.834   6.181
15345SOL    HW157689   4.847   1.788   6.247
15345SOL    HW257690   4.761   1.769   6.110
15346SOL     OW57691   9.551   6.270   5.047
15346SOL    HW157692   9.616   6.322   5.102
15346SOL    HW257693   9.525   6.187   5.097
15347SOL     OW57694   4.299   0.813   4.048
15347SOL    HW157695   4.352   0.851   4.123
15347SOL    HW257696   4.202   0.811   4.072
15348SOL     OW57697   3.206   0.377   4.110
15348SOL    HW157698   3.117   0.417   4.090
15348SOL    HW257699   3.242   0.416   4.195
15349SOL     OW57700   8.005   5.316   3.529
15349SOL    HW157701   7.948   5.245   3.570
15349SOL    HW257702   8.079   5.273   3.476
15350SOL     OW57703   8.102   1.460   1.158
15350SOL    HW157704   8.027   1.440   1.095
15350SOL    HW257705   8.174   1.509   1.109
15351SOL     OW57706   9.094   7.448   2.397
15351SOL    HW157707   9.163   7.451   2.325
15351SOL    HW257708   9.020   7.512   2.376
15352SOL     OW57709   6.345   1.092   2.157
15352SOL    HW157710   6.379   1.185   2.147
15352SOL    HW257711   6.249   1.088   2.127
15353SOL     OW57712   1.838   4.592   4.521
15353SOL    HW157713   1.827   4.572   4.424
15353SOL    HW257714   1.762   4.649   4.552
15354SOL     OW57715   9.198   1.329   3.988
15354SOL    HW157716   9.218   1.414   4.036
15354SOL    HW257717   9.139   1.271   4.045
15355SOL     OW57718   0.891   4.217   6.352
15355SOL    HW157719   0.844   4.285   6.409
15355SOL    HW257720   0.963   4.261   6.299
15356SOL     OW57721   3.396   7.292   6.034
15356SOL    HW157722   3.474   7.333   6.081
15356SOL    HW257723   3.312   7.313   6.084
15357SOL     OW57724   0.400   8.855   1.679
15357SOL    HW157725   0.409   8.934   1.619
15357SOL    HW257726   0.468   8.859   1.752
15358SOL     OW57727   9.962   6.133   0.178
15358SOL    HW157728   0.045   6.165   0.223
15358SOL    HW257729   9.884   6.143   0.241
15359SOL     OW57730   5.933   2.582   4.766
15359SOL    HW157731   5.902   2.495   4.728
15359SOL    HW257732   5.895   2.593   4.858
15360SOL     OW57733   0.027   5.160   6.972
15360SOL    HW157734   0.091   5.110   7.030
15360SOL    HW257735   0.010   5.250   7.011
15361SOL     OW57736   4.228   3.607   6.826
15361SOL    HW157737   4.318   3.568   6.846
15361SOL    HW257738   4.165   3.534   6.800
15362SOL     OW57739   3.165   3.556   3.620
15362SOL    HW157740   3.103   3.634   3.612
15362SOL    HW257741   3.122   3.484   3.674
15363SOL     OW57742   1.797   7.301   7.274
15363SOL    HW157743   1.739   7.279   7.352
15363SOL    HW257744   1.760   7.380   7.226
15364SOL     OW57745   1.351   0.967   3.986
15364SOL    HW157746   1.359   0.927   4.077
15364SOL    HW257747   1.430   1.025   3.967
15365SOL     OW57748   7.633   5.368   2.565
15365SOL    HW157749   7.651   5.272   2.586
15365SOL    HW257750   7.543   5.376   2.522
15366SOL     OW57751   2.951   5.967   4.454
15366SOL    HW157752   2.951   6.064   4.430
15366SOL    HW257753   3.034   5.924   4.418
15367SOL     OW57754   3.884   2.432   5.605
15367SOL    HW157755   3.808   2.388   5.557
15367SOL    HW257756   3.919   2.508   5.550
15368SOL     OW57757   0.477   7.634   7.543
15368SOL    HW157758   0.391   7.668   7.583
15368SOL    HW257759   0.546   7.706   7.547
15369SOL     OW57760   2.107   5.795   1.792
15369SOL    HW157761   2.102   5.893   1.813
15369SOL    HW257762   2.022   5.765   1.749
15370SOL     OW57763   1.403   1.979   6.067
15370SOL    HW157764   1.380   1.889   6.105
15370SOL    HW257765   1.333   2.005   6.000
15371SOL     OW57766   2.959   4.097   5.902
15371SOL    HW157767   2.910   4.184   5.913
15371SOL    HW257768   3.037   4.111   5.841
15372SOL     OW57769   5.163   9.104   3.606
15372SOL    HW157770   5.228   9.170   3.568
15372SOL    HW257771   5.085   9.095   3.543
15373SOL     OW57772   1.595   2.225   7.871
15373SOL    HW157773   1.658   2.296   7.901
15373SOL    HW257774   1.507   2.265   7.847
15374SOL     OW57775   6.426   5.341   0.286
15374SOL    HW157776   6.394   5.299   0.371
15374SOL    HW257777   6.347   5.366   0.230
15375SOL     OW57778   8.541   7.689   0.470
15375SOL    HW157779   8.442   7.683   0.467
15375SOL    HW257780   8.581   7.621   0.408
15376SOL     OW57781   5.214   2.724   6.332
15376SOL    HW157782   5.298   2.684   6.295
15376SOL    HW257783   5.137   2.664   6.312
15377SOL     OW57784   7.317   6.217   0.107
15377SOL    HW157785   7.332   6.246   0.202
15377SOL    HW257786   7.389   6.255   0.049
15378SOL     OW57787   6.180   5.789   0.839
15378SOL    HW157788   6.234   5.715   0.799
15378SOL    HW257789   6.157   5.856   0.768
15379SOL     OW57790   0.676   4.137   2.290
15379SOL    HW157791   0.705   4.080   2.212
15379SOL    HW257792   0.637   4.079   2.361
15380SOL     OW57793   8.886   4.696   7.437
15380SOL    HW157794   8.854   4.602   7.430
15380SOL    HW257795   8.885   4.738   7.346
15381SOL     OW57796   5.889   9.796   3.432
15381SOL    HW157797   5.791   9.810   3.420
15381SOL    HW257798   5.939   9.872   3.390
15382SOL     OW57799   6.815   8.024   4.529
15382SOL    HW157800   6.882   8.099   4.531
15382SOL    HW257801   6.861   7.937   4.548
15383SOL     OW57802   4.473   6.460   1.768
15383SOL    HW157803   4.552   6.521   1.761
15383SOL    HW257804   4.493   6.373   1.723
15384SOL     OW57805   9.441   6.773   2.626
15384SOL    HW157806   9.402   6.857   2.588
15384SOL    HW257807   9.526   6.751   2.577
15385SOL     OW57808   0.949   2.950   1.890
15385SOL    HW157809   0.948   3.029   1.952
15385SOL    HW257810   0.900   2.874   1.933
15386SOL     OW57811   9.275   7.195   5.227
15386SOL    HW157812   9.267   7.096   5.236
15386SOL    HW257813   9.217   7.227   5.152
15387SOL     OW57814   6.899   1.134   7.670
15387SOL    HW157815   6.809   1.100   7.699
15387SOL    HW257816   6.958   1.144   7.750
15388SOL     OW57817   5.779   4.472   1.708
15388SOL    HW157818   5.685   4.442   1.725
15388SOL    HW257819   5.838   4.441   1.783
15389SOL     OW57820   5.407   1.053   5.308
15389SOL    HW157821   5.492   1.000   5.303
15389SOL    HW257822   5.342   1.019   5.241
15390SOL     OW57823   6.330   2.692   4.170
15390SOL    HW157824   6.291   2.652   4.253
15390SOL    HW257825   6.273   2.669   4.092
15391SOL     OW57826   2.338   5.577   1.044
15391SOL    HW157827   2.316   5.479   1.043
15391SOL    HW257828   2.420   5.593   0.989
15392SOL     OW57829   3.918   5.927   7.915
15392SOL    HW157830   3.825   5.896   7.935
15392SOL    HW257831   3.939   5.911   7.819
15393SOL     OW57832   3.291   1.432   3.756
15393SOL    HW157833   3.226   1.369   3.799
15393SOL    HW257834   3.242   1.492   3.693
15394SOL     OW57835   1.854   4.623   2.730
15394SOL    HW157836   1.799   4.657   2.807
15394SOL    HW257837   1.934   4.575   2.766
15395SOL     OW57838   3.450   1.942   3.761
15395SOL    HW157839   3.539   1.913   3.725
15395SOL    HW257840   3.463   2.022   3.820
15396SOL     OW57841   8.714   1.972   4.195
15396SOL    HW157842   8.667   2.039   4.137
15396SOL    HW257843   8.812   1.987   4.191
15397SOL     OW57844   8.857   8.711   0.449
15397SOL    HW157845   8.796   8.770   0.396
15397SOL    HW257846   8.902   8.646   0.388
15398SOL     OW57847   3.338   6.302   6.060
15398SOL    HW157848   3.358   6.399   6.046
15398SOL    HW257849   3.340   6.280   6.157
15399SOL     OW57850   9.472   2.977   5.239
15399SOL    HW157851   9.543   2.907   5.244
15399SOL    HW257852   9.441   3.002   5.331
15400SOL     OW57853   4.142   7.838   3.484
15400SOL    HW157854   4.213   7.776   3.518
15400SOL    HW257855   4.053   7.806   3.516
15401SOL     OW57856   6.248   1.678   4.004
15401SOL    HW157857   6.333   1.725   4.026
15401SOL    HW257858   6.268   1.582   3.981
15402SOL     OW57859   0.998   7.872   0.196
15402SOL    HW157860   0.937   7.837   0.267
15402SOL    HW257861   1.049   7.796   0.156
15403SOL     OW57862   7.527   7.170   4.745
15403SOL    HW157863   7.539   7.266   4.770
15403SOL    HW257864   7.605   7.117   4.779
15404SOL     OW57865   6.468   9.589   2.157
15404SOL    HW157866   6.529   9.565   2.232
15404SOL    HW257867   6.419   9.508   2.127
15405SOL     OW57868   9.531   5.233   3.289
15405SOL    HW157869   9.602   5.250   3.357
15405SOL    HW257870   9.458   5.178   3.329
15406SOL     OW57871   1.690   4.922   3.332
15406SOL    HW157872   1.635   4.869   3.267
15406SOL    HW257873   1.653   5.014   3.340
15407SOL     OW57874   7.697   6.415   7.541
15407SOL    HW157875   7.695   6.323   7.500
15407SOL    HW257876   7.677   6.483   7.470
15408SOL     OW57877   2.276   1.028   3.188
15408SOL    HW157878   2.311   1.068   3.273
15408SOL    HW257879   2.336   0.953   3.160
15409SOL     OW57880   3.866   7.752   3.508
15409SOL    HW157881   3.813   7.680   3.552
15409SOL    HW257882   3.862   7.740   3.409
15410SOL     OW57883   0.431   4.531   2.463
15410SOL    HW157884   0.455   4.438   2.488
15410SOL    HW257885   0.335   4.548   2.484
15411SOL     OW57886   2.662   9.169   2.390
15411SOL    HW157887   2.634   9.232   2.463
15411SOL    HW257888   2.587   9.107   2.369
15412SOL     OW57889   0.590   4.656   6.956
15412SOL    HW157890   0.566   4.581   6.895
15412SOL    HW257891   0.615   4.737   6.903
15413SOL     OW57892   7.015   7.791   4.223
15413SOL    HW157893   7.106   7.758   4.247
15413SOL    HW257894   6.962   7.717   4.182
15414SOL     OW57895   4.556   8.912   4.939
15414SOL    HW157896   4.507   8.839   4.891
15414SOL    HW257897   4.652   8.887   4.950
15415SOL     OW57898   3.194   5.914   6.989
15415SOL    HW157899   3.095   5.922   7.002
15415SOL    HW257900   3.242   5.972   7.054
15416SOL     OW57901   2.580   0.192   6.155
15416SOL    HW157902   2.659   0.234   6.110
15416SOL    HW257903   2.582   0.093   6.141
15417SOL     OW57904   6.016   1.908   4.236
15417SOL    HW157905   5.984   1.848   4.162
15417SOL    HW257906   5.939   1.938   4.291
15418SOL     OW57907   1.508   6.774   5.192
15418SOL    HW157908   1.514   6.784   5.093
15418SOL    HW257909   1.508   6.677   5.217
15419SOL     OW57910   4.820   7.225   3.230
15419SOL    HW157911   4.868   7.300   3.276
15419SOL    HW257912   4.761   7.178   3.296
15420SOL     OW57913   3.018   6.125   1.400
15420SOL    HW157914   3.044   6.089   1.310
15420SOL    HW257915   3.049   6.220   1.408
15421SOL     OW57916   5.186   7.959   3.031
15421SOL    HW157917   5.232   8.047   3.027
15421SOL    HW257918   5.091   7.972   3.061
15422SOL     OW57919   8.012   0.788   6.788
15422SOL    HW157920   7.924   0.807   6.832
15422SOL    HW257921   7.999   0.721   6.715
15423SOL     OW57922   8.186   2.350   0.670
15423SOL    HW157923   8.233   2.413   0.732
15423SOL    HW257924   8.206   2.377   0.575
15424SOL     OW57925   5.222   2.914   5.438
15424SOL    HW157926   5.206   2.847   5.366
15424SOL    HW257927   5.278   2.873   5.509
15425SOL     OW57928   1.635   4.365   5.573
15425SOL    HW157929   1.720   4.335   5.530
15425SOL    HW257930   1.654   4.435   5.642
15426SOL     OW57931   3.910   4.673   7.830
15426SOL    HW157932   3.828   4.683   7.887
15426SOL    HW257933   3.987   4.645   7.888
15427SOL     OW57934   2.019   9.550   2.812
15427SOL    HW157935   2.041   9.628   2.871
15427SOL    HW257936   2.088   9.478   2.826
15428SOL     OW57937   3.148   8.033   1.696
15428SOL    HW157938   3.068   8.092   1.695
15428SOL    HW257939   3.123   7.941   1.665
15429SOL     OW57940   3.720   2.605   6.034
15429SOL    HW157941   3.743   2.513   6.065
15429SOL    HW257942   3.626   2.606   6.000
15430SOL     OW57943   9.242   9.948   1.276
15430SOL    HW157944   9.265   9.881   1.346
15430SOL    HW257945   9.325   9.974   1.226
15431SOL     OW57946   1.841   1.114   3.566
15431SOL    HW157947   1.834   1.025   3.611
15431SOL    HW257948   1.937   1.140   3.557
15432SOL     OW57949   0.218   2.019   4.244
15432SOL    HW157950   0.233   2.009   4.342
15432SOL    HW257951   0.258   1.941   4.195
15433SOL     OW57952   3.601   4.199   4.187
15433SOL    HW157953   3.552   4.247   4.260
15433SOL    HW257954   3.553   4.213   4.101
15434SOL     OW57955   7.604   6.801   2.153
15434SOL    HW157956   7.650   6.796   2.065
15434SOL    HW257957   7.631   6.884   2.201
15435SOL     OW57958   6.784   0.823   1.707
15435SOL    HW157959   6.789   0.916   1.742
15435SOL    HW257960   6.702   0.778   1.743
15436SOL     OW57961   6.799   8.682   7.920
15436SOL    HW157962   6.874   8.656   7.860
15436SOL    HW257963   6.818   8.650   8.013
15437SOL     OW57964   3.602   0.532   0.302
15437SOL    HW157965   3.558   0.585   0.229
15437SOL    HW257966   3.557   0.443   0.310
15438SOL     OW57967   9.968   0.678   7.388
15438SOL    HW157968   9.996   0.592   7.430
15438SOL    HW257969   9.931   0.661   7.297
15439SOL     OW57970   4.660   9.772   5.801
15439SOL    HW157971   4.600   9.767   5.722
15439SOL    HW257972   4.607   9.794   5.883
15440SOL     OW57973   7.957   9.390   3.461
15440SOL    HW157974   7.951   9.485   3.431
15440SOL    HW257975   7.949   9.330   3.382
15441SOL     OW57976   3.201   3.590   6.089
15441SOL    HW157977   3.129   3.528   6.121
15441SOL    HW257978   3.221   3.571   5.993
15442SOL     OW57979   0.995   7.337   3.775
15442SOL    HW157980   1.016   7.285   3.692
15442SOL    HW257981   1.027   7.431   3.764
15443SOL     OW57982   1.632   5.006   5.205
15443SOL    HW157983   1.545   5.010   5.154
15443SOL    HW257984   1.701   5.059   5.157
15444SOL     OW57985   3.053   3.097   1.826
15444SOL    HW157986   2.973   3.051   1.787
15444SOL    HW257987   3.024   3.180   1.874
15445SOL     OW57988   3.474   6.598   0.210
15445SOL    HW157989   3.461   6.672   0.276
15445SOL    HW257990   3.564   6.607   0.168
15446SOL     OW57991   0.444   0.994   7.728
15446SOL    HW157992   0.478   1.077   7.773
15446SOL    HW257993   0.347   1.005   7.708
15447SOL     OW57994   6.511   0.587   1.430
15447SOL    HW157995   6.590   0.540   1.470
15447SOL    HW257996   6.480   0.658   1.493
15448SOL     OW57997   1.003   2.590   6.067
15448SOL    HW157998   0.979   2.580   6.164
15448SOL    HW257999   0.952   2.666   6.028
15449SOL     OW58000   0.220   5.013   0.857
15449SOL    HW158001   0.253   4.949   0.927
15449SOL    HW258002   0.277   5.007   0.776
15450SOL     OW58003   0.007   0.619   6.340
15450SOL    HW158004   9.949   0.543   6.370
15450SOL    HW258005   9.969   0.659   6.257
15451SOL     OW58006   3.269   9.460   2.198
15451SOL    HW158007   3.341   9.397   2.169
15451SOL    HW258008   3.287   9.551   2.162
15452SOL     OW58009   2.593   7.783   0.955
15452SOL    HW158010   2.529   7.772   0.879
15452SOL    HW258011   2.546   7.827   1.032
15453SOL     OW58012   2.092   3.420   5.566
15453SOL    HW158013   2.044   3.472   5.636
15453SOL    HW258014   2.034   3.411   5.485
15454SOL     OW58015   0.923   5.631   3.199
15454SOL    HW158016   0.976   5.704   3.154
15454SOL    HW258017   0.942   5.544   3.154
15455SOL     OW58018   2.117   0.166   3.126
15455SOL    HW158019   2.100   0.253   3.174
15455SOL    HW258020   2.125   0.092   3.193
15456SOL     OW58021   4.839   6.303   0.577
15456SOL    HW158022   4.861   6.219   0.627
15456SOL    HW258023   4.894   6.308   0.494
15457SOL     OW58024   0.227   5.458   0.869
15457SOL    HW158025   0.265   5.398   0.798
15457SOL    HW258026   0.128   5.468   0.855
15458SOL     OW58027   5.826   0.787   7.200
15458SOL    HW158028   5.895   0.729   7.243
15458SOL    HW258029   5.865   0.828   7.117
15459SOL     OW58030   9.488   6.874   6.206
15459SOL    HW158031   9.400   6.911   6.177
15459SOL    HW258032   9.561   6.918   6.154
15460SOL     OW58033   7.070   7.252   5.865
15460SOL    HW158034   7.112   7.168   5.899
15460SOL    HW258035   7.084   7.258   5.766
15461SOL     OW58036   4.650   6.157   3.557
15461SOL    HW158037   4.664   6.059   3.572
15461SOL    HW258038   4.666   6.206   3.642
15462SOL     OW58039   2.919   9.622   0.381
15462SOL    HW158040   2.938   9.708   0.427
15462SOL    HW258041   2.872   9.560   0.444
15463SOL     OW58042   7.819   3.134   1.699
15463SOL    HW158043   7.832   3.165   1.605
15463SOL    HW258044   7.791   3.037   1.698
15464SOL     OW58045   0.316   3.818   0.095
15464SOL    HW158046   0.222   3.814   0.062
15464SOL    HW258047   0.341   3.730   0.136
15465SOL     OW58048   0.655   3.864   3.500
15465SOL    HW158049   0.648   3.952   3.453
15465SOL    HW258050   0.620   3.874   3.593
15466SOL     OW58051   2.246   0.486   4.858
15466SOL    HW158052   2.267   0.391   4.882
15466SOL    HW258053   2.268   0.545   4.936
15467SOL     OW58054   3.826   9.617   6.032
15467SOL    HW158055   3.800   9.522   6.050
15467SOL    HW258056   3.847   9.628   5.935
15468SOL     OW58057   2.285   9.983   1.677
15468SOL    HW158058   2.297   9.961   1.581
15468SOL    HW258059   2.199   9.945   1.710
15469SOL     OW58060   9.458   2.825   3.347
15469SOL    HW158061   9.385   2.849   3.412
15469SOL    HW258062   9.546   2.838   3.391
15470SOL     OW58063   2.242   1.814   2.532
15470SOL    HW158064   2.170   1.878   2.505
15470SOL    HW258065   2.225   1.725   2.491
15471SOL     OW58066   9.202   7.263   4.542
15471SOL    HW158067   9.150   7.344   4.516
15471SOL    HW258068   9.163   7.225   4.626
15472SOL     OW58069   5.556   8.234   5.745
15472SOL    HW158070   5.572   8.146   5.790
15472SOL    HW258071   5.493   8.222   5.668
15473SOL     OW58072   8.455   1.834   3.007
15473SOL    HW158073   8.492   1.772   2.938
15473SOL    HW258074   8.473   1.929   2.980
15474SOL     OW58075   9.544   3.420   1.800
15474SOL    HW158076   9.599   3.424   1.884
15474SOL    HW258077   9.462   3.365   1.816
15475SOL     OW58078   0.936   4.022   7.289
15475SOL    HW158079   0.887   4.086   7.348
15475SOL    HW258080   0.956   3.938   7.339
15476SOL     OW58081   9.549   5.836   2.702
15476SOL    HW158082   9.596   5.759   2.746
15476SOL    HW258083   9.616   5.899   2.665
15477SOL     OW58084   3.722   4.147   3.235
15477SOL    HW158085   3.708   4.055   3.271
15477SOL    HW258086   3.704   4.147   3.136
15478SOL     OW58087   2.587   9.913   4.007
15478SOL    HW158088   2.567   9.991   4.065
15478SOL    HW258089   2.502   9.862   3.988
15479SOL     OW58090   7.893   5.625   2.026
15479SOL    HW158091   7.990   5.644   2.009
15479SOL    HW258092   7.856   5.693   2.089
15480SOL     OW58093   1.425   1.723   7.616
15480SOL    HW158094   1.426   1.624   7.601
15480SOL    HW258095   1.469   1.744   7.703
15481SOL     OW58096   8.192   5.407   1.865
15481SOL    HW158097   8.215   5.324   1.915
15481SOL    HW258098   8.124   5.386   1.795
15482SOL     OW58099   2.794   8.663   2.856
15482SOL    HW158100   2.769   8.743   2.911
15482SOL    HW258101   2.784   8.580   2.911
15483SOL     OW58102   1.244   4.327   6.553
15483SOL    HW158103   1.318   4.378   6.511
15483SOL    HW258104   1.163   4.385   6.562
15484SOL     OW58105   2.782   6.770   6.665
15484SOL    HW158106   2.708   6.763   6.598
15484SOL    HW258107   2.844   6.692   6.653
15485SOL     OW58108   3.909   6.123   4.285
15485SOL    HW158109   3.867   6.089   4.369
15485SOL    HW258110   3.839   6.132   4.213
15486SOL     OW58111   5.635   5.929   1.912
15486SOL    HW158112   5.600   5.840   1.942
15486SOL    HW258113   5.685   5.972   1.987
15487SOL     OW58114   2.878   7.793   6.913
15487SOL    HW158115   2.943   7.722   6.886
15487SOL    HW258116   2.854   7.849   6.834
15488SOL     OW58117   1.877   9.304   3.704
15488SOL    HW158118   1.804   9.373   3.707
15488SOL    HW258119   1.895   9.270   3.796
15489SOL     OW58120   5.009   2.178   0.597
15489SOL    HW158121   5.092   2.122   0.591
15489SOL    HW258122   4.953   2.148   0.674
15490SOL     OW58123   1.426   4.600   4.238
15490SOL    HW158124   1.452   4.515   4.284
15490SOL    HW258125   1.461   4.678   4.290
15491SOL     OW58126   6.578   9.298   3.863
15491SOL    HW158127   6.543   9.390   3.882
15491SOL    HW258128   6.581   9.246   3.948
15492SOL     OW58129   8.783   2.027   3.200
15492SOL    HW158130   8.725   1.950   3.227
15492SOL    HW258131   8.781   2.036   3.100
15493SOL     OW58132   1.000   9.676   2.609
15493SOL    HW158133   0.964   9.735   2.538
15493SOL    HW258134   1.068   9.615   2.570
15494SOL     OW58135   3.029   1.648   6.378
15494SOL    HW158136   2.997   1.709   6.305
15494SOL    HW258137   2.996   1.555   6.360
15495SOL     OW58138   4.064   4.930   7.463
15495SOL    HW158139   4.023   5.008   7.416
15495SOL    HW258140   4.049   4.938   7.561
15496SOL     OW58141   2.898   7.307   6.513
15496SOL    HW158142   2.883   7.402   6.540
15496SOL    HW258143   2.982   7.274   6.554
15497SOL     OW58144   5.673   4.522   1.439
15497SOL    HW158145   5.711   4.530   1.532
15497SOL    HW258146   5.649   4.613   1.405
15498SOL     OW58147   9.850   5.834   4.865
15498SOL    HW158148   9.856   5.796   4.957
15498SOL    HW258149   9.781   5.784   4.813
15499SOL     OW58150   2.086   8.509   2.075
15499SOL    HW158151   2.087   8.472   1.982
15499SOL    HW258152   2.178   8.503   2.115
15500SOL     OW58153   9.817   2.712   0.662
15500SOL    HW158154   9.785   2.777   0.593
15500SOL    HW258155   9.784   2.621   0.639
15501SOL     OW58156   1.285   7.803   4.585
15501SOL    HW158157   1.374   7.797   4.540
15501SOL    HW258158   1.213   7.788   4.517
15502SOL     OW58159   6.449   9.859   3.375
15502SOL    HW158160   6.375   9.832   3.436
15502SOL    HW258161   6.496   9.939   3.412
15503SOL     OW58162   0.700   5.846   1.318
15503SOL    HW158163   0.777   5.859   1.381
15503SOL    HW258164   0.675   5.749   1.316
15504SOL     OW58165   4.506   4.165   5.088
15504SOL    HW158166   4.600   4.165   5.122
15504SOL    HW258167   4.449   4.222   5.148
15505SOL     OW58168   4.167   7.958   1.863
15505SOL    HW158169   4.134   7.865   1.876
15505SOL    HW258170   4.170   8.005   1.952
15506SOL     OW58171   3.498   8.139   5.145
15506SOL    HW158172   3.471   8.079   5.070
15506SOL    HW258173   3.484   8.235   5.117
15507SOL     OW58174   5.726   7.859   6.854
15507SOL    HW158175   5.759   7.949   6.881
15507SOL    HW258176   5.675   7.819   6.930
15508SOL     OW58177   0.651   3.645   5.891
15508SOL    HW158178   0.650   3.744   5.898
15508SOL    HW258179   0.604   3.617   5.807
15509SOL     OW58180   7.895   7.190   3.795
15509SOL    HW158181   7.946   7.106   3.778
15509SOL    HW258182   7.950   7.252   3.851
15510SOL     OW58183   9.269   8.514   0.923
15510SOL    HW158184   9.227   8.560   0.844
15510SOL    HW258185   9.365   8.493   0.902
15511SOL     OW58186   4.345   4.987   3.471
15511SOL    HW158187   4.382   5.059   3.530
15511SOL    HW258188   4.417   4.920   3.451
15512SOL     OW58189   3.761   9.123   0.115
15512SOL    HW158190   3.850   9.101   0.076
15512SOL    HW258191   3.703   9.042   0.114
15513SOL     OW58192   9.621   6.051   2.079
15513SOL    HW158193   9.534   6.083   2.041
15513SOL    HW258194   9.695   6.076   2.017
15514SOL     OW58195   0.966   8.658   6.905
15514SOL    HW158196   1.014   8.579   6.942
15514SOL    HW258197   0.955   8.727   6.977
15515SOL     OW58198   2.920   8.282   0.527
15515SOL    HW158199   2.966   8.201   0.563
15515SOL    HW258200   2.984   8.333   0.470
15516SOL     OW58201   6.234   2.922   2.289
15516SOL    HW158202   6.153   2.864   2.281
15516SOL    HW258203   6.316   2.869   2.268
15517SOL     OW58204   1.973   4.446   0.298
15517SOL    HW158205   1.987   4.506   0.376
15517SOL    HW258206   1.994   4.352   0.324
15518SOL     OW58207   0.913   3.594   1.462
15518SOL    HW158208   0.948   3.673   1.411
15518SOL    HW258209   0.826   3.565   1.421
15519SOL     OW58210   6.865   9.526   4.645
15519SOL    HW158211   6.882   9.510   4.547
15519SOL    HW258212   6.908   9.612   4.672
15520SOL     OW58213   3.930   2.014   4.036
15520SOL    HW158214   3.970   1.940   3.981
15520SOL    HW258215   3.971   2.014   4.127
15521SOL     OW58216   7.549   8.478   7.844
15521SOL    HW158217   7.525   8.521   7.931
15521SOL    HW258218   7.586   8.546   7.781
15522SOL     OW58219   3.044   4.591   4.315
15522SOL    HW158220   3.019   4.500   4.281
15522SOL    HW258221   3.083   4.645   4.241
15523SOL     OW58222   2.110   3.739   5.233
15523SOL    HW158223   2.088   3.748   5.330
15523SOL    HW258224   2.173   3.661   5.220
15524SOL     OW58225   3.623   7.617   0.927
15524SOL    HW158226   3.654   7.522   0.928
15524SOL    HW258227   3.702   7.678   0.933
15525SOL     OW58228   5.011   3.045   6.712
15525SOL    HW158229   5.076   2.988   6.662
15525SOL    HW258230   4.918   3.014   6.694
15526SOL     OW58231   0.038   5.176   4.889
15526SOL    HW158232   0.034   5.271   4.918
15526SOL    HW258233   0.091   5.123   4.955
15527SOL     OW58234   1.335   3.358   4.570
15527SOL    HW158235   1.402   3.288   4.596
15527SOL    HW258236   1.242   3.322   4.585
15528SOL     OW58237   9.398   4.221   2.513
15528SOL    HW158238   9.393   4.158   2.435
15528SOL    HW258239   9.466   4.188   2.578
15529SOL     OW58240   4.685   1.556   0.583
15529SOL    HW158241   4.743   1.631   0.549
15529SOL    HW258242   4.638   1.513   0.506
15530SOL     OW58243   1.893   7.744   4.192
15530SOL    HW158244   1.807   7.784   4.223
15530SOL    HW258245   1.941   7.808   4.132
15531SOL     OW58246   9.619   7.107   7.606
15531SOL    HW158247   9.682   7.042   7.564
15531SOL    HW258248   9.559   7.059   7.669
15532SOL     OW58249   2.649   6.071   1.770
15532SOL    HW158250   2.707   6.089   1.691
15532SOL    HW258251   2.675   6.131   1.845
15533SOL     OW58252   7.039   5.832   1.111
15533SOL    HW158253   6.963   5.878   1.157
15533SOL    HW258254   7.082   5.768   1.174
15534SOL     OW58255   3.208   6.178   3.060
15534SOL    HW158256   3.298   6.199   3.020
15534SOL    HW258257   3.178   6.087   3.029
15535SOL     OW58258   1.525   0.228   5.264
15535SOL    HW158259   1.529   0.171   5.182
15535SOL    HW258260   1.458   0.301   5.250
15536SOL     OW58261   4.573   8.608   1.756
15536SOL    HW158262   4.648   8.675   1.758
15536SOL    HW258263   4.567   8.568   1.664
15537SOL     OW58264   2.730   0.044   4.947
15537SOL    HW158265   2.730   0.125   4.889
15537SOL    HW258266   2.667   0.058   5.024
15538SOL     OW58267   0.443   1.702   3.816
15538SOL    HW158268   0.537   1.737   3.818
15538SOL    HW258269   0.440   1.618   3.763
15539SOL     OW58270   5.754   4.971   1.180
15539SOL    HW158271   5.824   4.900   1.166
15539SOL    HW258272   5.753   4.998   1.276
15540SOL     OW58273   0.401   9.651   0.262
15540SOL    HW158274   0.311   9.646   0.305
15540SOL    HW258275   0.466   9.692   0.326
15541SOL     OW58276   0.963   4.566   2.625
15541SOL    HW158277   0.927   4.644   2.573
15541SOL    HW258278   0.915   4.559   2.712
15542SOL     OW58279   9.522   1.737   1.891
15542SOL    HW158280   9.516   1.638   1.877
15542SOL    HW258281   9.537   1.756   1.988
15543SOL     OW58282   0.607   4.966   1.369
15543SOL    HW158283   0.612   5.065   1.380
15543SOL    HW258284   0.514   4.941   1.342
15544SOL     OW58285   2.857   1.995   2.160
15544SOL    HW158286   2.825   2.088   2.140
15544SOL    HW258287   2.904   1.958   2.079
15545SOL     OW58288   2.690   5.334   3.862
15545SOL    HW158289   2.764   5.280   3.900
15545SOL    HW258290   2.628   5.275   3.810
15546SOL     OW58291   3.565   5.657   3.697
15546SOL    HW158292   3.594   5.567   3.731
15546SOL    HW258293   3.626   5.685   3.623
15547SOL     OW58294   8.906   3.427   3.309
15547SOL    HW158295   8.852   3.344   3.326
15547SOL    HW258296   9.003   3.404   3.314
15548SOL     OW58297   8.510   3.917   0.352
15548SOL    HW158298   8.481   3.947   0.262
15548SOL    HW258299   8.466   3.830   0.374
15549SOL     OW58300   2.178   2.826   2.674
15549SOL    HW158301   2.108   2.882   2.629
15549SOL    HW258302   2.134   2.748   2.719
15550SOL     OW58303   5.231   2.305   1.646
15550SOL    HW158304   5.297   2.267   1.582
15550SOL    HW258305   5.191   2.231   1.700
15551SOL     OW58306   5.539   2.306   7.787
15551SOL    HW158307   5.498   2.219   7.761
15551SOL    HW258308   5.633   2.290   7.816
15552SOL     OW58309   5.389   7.519   2.073
15552SOL    HW158310   5.440   7.434   2.085
15552SOL    HW258311   5.428   7.590   2.133
15553SOL     OW58312   1.950   6.376   1.617
15553SOL    HW158313   1.934   6.468   1.584
15553SOL    HW258314   1.999   6.380   1.704
15554SOL     OW58315   4.259   8.908   6.634
15554SOL    HW158316   4.261   8.817   6.675
15554SOL    HW258317   4.275   8.977   6.705
15555SOL     OW58318   0.604   6.067   4.189
15555SOL    HW158319   0.693   6.114   4.194
15555SOL    HW258320   0.609   5.995   4.121
15556SOL     OW58321   9.030   2.793   2.614
15556SOL    HW158322   9.060   2.760   2.704
15556SOL    HW258323   9.043   2.892   2.608
15557SOL     OW58324   2.681   2.050   0.086
15557SOL    HW158325   2.589   2.078   0.059
15557SOL    HW258326   2.687   2.050   0.186
15558SOL     OW58327   0.301   2.493   6.476
15558SOL    HW158328   0.259   2.442   6.402
15558SOL    HW258329   0.390   2.528   6.447
15559SOL     OW58330   0.238   5.072   6.053
15559SOL    HW158331   0.262   5.035   6.142
15559SOL    HW258332   0.178   5.008   6.005
15560SOL     OW58333   9.854   3.087   7.221
15560SOL    HW158334   9.769   3.131   7.191
15560SOL    HW258335   9.897   3.043   7.143
15561SOL     OW58336   3.636   7.445   7.522
15561SOL    HW158337   3.622   7.404   7.612
15561SOL    HW258338   3.645   7.372   7.454
15562SOL     OW58339   7.922   6.277   1.250
15562SOL    HW158340   7.993   6.207   1.243
15562SOL    HW258341   7.964   6.367   1.265
15563SOL     OW58342   3.589   5.380   3.539
15563SOL    HW158343   3.507   5.354   3.590
15563SOL    HW258344   3.563   5.438   3.462
15564SOL     OW58345   1.079   4.318   6.181
15564SOL    HW158346   1.134   4.401   6.175
15564SOL    HW258347   1.133   4.240   6.151
15565SOL     OW58348   9.931   3.512   4.001
15565SOL    HW158349   9.833   3.497   4.012
15565SOL    HW258350   9.954   3.513   3.904
15566SOL     OW58351   3.869   8.116   2.603
15566SOL    HW158352   3.938   8.044   2.593
15566SOL    HW258353   3.805   8.091   2.675
15567SOL     OW58354   1.305   7.983   2.455
15567SOL    HW158355   1.310   8.081   2.473
15567SOL    HW258356   1.331   7.932   2.537
15568SOL     OW58357   3.773   3.309   7.677
15568SOL    HW158358   3.711   3.387   7.684
15568SOL    HW258359   3.813   3.307   7.585
15569SOL     OW58360   3.168   2.181   7.585
15569SOL    HW158361   3.078   2.139   7.595
15569SOL    HW258362   3.232   2.114   7.546
15570SOL     OW58363   2.198   5.818   5.890
15570SOL    HW158364   2.243   5.849   5.806
15570SOL    HW258365   2.117   5.764   5.866
15571SOL     OW58366   9.893   4.506   1.710
15571SOL    HW158367   9.854   4.422   1.674
15571SOL    HW258368   9.946   4.552   1.639
15572SOL     OW58369   1.219   9.811   4.526
15572SOL    HW158370   1.290   9.881   4.530
15572SOL    HW258371   1.214   9.764   4.615
15573SOL     OW58372   7.903   3.335   0.405
15573SOL    HW158373   7.914   3.308   0.501
15573SOL    HW258374   7.993   3.352   0.365
15574SOL     OW58375   9.852   3.133   0.518
15574SOL    HW158376   9.857   3.142   0.618
15574SOL    HW258377   9.944   3.121   0.481
15575SOL     OW58378   9.309   6.417   0.316
15575SOL    HW158379   9.387   6.480   0.314
15575SOL    HW258380   9.234   6.458   0.367
15576SOL     OW58381   9.650   0.103   7.604
15576SOL    HW158382   9.626   0.131   7.511
15576SOL    HW258383   9.699   0.177   7.650
15577SOL     OW58384   0.239   2.494   2.675
15577SOL    HW158385   0.274   2.539   2.593
15577SOL    HW258386   0.278   2.537   2.756
15578SOL     OW58387   6.852   4.968   1.682
15578SOL    HW158388   6.803   5.048   1.717
15578SOL    HW258389   6.793   4.918   1.619
15579SOL     OW58390   6.228   3.648   0.328
15579SOL    HW158391   6.230   3.552   0.299
15579SOL    HW258392   6.145   3.665   0.380
15580SOL     OW58393   2.981   0.206   3.032
15580SOL    HW158394   2.999   0.266   3.110
15580SOL    HW258395   3.057   0.213   2.967
15581SOL     OW58396   4.097   9.403   3.235
15581SOL    HW158397   4.021   9.339   3.243
15581SOL    HW258398   4.131   9.426   3.326
15582SOL     OW58399   5.633   8.792   6.554
15582SOL    HW158400   5.654   8.697   6.579
15582SOL    HW258401   5.537   8.798   6.528
15583SOL     OW58402   1.806   2.542   3.443
15583SOL    HW158403   1.720   2.592   3.438
15583SOL    HW258404   1.847   2.553   3.534
15584SOL     OW58405   0.514   5.182   4.149
15584SOL    HW158406   0.598   5.142   4.113
15584SOL    HW258407   0.467   5.116   4.206
15585SOL     OW58408   2.472   6.125   2.422
15585SOL    HW158409   2.415   6.077   2.488
15585SOL    HW258410   2.477   6.071   2.337
15586SOL     OW58411   9.777   6.623   5.056
15586SOL    HW158412   9.695   6.665   5.017
15586SOL    HW258413   9.834   6.694   5.096
15587SOL     OW58414   6.184   8.412   5.495
15587SOL    HW158415   6.234   8.495   5.522
15587SOL    HW258416   6.168   8.414   5.396
15588SOL     OW58417   2.965   1.614   7.007
15588SOL    HW158418   3.040   1.550   7.025
15588SOL    HW258419   2.997   1.688   6.948
15589SOL     OW58420   7.176   7.726   2.498
15589SOL    HW158421   7.245   7.776   2.551
15589SOL    HW258422   7.210   7.714   2.404
15590SOL     OW58423   8.725   5.355   3.304
15590SOL    HW158424   8.803   5.378   3.246
15590SOL    HW258425   8.654   5.310   3.250
15591SOL     OW58426   9.205   1.658   4.789
15591SOL    HW158427   9.150   1.604   4.853
15591SOL    HW258428   9.153   1.739   4.761
15592SOL     OW58429   4.409   8.558   3.027
15592SOL    HW158430   4.399   8.525   2.933
15592SOL    HW258431   4.419   8.657   3.028
15593SOL     OW58432   2.136   1.220   2.721
15593SOL    HW158433   2.177   1.149   2.779
15593SOL    HW258434   2.112   1.299   2.777
15594SOL     OW58435   1.609   0.629   0.058
15594SOL    HW158436   1.671   0.614  10.063
15594SOL    HW258437   1.644   0.704   0.115
15595SOL     OW58438   8.664   7.158   0.154
15595SOL    HW158439   8.695   7.241   0.107
15595SOL    HW258440   8.728   7.083   0.134
15596SOL     OW58441   1.285   7.178   7.570
15596SOL    HW158442   1.267   7.204   7.475
15596SOL    HW258443   1.280   7.259   7.628
15597SOL     OW58444   1.438   5.508   2.361
15597SOL    HW158445   1.530   5.514   2.324
15597SOL    HW258446   1.432   5.560   2.446
15598SOL     OW58447   4.197   9.001   0.939
15598SOL    HW158448   4.275   8.944   0.913
15598SOL    HW258449   4.132   9.004   0.863
15599SOL     OW58450   3.605   0.235   0.936
15599SOL    HW158451   3.548   0.241   0.853
15599SOL    HW258452   3.651   0.322   0.951
15600SOL     OW58453   2.959   3.322   1.036
15600SOL    HW158454   2.896   3.399   1.028
15600SOL    HW258455   3.028   3.342   1.106
15601SOL     OW58456   2.277   6.788   2.400
15601SOL    HW158457   2.259   6.690   2.391
15601SOL    HW258458   2.350   6.815   2.337
15602SOL     OW58459   4.522   9.026   1.714
15602SOL    HW158460   4.493   8.939   1.755
15602SOL    HW258461   4.533   9.095   1.786
15603SOL     OW58462   7.728   6.307   1.875
15603SOL    HW158463   7.687   6.244   1.809
15603SOL    HW258464   7.798   6.362   1.829
15604SOL     OW58465   6.588   4.222   1.794
15604SOL    HW158466   6.640   4.260   1.718
15604SOL    HW258467   6.579   4.290   1.867
15605SOL     OW58468   9.558   1.094   3.008
15605SOL    HW158469   9.609   1.029   2.951
15605SOL    HW258470   9.517   1.164   2.949
15606SOL     OW58471   7.628   1.127   3.221
15606SOL    HW158472   7.717   1.167   3.246
15606SOL    HW258473   7.556   1.193   3.238
15607SOL     OW58474   4.797   6.353   7.809
15607SOL    HW158475   4.869   6.394   7.865
15607SOL    HW258476   4.712   6.406   7.818
15608SOL     OW58477   6.545   0.882   3.553
15608SOL    HW158478   6.446   0.884   3.569
15608SOL    HW258479   6.585   0.803   3.600
15609SOL     OW58480   9.462   7.543   2.698
15609SOL    HW158481   9.543   7.489   2.676
15609SOL    HW258482   9.488   7.640   2.704
15610SOL     OW58483   7.748   3.890   2.760
15610SOL    HW158484   7.724   3.923   2.669
15610SOL    HW258485   7.706   3.950   2.829
15611SOL     OW58486   4.711   6.811   0.375
15611SOL    HW158487   4.642   6.766   0.432
15611SOL    HW258488   4.702   6.778   0.281
15612SOL     OW58489   0.237   6.409   2.841
15612SOL    HW158490   0.305   6.440   2.908
15612SOL    HW258491   0.272   6.427   2.749
15613SOL     OW58492   9.311   6.792   3.122
15613SOL    HW158493   9.334   6.814   3.028
15613SOL    HW258494   9.250   6.713   3.124
15614SOL     OW58495   7.848   5.278   6.705
15614SOL    HW158496   7.815   5.363   6.745
15614SOL    HW258497   7.771   5.224   6.671
15615SOL     OW58498   7.038   0.480   2.209
15615SOL    HW158499   7.122   0.510   2.164
15615SOL    HW258500   7.037   0.381   2.217
15616SOL     OW58501   8.383   4.571   2.415
15616SOL    HW158502   8.374   4.651   2.356
15616SOL    HW258503   8.304   4.566   2.476
15617SOL     OW58504   1.727   5.340   6.034
15617SOL    HW158505   1.779   5.262   5.999
15617SOL    HW258506   1.650   5.357   5.974
15618SOL     OW58507   2.443   2.181   6.448
15618SOL    HW158508   2.349   2.148   6.444
15618SOL    HW258509   2.464   2.233   6.365
15619SOL     OW58510   3.844   2.660   6.702
15619SOL    HW158511   3.849   2.752   6.664
15619SOL    HW258512   3.856   2.663   6.801
15620SOL     OW58513   4.223   8.658   4.077
15620SOL    HW158514   4.137   8.618   4.046
15620SOL    HW258515   4.299   8.598   4.052
15621SOL     OW58516   8.998   7.603   4.014
15621SOL    HW158517   9.095   7.594   4.038
15621SOL    HW258518   8.960   7.511   4.000
15622SOL     OW58519   8.170   4.133   0.425
15622SOL    HW158520   8.197   4.064   0.492
15622SOL    HW258521   8.072   4.126   0.407
15623SOL     OW58522   8.449   3.776   0.650
15623SOL    HW158523   8.484   3.716   0.578
15623SOL    HW258524   8.517   3.845   0.672
15624SOL     OW58525   2.012   0.711   1.220
15624SOL    HW158526   1.983   0.630   1.169
15624SOL    HW258527   2.056   0.684   1.305
15625SOL     OW58528   5.168   6.483   1.628
15625SOL    HW158529   5.181   6.387   1.603
15625SOL    HW258530   5.201   6.541   1.553
15626SOL     OW58531   6.377   8.244   2.164
15626SOL    HW158532   6.345   8.277   2.253
15626SOL    HW258533   6.396   8.146   2.170
15627SOL     OW58534   9.084   8.800   4.834
15627SOL    HW158535   9.157   8.742   4.798
15627SOL    HW258536   9.124   8.876   4.886
15628SOL     OW58537   0.531   2.804   4.761
15628SOL    HW158538   0.537   2.844   4.853
15628SOL    HW258539   0.436   2.781   4.740
15629SOL     OW58540   2.165   1.960   7.235
15629SOL    HW158541   2.188   2.008   7.319
15629SOL    HW258542   2.170   1.861   7.250
15630SOL     OW58543   3.365   3.385   1.118
15630SOL    HW158544   3.433   3.401   1.189
15630SOL    HW258545   3.274   3.378   1.159
15631SOL     OW58546   5.278   2.087   6.559
15631SOL    HW158547   5.283   2.186   6.572
15631SOL    HW258548   5.242   2.044   6.642
15632SOL     OW58549   6.597   2.034   2.880
15632SOL    HW158550   6.501   2.049   2.902
15632SOL    HW258551   6.654   2.076   2.951
15633SOL     OW58552   7.841   0.053   1.410
15633SOL    HW158553   7.741   0.054   1.416
15633SOL    HW258554   7.878   9.994   1.481
15634SOL     OW58555   7.387   0.251   2.723
15634SOL    HW158556   7.307   0.286   2.771
15634SOL    HW258557   7.364   0.164   2.679
15635SOL     OW58558   3.144   9.165   6.867
15635SOL    HW158559   3.051   9.197   6.879
15635SOL    HW258560   3.174   9.119   6.951
15636SOL     OW58561   8.890   2.290   0.094
15636SOL    HW158562   8.822   2.295   0.167
15636SOL    HW258563   8.844   2.285   0.006
15637SOL     OW58564   3.387   7.232   5.019
15637SOL    HW158565   3.300   7.195   5.049
15637SOL    HW258566   3.460   7.166   5.039
15638SOL     OW58567   3.971   7.918   1.206
15638SOL    HW158568   3.977   7.999   1.149
15638SOL    HW258569   4.021   7.843   1.163
15639SOL     OW58570   1.942   9.349   7.181
15639SOL    HW158571   1.911   9.443   7.190
15639SOL    HW258572   1.912   9.296   7.260
15640SOL     OW58573   5.448   1.720   7.439
15640SOL    HW158574   5.432   1.686   7.531
15640SOL    HW258575   5.426   1.648   7.373
15641SOL     OW58576   4.383   5.967   7.619
15641SOL    HW158577   4.475   6.005   7.628
15641SOL    HW258578   4.361   5.914   7.701
15642SOL     OW58579   0.214   4.371   6.525
15642SOL    HW158580   0.281   4.304   6.494
15642SOL    HW258581   0.258   4.461   6.535
15643SOL     OW58582   0.745   6.752   4.016
15643SOL    HW158583   0.826   6.754   4.075
15643SOL    HW258584   0.677   6.690   4.056
15644SOL     OW58585   6.621   7.430   2.366
15644SOL    HW158586   6.575   7.444   2.453
15644SOL    HW258587   6.574   7.357   2.315
15645SOL     OW58588   8.156   5.417   0.381
15645SOL    HW158589   8.078   5.409   0.319
15645SOL    HW258590   8.165   5.332   0.434
15646SOL     OW58591   5.739   5.172   0.822
15646SOL    HW158592   5.696   5.201   0.736
15646SOL    HW258593   5.695   5.218   0.899
15647SOL     OW58594   3.841   3.081   0.559
15647SOL    HW158595   3.921   3.040   0.602
15647SOL    HW258596   3.775   3.106   0.630
15648SOL     OW58597   9.189   6.018   5.238
15648SOL    HW158598   9.166   5.975   5.151
15648SOL    HW258599   9.287   6.036   5.242
15649SOL     OW58600   9.434   0.323   6.265
15649SOL    HW158601   9.491   0.262   6.210
15649SOL    HW258602   9.412   0.404   6.211
15650SOL     OW58603   0.855   8.368   5.102
15650SOL    HW158604   0.804   8.282   5.093
15650SOL    HW258605   0.940   8.352   5.152
15651SOL     OW58606   4.446   5.009   3.990
15651SOL    HW158607   4.447   5.107   3.972
15651SOL    HW258608   4.457   4.959   3.904
15652SOL     OW58609   7.601   8.932   6.590
15652SOL    HW158610   7.640   8.919   6.681
15652SOL    HW258611   7.669   8.975   6.530
15653SOL     OW58612   7.574   9.390   3.694
15653SOL    HW158613   7.538   9.309   3.740
15653SOL    HW258614   7.673   9.395   3.708
15654SOL     OW58615   3.587   3.297   6.507
15654SOL    HW158616   3.511   3.363   6.507
15654SOL    HW258617   3.583   3.242   6.423
15655SOL     OW58618   3.917   4.039   6.968
15655SOL    HW158619   4.015   4.040   6.946
15655SOL    HW258620   3.898   3.968   7.035
15656SOL     OW58621   8.457   5.377   3.873
15656SOL    HW158622   8.500   5.388   3.784
15656SOL    HW258623   8.443   5.467   3.915
15657SOL     OW58624   1.197   5.718   1.789
15657SOL    HW158625   1.144   5.667   1.856
15657SOL    HW258626   1.288   5.736   1.826
15658SOL     OW58627   1.938   4.865   6.228
15658SOL    HW158628   1.844   4.896   6.244
15658SOL    HW258629   1.965   4.801   6.300
15659SOL     OW58630   8.635   9.837   1.665
15659SOL    HW158631   8.621   9.770   1.593
15659SOL    HW258632   8.620   9.929   1.629
15660SOL     OW58633   4.003   1.335   0.764
15660SOL    HW158634   3.942   1.413   0.776
15660SOL    HW258635   4.093   1.356   0.802
15661SOL     OW58636   7.657   0.570   4.831
15661SOL    HW158637   7.558   0.573   4.843
15661SOL    HW258638   7.680   0.601   4.738
15662SOL     OW58639   2.562   5.880   5.492
15662SOL    HW158640   2.514   5.956   5.535
15662SOL    HW258641   2.500   5.802   5.483
15663SOL     OW58642   8.108   1.200   0.342
15663SOL    HW158643   8.186   1.255   0.373
15663SOL    HW258644   8.140   1.108   0.319
15664SOL     OW58645   8.736   0.426   2.253
15664SOL    HW158646   8.694   0.467   2.171
15664SOL    HW258647   8.666   0.408   2.321
15665SOL     OW58648   5.197   7.991   3.865
15665SOL    HW158649   5.196   7.988   3.965
15665SOL    HW258650   5.241   8.076   3.835
15666SOL     OW58651   3.036   2.814   3.931
15666SOL    HW158652   3.058   2.835   4.026
15666SOL    HW258653   2.992   2.723   3.926
15667SOL     OW58654   9.933   5.550   0.173
15667SOL    HW158655   9.866   5.613   0.211
15667SOL    HW258656   0.019   5.598   0.156
15668SOL     OW58657   7.038   9.285   6.765
15668SOL    HW158658   7.034   9.371   6.715
15668SOL    HW258659   7.039   9.304   6.863
15669SOL     OW58660   0.385   4.022   7.550
15669SOL    HW158661   0.447   3.974   7.612
15669SOL    HW258662   0.439   4.073   7.483
15670SOL     OW58663   7.400   3.009   4.700
15670SOL    HW158664   7.316   3.031   4.749
15670SOL    HW258665   7.402   3.059   4.613
15671SOL     OW58666   9.716   4.144   5.788
15671SOL    HW158667   9.699   4.047   5.777
15671SOL    HW258668   9.690   4.172   5.881
15672SOL     OW58669   2.031   3.890   0.098
15672SOL    HW158670   2.057   3.985   0.080
15672SOL    HW258671   2.002   3.880   0.193
15673SOL     OW58672   9.802   6.748   4.689
15673SOL    HW158673   9.727   6.747   4.755
15673SOL    HW258674   9.766   6.726   4.598
15674SOL     OW58675   4.726   1.251   6.901
15674SOL    HW158676   4.793   1.234   6.973
15674SOL    HW258677   4.646   1.295   6.941
15675SOL     OW58678   9.742   2.840   6.046
15675SOL    HW158679   9.649   2.874   6.026
15675SOL    HW258680   9.737   2.770   6.117
15676SOL     OW58681   7.871   1.176   2.569
15676SOL    HW158682   7.846   1.182   2.473
15676SOL    HW258683   7.888   1.080   2.594
15677SOL     OW58684   1.740   6.512   2.049
15677SOL    HW158685   1.677   6.464   2.110
15677SOL    HW258686   1.741   6.467   1.960
15678SOL     OW58687   8.329   0.225   4.820
15678SOL    HW158688   8.321   0.243   4.722
15678SOL    HW258689   8.270   0.149   4.845
15679SOL     OW58690   4.012   9.005   6.540
15679SOL    HW158691   3.948   8.959   6.478
15679SOL    HW258692   4.092   8.946   6.556
15680SOL     OW58693   2.801   8.321   4.154
15680SOL    HW158694   2.874   8.374   4.111
15680SOL    HW258695   2.743   8.382   4.208
15681SOL     OW58696   1.717   2.532   1.500
15681SOL    HW158697   1.747   2.623   1.472
15681SOL    HW258698   1.623   2.536   1.534
15682SOL     OW58699   1.667   4.968   0.123
15682SOL    HW158700   1.729   5.001   0.052
15682SOL    HW258701   1.700   4.880   0.158
15683SOL     OW58702   2.476   4.672   1.449
15683SOL    HW158703   2.489   4.731   1.528
15683SOL    HW258704   2.552   4.607   1.443
15684SOL     OW58705   2.014   2.952   3.987
15684SOL    HW158706   2.076   2.977   4.062
15684SOL    HW258707   2.039   3.002   3.904
15685SOL     OW58708   0.369   2.603   2.403
15685SOL    HW158709   0.296   2.606   2.335
15685SOL    HW258710   0.446   2.660   2.373
15686SOL     OW58711   8.960   9.140   3.275
15686SOL    HW158712   8.920   9.232   3.273
15686SOL    HW258713   8.888   9.073   3.287
15687SOL     OW58714   7.420   7.287   2.091
15687SOL    HW158715   7.398   7.203   2.042
15687SOL    HW258716   7.377   7.285   2.181
15688SOL     OW58717   9.226   4.208   6.368
15688SOL    HW158718   9.179   4.296   6.371
15688SOL    HW258719   9.209   4.158   6.453
15689SOL     OW58720   2.004   9.711   1.034
15689SOL    HW158721   2.089   9.691   1.083
15689SOL    HW258722   2.024   9.771   0.957
15690SOL     OW58723   9.649   2.364   2.287
15690SOL    HW158724   9.601   2.391   2.204
15690SOL    HW258725   9.708   2.439   2.317
15691SOL     OW58726   2.712   1.129   2.768
15691SOL    HW158727   2.764   1.181   2.836
15691SOL    HW258728   2.773   1.102   2.694
15692SOL     OW58729   4.906   2.383   1.245
15692SOL    HW158730   5.001   2.411   1.232
15692SOL    HW258731   4.883   2.387   1.342
15693SOL     OW58732   1.955   6.568   2.221
15693SOL    HW158733   1.976   6.664   2.239
15693SOL    HW258734   1.878   6.562   2.157
15694SOL     OW58735   1.318   5.903   5.125
15694SOL    HW158736   1.412   5.914   5.092
15694SOL    HW258737   1.281   5.992   5.151
15695SOL     OW58738   1.072   9.163   4.522
15695SOL    HW158739   1.100   9.222   4.597
15695SOL    HW258740   1.145   9.157   4.454
15696SOL     OW58741   4.166   5.467   1.431
15696SOL    HW158742   4.074   5.455   1.470
15696SOL    HW258743   4.232   5.419   1.489
15697SOL     OW58744   3.923   4.438   1.718
15697SOL    HW158745   3.934   4.520   1.774
15697SOL    HW258746   3.826   4.413   1.714
15698SOL     OW58747   5.213   3.621   2.116
15698SOL    HW158748   5.220   3.573   2.204
15698SOL    HW258749   5.118   3.641   2.096
15699SOL     OW58750   5.896   9.127   4.110
15699SOL    HW158751   5.977   9.182   4.087
15699SOL    HW258752   5.921   9.030   4.111
15700SOL     OW58753   6.775   3.848   0.629
15700SOL    HW158754   6.704   3.794   0.675
15700SOL    HW258755   6.767   3.943   0.658
15701SOL     OW58756   4.769   9.684   6.294
15701SOL    HW158757   4.842   9.744   6.325
15701SOL    HW258758   4.808   9.605   6.247
15702SOL     OW58759   1.090   3.825   7.640
15702SOL    HW158760   1.014   3.822   7.704
15702SOL    HW258761   1.058   3.796   7.549
15703SOL     OW58762   9.843   2.963   6.756
15703SOL    HW158763   9.826   3.061   6.768
15703SOL    HW258764   9.873   2.946   6.662
15704SOL     OW58765   0.765   3.888   4.713
15704SOL    HW158766   0.862   3.868   4.727
15704SOL    HW258767   0.710   3.823   4.764
15705SOL     OW58768   3.649   9.615   4.801
15705SOL    HW158769   3.554   9.593   4.823
15705SOL    HW258770   3.711   9.562   4.860
15706SOL     OW58771   1.177   4.435   5.071
15706SOL    HW158772   1.153   4.517   5.020
15706SOL    HW258773   1.266   4.403   5.042
15707SOL     OW58774   4.218   0.783   6.863
15707SOL    HW158775   4.147   0.722   6.826
15707SOL    HW258776   4.307   0.738   6.857
15708SOL     OW58777   9.590   7.538   4.153
15708SOL    HW158778   9.609   7.585   4.066
15708SOL    HW258779   9.671   7.486   4.180
15709SOL     OW58780   4.772   2.393   6.422
15709SOL    HW158781   4.689   2.346   6.452
15709SOL    HW258782   4.767   2.490   6.447
15710SOL     OW58783   0.468   4.275   2.545
15710SOL    HW158784   0.511   4.187   2.526
15710SOL    HW258785   0.390   4.262   2.606
15711SOL     OW58786   2.053   2.906   3.045
15711SOL    HW158787   2.028   3.003   3.044
15711SOL    HW258788   2.151   2.897   3.062
15712SOL     OW58789   8.813   0.992   5.303
15712SOL    HW158790   8.770   1.063   5.247
15712SOL    HW258791   8.911   1.006   5.306
15713SOL     OW58792   7.768   9.881   4.955
15713SOL    HW158793   7.830   9.826   5.011
15713SOL    HW258794   7.686   9.828   4.935
15714SOL     OW58795   8.458   5.968   0.306
15714SOL    HW158796   8.491   5.981   0.399
15714SOL    HW258797   8.371   5.919   0.308
15715SOL     OW58798   7.815   3.187   3.427
15715SOL    HW158799   7.874   3.206   3.348
15715SOL    HW258800   7.864   3.208   3.511
15716SOL     OW58801   6.663   8.820   4.441
15716SOL    HW158802   6.652   8.744   4.376
15716SOL    HW258803   6.761   8.840   4.451
15717SOL     OW58804   7.987   7.029   4.851
15717SOL    HW158805   8.055   6.956   4.842
15717SOL    HW258806   7.992   7.088   4.770
15718SOL     OW58807   4.759   4.448   0.400
15718SOL    HW158808   4.789   4.520   0.463
15718SOL    HW258809   4.823   4.442   0.323
15719SOL     OW58810   1.526   5.408   5.868
15719SOL    HW158811   1.441   5.361   5.846
15719SOL    HW258812   1.583   5.415   5.785
15720SOL     OW58813   9.081   5.941   5.494
15720SOL    HW158814   9.103   5.967   5.400
15720SOL    HW258815   9.164   5.946   5.551
15721SOL     OW58816   1.046   4.884   6.384
15721SOL    HW158817   0.964   4.883   6.327
15721SOL    HW258818   1.082   4.791   6.393
15722SOL     OW58819   2.697   4.251   4.129
15722SOL    HW158820   2.742   4.230   4.042
15722SOL    HW258821   2.600   4.269   4.113
15723SOL     OW58822   1.494   8.726   3.470
15723SOL    HW158823   1.524   8.712   3.564
15723SOL    HW258824   1.523   8.816   3.438
15724SOL     OW58825   9.124   3.127   3.349
15724SOL    HW158826   9.149   3.143   3.445
15724SOL    HW258827   9.058   3.052   3.343
15725SOL     OW58828   1.189   1.250   3.244
15725SOL    HW158829   1.269   1.272   3.189
15725SOL    HW258830   1.158   1.332   3.292
15726SOL     OW58831   3.486   2.250   4.918
15726SOL    HW158832   3.424   2.243   4.996
15726SOL    HW258833   3.437   2.290   4.840
15727SOL     OW58834   8.606   9.225   0.809
15727SOL    HW158835   8.628   9.186   0.720
15727SOL    HW258836   8.675   9.195   0.876
15728SOL     OW58837   1.649   0.205   1.348
15728SOL    HW158838   1.578   0.271   1.370
15728SOL    HW258839   1.642   0.127   1.410
15729SOL     OW58840   9.072   9.745   4.714
15729SOL    HW158841   9.074   9.843   4.732
15729SOL    HW258842   9.131   9.725   4.636
15730SOL     OW58843   4.545   6.779   3.643
15730SOL    HW158844   4.565   6.804   3.738
15730SOL    HW258845   4.459   6.821   3.615
15731SOL     OW58846   7.773   5.481   7.750
15731SOL    HW158847   7.846   5.546   7.773
15731SOL    HW258848   7.801   5.389   7.777
15732SOL     OW58849   9.378   6.357   2.130
15732SOL    HW158850   9.327   6.439   2.154
15732SOL    HW258851   9.457   6.348   2.191
15733SOL     OW58852   9.150   5.006   3.585
15733SOL    HW158853   9.195   4.968   3.666
15733SOL    HW258854   9.066   4.955   3.567
15734SOL     OW58855   8.399   6.330   2.027
15734SOL    HW158856   8.424   6.264   2.098
15734SOL    HW258857   8.318   6.298   1.978
15735SOL     OW58858   6.786   6.724   2.148
15735SOL    HW158859   6.830   6.776   2.074
15735SOL    HW258860   6.762   6.785   2.223
15736SOL     OW58861   7.823   7.346   3.576
15736SOL    HW158862   7.850   7.280   3.647
15736SOL    HW258863   7.803   7.434   3.619
15737SOL     OW58864   2.774   8.329   6.798
15737SOL    HW158865   2.792   8.404   6.862
15737SOL    HW258866   2.752   8.367   6.708
15738SOL     OW58867   1.864   9.229   2.642
15738SOL    HW158868   1.841   9.301   2.708
15738SOL    HW258869   1.828   9.253   2.552
15739SOL     OW58870   7.606   1.800   4.114
15739SOL    HW158871   7.539   1.790   4.187
15739SOL    HW258872   7.572   1.754   4.031
15740SOL     OW58873   1.392   7.410   1.368
15740SOL    HW158874   1.465   7.474   1.389
15740SOL    HW258875   1.347   7.380   1.453
15741SOL     OW58876   5.132   4.028   1.676
15741SOL    HW158877   5.071   4.079   1.738
15741SOL    HW258878   5.111   4.052   1.582
15742SOL     OW58879   6.050   3.788   2.783
15742SOL    HW158880   6.139   3.805   2.742
15742SOL    HW258881   6.026   3.691   2.771
15743SOL     OW58882   1.645   3.138   3.309
15743SOL    HW158883   1.665   3.042   3.293
15743SOL    HW258884   1.636   3.186   3.222
15744SOL     OW58885   4.482   9.563   2.655
15744SOL    HW158886   4.517   9.586   2.564
15744SOL    HW258887   4.436   9.643   2.694
15745SOL     OW58888   8.198   1.339   3.354
15745SOL    HW158889   8.130   1.399   3.398
15745SOL    HW258890   8.243   1.283   3.423
15746SOL     OW58891   6.107   7.884   4.619
15746SOL    HW158892   6.113   7.930   4.708
15746SOL    HW258893   6.093   7.786   4.634
15747SOL     OW58894   0.773   7.041   7.000
15747SOL    HW158895   0.766   7.100   6.921
15747SOL    HW258896   0.764   7.095   7.084
15748SOL     OW58897   1.046   3.807   1.047
15748SOL    HW158898   1.116   3.736   1.049
15748SOL    HW258899   1.089   3.896   1.058
15749SOL     OW58900   0.355   8.571   7.422
15749SOL    HW158901   0.315   8.597   7.510
15749SOL    HW258902   0.303   8.495   7.383
15750SOL     OW58903   3.702   8.495   7.070
15750SOL    HW158904   3.647   8.526   6.993
15750SOL    HW258905   3.733   8.573   7.124
15751SOL     OW58906   2.930   0.684   5.790
15751SOL    HW158907   3.019   0.666   5.830
15751SOL    HW258908   2.908   0.782   5.799
15752SOL     OW58909   4.168   2.662   6.965
15752SOL    HW158910   4.224   2.740   6.993
15752SOL    HW258911   4.182   2.587   7.029
15753SOL     OW58912   6.593   7.812   6.827
15753SOL    HW158913   6.566   7.716   6.820
15753SOL    HW258914   6.693   7.818   6.826
15754SOL     OW58915   4.899   3.800   1.156
15754SOL    HW158916   4.984   3.797   1.209
15754SOL    HW258917   4.890   3.889   1.112
15755SOL     OW58918   8.365   8.927   6.652
15755SOL    HW158919   8.394   8.836   6.683
15755SOL    HW258920   8.270   8.942   6.680
15756SOL     OW58921   3.151   8.356   6.642
15756SOL    HW158922   3.085   8.341   6.568
15756SOL    HW258923   3.117   8.313   6.726
15757SOL     OW58924   8.083   0.934   4.211
15757SOL    HW158925   8.073   0.892   4.121
15757SOL    HW258926   8.160   0.893   4.260
15758SOL     OW58927   9.191   0.066   3.104
15758SOL    HW158928   9.256   0.004   3.148
15758SOL    HW258929   9.152   0.022   3.024
15759SOL     OW58930   1.857   3.074   4.966
15759SOL    HW158931   1.941   3.028   4.995
15759SOL    HW258932   1.786   3.059   5.034
15760SOL     OW58933   2.844   8.965   3.946
15760SOL    HW158934   2.782   8.953   3.868
15760SOL    HW258935   2.822   9.049   3.994
15761SOL     OW58936   7.981   3.679   2.426
15761SOL    HW158937   8.049   3.639   2.487
15761SOL    HW258938   7.889   3.652   2.455
15762SOL     OW58939   5.295   2.695   4.948
15762SOL    HW158940   5.204   2.674   4.913
15762SOL    HW258941   5.363   2.644   4.895
15763SOL     OW58942   8.189   4.119   3.765
15763SOL    HW158943   8.280   4.153   3.738
15763SOL    HW258944   8.140   4.191   3.814
15764SOL     OW58945   2.626   3.062   2.043
15764SOL    HW158946   2.636   2.983   1.983
15764SOL    HW258947   2.590   3.139   1.991
15765SOL     OW58948   9.918   0.524   1.854
15765SOL    HW158949   9.835   0.476   1.883
15765SOL    HW258950   9.998   0.467   1.874
15766SOL     OW58951   8.715   9.100   0.574
15766SOL    HW158952   8.799   9.129   0.619
15766SOL    HW258953   8.715   9.001   0.563
15767SOL     OW58954   7.505   6.274   4.795
15767SOL    HW158955   7.425   6.219   4.771
15767SOL    HW258956   7.575   6.214   4.834
15768SOL     OW58957   3.317   3.483   0.399
15768SOL    HW158958   3.337   3.412   0.331
15768SOL    HW258959   3.292   3.568   0.352
15769SOL     OW58960   1.250   3.136   3.006
15769SOL    HW158961   1.198   3.219   3.027
15769SOL    HW258962   1.252   3.122   2.907
15770SOL     OW58963   7.431   7.258   3.717
15770SOL    HW158964   7.359   7.284   3.781
15770SOL    HW258965   7.391   7.204   3.642
15771SOL     OW58966   1.179   6.071   5.782
15771SOL    HW158967   1.178   6.165   5.747
15771SOL    HW258968   1.253   6.061   5.848
15772SOL     OW58969   9.893   1.219   4.834
15772SOL    HW158970   9.962   1.261   4.893
15772SOL    HW258971   9.883   1.122   4.857
15773SOL     OW58972   6.119   5.439   0.879
15773SOL    HW158973   6.199   5.489   0.910
15773SOL    HW258974   6.121   5.431   0.779
15774SOL     OW58975   1.677   6.841   6.524
15774SOL    HW158976   1.611   6.849   6.448
15774SOL    HW258977   1.674   6.924   6.579
15775SOL     OW58978   0.247   1.900   6.856
15775SOL    HW158979   0.153   1.908   6.890
15775SOL    HW258980   0.248   1.918   6.758
15776SOL     OW58981   1.527   9.430   5.292
15776SOL    HW158982   1.488   9.387   5.373
15776SOL    HW258983   1.622   9.456   5.311
15777SOL     OW58984   1.654   4.550   5.781
15777SOL    HW158985   1.562   4.579   5.756
15777SOL    HW258986   1.701   4.626   5.828
15778SOL     OW58987   2.606   1.339   7.315
15778SOL    HW158988   2.509   1.323   7.296
15778SOL    HW258989   2.617   1.363   7.411
15779SOL     OW58990   2.586   5.951   3.002
15779SOL    HW158991   2.487   5.946   3.014
15779SOL    HW258992   2.607   5.977   2.908
15780SOL     OW58993   7.159   0.027   3.242
15780SOL    HW158994   7.162   0.012   3.341
15780SOL    HW258995   7.224   0.100   3.218
15781SOL     OW58996   2.953   8.756   6.529
15781SOL    HW158997   3.012   8.825   6.571
15781SOL    HW258998   2.858   8.775   6.552
15782SOL     OW58999   6.979   7.808   3.889
15782SOL    HW159000   6.882   7.803   3.911
15782SOL    HW259001   7.011   7.902   3.899
15783SOL     OW59002   2.174   5.693   7.035
15783SOL    HW159003   2.211   5.783   7.061
15783SOL    HW259004   2.246   5.638   6.995
15784SOL     OW59005   1.776   9.424   2.817
15784SOL    HW159006   1.764   9.378   2.905
15784SOL    HW259007   1.859   9.480   2.820
15785SOL     OW59008   0.186   2.734   5.884
15785SOL    HW159009   0.243   2.786   5.820
15785SOL    HW259010   0.207   2.762   5.978
15786SOL     OW59011   5.052   9.551   5.781
15786SOL    HW159012   4.956   9.531   5.763
15786SOL    HW259013   5.059   9.631   5.841
15787SOL     OW59014   8.692   0.497   7.752
15787SOL    HW159015   8.676   0.459   7.843
15787SOL    HW259016   8.615   0.553   7.724
15788SOL     OW59017   4.561   3.576   0.800
15788SOL    HW159018   4.588   3.488   0.763
15788SOL    HW259019   4.632   3.611   0.861
15789SOL     OW59020   3.648   4.317   1.215
15789SOL    HW159021   3.713   4.380   1.172
15789SOL    HW259022   3.568   4.367   1.247
15790SOL     OW59023   2.014   1.656   5.026
15790SOL    HW159024   1.984   1.712   4.949
15790SOL    HW259025   1.955   1.673   5.105
15791SOL     OW59026   4.150   2.934   5.015
15791SOL    HW159027   4.224   2.999   5.000
15791SOL    HW259028   4.063   2.976   4.986
15792SOL     OW59029   2.706   4.528   0.246
15792SOL    HW159030   2.708   4.492   0.340
15792SOL    HW259031   2.759   4.467   0.186
15793SOL     OW59032   3.545   4.163   2.096
15793SOL    HW159033   3.470   4.174   2.031
15793SOL    HW259034   3.611   4.237   2.083
15794SOL     OW59035   6.411   4.844   1.652
15794SOL    HW159036   6.464   4.928   1.667
15794SOL    HW259037   6.472   4.765   1.655
15795SOL     OW59038   7.561   1.284   2.435
15795SOL    HW159039   7.593   1.333   2.516
15795SOL    HW259040   7.640   1.257   2.380
15796SOL     OW59041   8.346   5.770   4.858
15796SOL    HW159042   8.410   5.714   4.909
15796SOL    HW259043   8.301   5.835   4.920
15797SOL     OW59044   9.494   6.675   6.906
15797SOL    HW159045   9.473   6.658   7.002
15797SOL    HW259046   9.410   6.703   6.859
15798SOL     OW59047   8.699   1.291   6.245
15798SOL    HW159048   8.610   1.254   6.221
15798SOL    HW259049   8.771   1.233   6.205
15799SOL     OW59050   3.086   3.361   0.125
15799SOL    HW159051   3.077   3.264   0.103
15799SOL    HW259052   3.182   3.384   0.137
15800SOL     OW59053   9.346   0.202   7.002
15800SOL    HW159054   9.349   0.103   7.016
15800SOL    HW259055   9.394   0.226   6.918
15801SOL     OW59056   9.444   8.819   3.295
15801SOL    HW159057   9.394   8.740   3.259
15801SOL    HW259058   9.454   8.809   3.394
15802SOL     OW59059   5.541   0.534   2.574
15802SOL    HW159060   5.471   0.542   2.645
15802SOL    HW259061   5.582   0.443   2.577
15803SOL     OW59062   1.083   4.018   4.501
15803SOL    HW159063   1.100   3.968   4.586
15803SOL    HW259064   0.988   4.004   4.471
15804SOL     OW59065   1.031   4.938   5.151
15804SOL    HW159066   1.079   4.910   5.233
15804SOL    HW259067   0.954   4.877   5.134
15805SOL     OW59068   5.020   4.505   6.857
15805SOL    HW159069   5.104   4.542   6.897
15805SOL    HW259070   4.986   4.568   6.787
15806SOL     OW59071   4.382   0.723   3.206
15806SOL    HW159072   4.299   0.775   3.190
15806SOL    HW259073   4.448   0.779   3.257
15807SOL     OW59074   2.455   7.662   7.442
15807SOL    HW159075   2.416   7.744   7.483
15807SOL    HW259076   2.386   7.616   7.386
15808SOL     OW59077   2.932   0.574   6.274
15808SOL    HW159078   2.893   0.637   6.341
15808SOL    HW259079   2.879   0.578   6.190
15809SOL     OW59080   9.094   0.583   3.866
15809SOL    HW159081   9.078   0.564   3.769
15809SOL    HW259082   9.106   0.497   3.915
15810SOL     OW59083   6.409   9.786   3.776
15810SOL    HW159084   6.404   9.874   3.822
15810SOL    HW259085   6.347   9.787   3.697
15811SOL     OW59086   8.814   2.240   3.380
15811SOL    HW159087   8.821   2.213   3.476
15811SOL    HW259088   8.805   2.158   3.323
15812SOL     OW59089   6.997   1.031   2.133
15812SOL    HW159090   6.922   0.966   2.123
15812SOL    HW259091   7.084   0.986   2.111
15813SOL     OW59092   4.423   0.491   6.185
15813SOL    HW159093   4.520   0.483   6.209
15813SOL    HW259094   4.368   0.434   6.246
15814SOL     OW59095   6.879   2.013   5.893
15814SOL    HW159096   6.929   2.086   5.847
15814SOL    HW259097   6.934   1.929   5.893
15815SOL     OW59098   9.059   0.019   4.758
15815SOL    HW159099   9.086   0.064   4.843
15815SOL    HW259100   9.098   0.068   4.680
15816SOL     OW59101   8.835   5.238   4.220
15816SOL    HW159102   8.817   5.326   4.264
15816SOL    HW259103   8.776   5.228   4.140
15817SOL     OW59104   9.178   3.628   4.552
15817SOL    HW159105   9.137   3.609   4.463
15817SOL    HW259106   9.182   3.727   4.567
15818SOL     OW59107   9.705   1.787   0.435
15818SOL    HW159108   9.800   1.786   0.467
15818SOL    HW259109   9.684   1.699   0.390
15819SOL     OW59110   3.423   8.921   0.362
15819SOL    HW159111   3.428   9.021   0.357
15819SOL    HW259112   3.425   8.892   0.458
15820SOL     OW59113   3.628   6.712   4.251
15820SOL    HW159114   3.538   6.756   4.264
15820SOL    HW259115   3.699   6.783   4.251
15821SOL     OW59116   7.093   3.373   3.791
15821SOL    HW159117   7.059   3.312   3.863
15821SOL    HW259118   7.140   3.450   3.833
15822SOL     OW59119   3.597   6.530   2.948
15822SOL    HW159120   3.575   6.434   2.965
15822SOL    HW259121   3.567   6.554   2.855
15823SOL     OW59122   8.386   1.839   6.853
15823SOL    HW159123   8.476   1.825   6.894
15823SOL    HW259124   8.391   1.823   6.754
15824SOL     OW59125   8.097   3.429   4.530
15824SOL    HW159126   8.063   3.398   4.441
15824SOL    HW259127   8.048   3.512   4.557
15825SOL     OW59128   2.449   7.017   3.691
15825SOL    HW159129   2.525   7.032   3.627
15825SOL    HW259130   2.368   6.988   3.640
15826SOL     OW59131   7.526   0.054   3.104
15826SOL    HW159132   7.463   9.992   3.058
15826SOL    HW259133   7.606   0.003   3.136
15827SOL     OW59134   5.827   9.309   5.290
15827SOL    HW159135   5.909   9.366   5.297
15827SOL    HW259136   5.852   9.218   5.257
15828SOL     OW59137   3.164   9.799   0.895
15828SOL    HW159138   3.182   9.884   0.945
15828SOL    HW259139   3.095   9.746   0.945
15829SOL     OW59140   0.037   1.099   3.961
15829SOL    HW159141   0.060   1.057   4.049
15829SOL    HW259142   9.937   1.107   3.953
15830SOL     OW59143   3.033   7.580   5.334
15830SOL    HW159144   2.991   7.660   5.292
15830SOL    HW259145   3.114   7.608   5.385
15831SOL     OW59146   1.701   1.793   2.635
15831SOL    HW159147   1.728   1.749   2.549
15831SOL    HW259148   1.604   1.816   2.631
15832SOL     OW59149   5.314   2.228   7.124
15832SOL    HW159150   5.388   2.179   7.170
15832SOL    HW259151   5.247   2.259   7.192
15833SOL     OW59152   7.848   9.224   5.205
15833SOL    HW159153   7.881   9.264   5.291
15833SOL    HW259154   7.794   9.292   5.156
15834SOL     OW59155   3.583   1.515   0.848
15834SOL    HW159156   3.551   1.441   0.907
15834SOL    HW259157   3.549   1.500   0.755
15835SOL     OW59158   2.398   2.752   7.758
15835SOL    HW159159   2.300   2.767   7.746
15835SOL    HW259160   2.449   2.811   7.696
15836SOL     OW59161   2.754   8.720   3.556
15836SOL    HW159162   2.798   8.756   3.473
15836SOL    HW259163   2.695   8.643   3.531
15837SOL     OW59164   6.642   5.542   7.080
15837SOL    HW159165   6.666   5.452   7.043
15837SOL    HW259166   6.644   5.609   7.007
15838SOL     OW59167   7.940   8.798   4.089
15838SOL    HW159168   8.010   8.808   4.018
15838SOL    HW259169   7.929   8.701   4.112
15839SOL     OW59170   0.364   7.191   2.815
15839SOL    HW159171   0.315   7.267   2.857
15839SOL    HW259172   0.381   7.211   2.719
15840SOL     OW59173   8.956   1.810   1.022
15840SOL    HW159174   9.008   1.866   1.086
15840SOL    HW259175   8.984   1.831   0.928
15841SOL     OW59176   9.810   9.202   6.678
15841SOL    HW159177   9.740   9.194   6.749
15841SOL    HW259178   9.784   9.147   6.599
15842SOL     OW59179   8.583   1.744   1.026
15842SOL    HW159180   8.668   1.711   1.068
15842SOL    HW259181   8.508   1.682   1.049
15843SOL     OW59182   8.342   9.309   4.427
15843SOL    HW159183   8.337   9.365   4.344
15843SOL    HW259184   8.434   9.271   4.436
15844SOL     OW59185   8.156   6.353   5.313
15844SOL    HW159186   8.093   6.319   5.243
15844SOL    HW259187   8.221   6.281   5.336
15845SOL     OW59188   1.101   0.838   7.399
15845SOL    HW159189   1.167   0.771   7.434
15845SOL    HW259190   1.035   0.860   7.471
15846SOL     OW59191   5.869   1.646   4.706
15846SOL    HW159192   5.899   1.733   4.667
15846SOL    HW259193   5.769   1.642   4.706
15847SOL     OW59194   6.358   1.306   5.596
15847SOL    HW159195   6.282   1.371   5.589
15847SOL    HW259196   6.353   1.258   5.683
15848SOL     OW59197   5.220   9.330   5.763
15848SOL    HW159198   5.165   9.413   5.767
15848SOL    HW259199   5.311   9.348   5.799
15849SOL     OW59200   3.547   0.138   4.403
15849SOL    HW159201   3.508   0.057   4.447
15849SOL    HW259202   3.564   0.209   4.471
15850SOL     OW59203   4.498   4.137   7.533
15850SOL    HW159204   4.417   4.194   7.519
15850SOL    HW259205   4.574   4.194   7.566
15851SOL     OW59206   9.273   1.554   7.090
15851SOL    HW159207   9.336   1.613   7.141
15851SOL    HW259208   9.288   1.566   6.992
15852SOL     OW59209   7.730   8.599   1.578
15852SOL    HW159210   7.648   8.579   1.631
15852SOL    HW259211   7.783   8.515   1.565
15853SOL     OW59212   2.647   8.901   1.254
15853SOL    HW159213   2.596   8.840   1.315
15853SOL    HW259214   2.628   8.877   1.159
15854SOL     OW59215   4.698   1.685   5.943
15854SOL    HW159216   4.733   1.732   5.861
15854SOL    HW259217   4.701   1.586   5.929
15855SOL     OW59218   8.205   4.069   6.919
15855SOL    HW159219   8.178   3.997   6.983
15855SOL    HW259220   8.282   4.038   6.864
15856SOL     OW59221   8.909   7.419   1.155
15856SOL    HW159222   8.900   7.508   1.201
15856SOL    HW259223   8.868   7.348   1.213
15857SOL     OW59224   7.222   2.069   3.042
15857SOL    HW159225   7.229   2.021   3.130
15857SOL    HW259226   7.300   2.130   3.031
15858SOL     OW59227   1.247   1.343   6.832
15858SOL    HW159228   1.241   1.252   6.873
15858SOL    HW259229   1.192   1.344   6.748
15859SOL     OW59230   1.765   5.484   1.783
15859SOL    HW159231   1.721   5.395   1.793
15859SOL    HW259232   1.733   5.546   1.855
15860SOL     OW59233   1.062   8.915   1.662
15860SOL    HW159234   0.975   8.865   1.654
15860SOL    HW259235   1.107   8.889   1.748
15861SOL     OW59236   2.902   0.005   6.380
15861SOL    HW159237   2.866   9.934   6.320
15861SOL    HW259238   2.976   0.054   6.332
15862SOL     OW59239   1.950   2.945   2.553
15862SOL    HW159240   1.881   2.966   2.623
15862SOL    HW259241   1.944   3.014   2.480
15863SOL     OW59242   6.598   7.568   2.640
15863SOL    HW159243   6.651   7.483   2.650
15863SOL    HW259244   6.659   7.646   2.652
15864SOL     OW59245   9.235   4.265   5.396
15864SOL    HW159246   9.241   4.333   5.322
15864SOL    HW259247   9.204   4.310   5.480
15865SOL     OW59248   3.348   3.933   3.315
15865SOL    HW159249   3.394   3.982   3.240
15865SOL    HW259250   3.414   3.872   3.360
15866SOL     OW59251   3.806   0.519   0.705
15866SOL    HW159252   3.807   0.481   0.612
15866SOL    HW259253   3.879   0.587   0.714
15867SOL     OW59254   1.715   0.963   5.579
15867SOL    HW159255   1.757   1.038   5.629
15867SOL    HW259256   1.688   0.891   5.643
15868SOL     OW59257   1.796   5.334   3.387
15868SOL    HW159258   1.706   5.292   3.373
15868SOL    HW259259   1.866   5.262   3.387
15869SOL     OW59260   8.903   2.933   4.664
15869SOL    HW159261   8.942   2.845   4.692
15869SOL    HW259262   8.813   2.918   4.623
15870SOL     OW59263   0.921   1.316   5.590
15870SOL    HW159264   0.977   1.244   5.550
15870SOL    HW259265   0.902   1.295   5.686
15871SOL     OW59266   9.595   0.152   6.112
15871SOL    HW159267   9.619   0.055   6.113
15871SOL    HW259268   9.600   0.186   6.018
15872SOL     OW59269   3.461   1.560   6.905
15872SOL    HW159270   3.512   1.477   6.927
15872SOL    HW259271   3.385   1.537   6.845
15873SOL     OW59272   2.755   3.410   6.062
15873SOL    HW159273   2.853   3.407   6.084
15873SOL    HW259274   2.743   3.443   5.968
15874SOL     OW59275   6.546   1.754   1.319
15874SOL    HW159276   6.575   1.757   1.224
15874SOL    HW259277   6.546   1.659   1.351
15875SOL     OW59278   7.131   8.938   6.073
15875SOL    HW159279   7.163   8.944   6.168
15875SOL    HW259280   7.202   8.973   6.011
15876SOL     OW59281   5.545   9.588   3.472
15876SOL    HW159282   5.582   9.669   3.428
15876SOL    HW259283   5.586   9.506   3.430
15877SOL     OW59284   3.904   5.586   3.399
15877SOL    HW159285   3.977   5.545   3.345
15877SOL    HW259286   3.906   5.549   3.492
15878SOL     OW59287   5.339   5.953   0.350
15878SOL    HW159288   5.352   6.018   0.424
15878SOL    HW259289   5.315   5.863   0.387
15879SOL     OW59290   3.105   6.641   4.877
15879SOL    HW159291   3.052   6.578   4.820
15879SOL    HW259292   3.202   6.620   4.867
15880SOL     OW59293   1.376   8.421   5.671
15880SOL    HW159294   1.378   8.520   5.684
15880SOL    HW259295   1.438   8.396   5.598
15881SOL     OW59296   1.330   9.257   2.047
15881SOL    HW159297   1.259   9.188   2.034
15881SOL    HW259298   1.297   9.346   2.015
15882SOL     OW59299   8.481   0.438   3.564
15882SOL    HW159300   8.552   0.506   3.584
15882SOL    HW259301   8.524   0.355   3.526
15883SOL     OW59302   1.012   9.585   7.294
15883SOL    HW159303   0.957   9.642   7.233
15883SOL    HW259304   1.104   9.622   7.300
15884SOL     OW59305   2.007   7.969   4.051
15884SOL    HW159306   1.949   8.051   4.054
15884SOL    HW259307   2.039   7.955   3.957
15885SOL     OW59308   2.794   0.351   7.788
15885SOL    HW159309   2.808   0.446   7.816
15885SOL    HW259310   2.702   0.321   7.817
15886SOL     OW59311   8.033   6.020   3.632
15886SOL    HW159312   8.017   5.921   3.626
15886SOL    HW259313   8.129   6.037   3.656
15887SOL     OW59314   6.992   0.394   6.848
15887SOL    HW159315   6.963   0.305   6.883
15887SOL    HW259316   7.087   0.390   6.819
15888SOL     OW59317   6.300   1.967   3.868
15888SOL    HW159318   6.285   2.027   3.789
15888SOL    HW259319   6.263   2.010   3.950
15889SOL     OW59320   7.744   9.255   4.036
15889SOL    HW159321   7.793   9.206   3.964
15889SOL    HW259322   7.790   9.342   4.054
15890SOL     OW59323   9.567   9.527   3.034
15890SOL    HW159324   9.608   9.494   3.119
15890SOL    HW259325   9.469   9.511   3.036
15891SOL     OW59326   6.314   9.222   4.263
15891SOL    HW159327   6.314   9.183   4.355
15891SOL    HW259328   6.340   9.152   4.196
15892SOL     OW59329   6.615   8.731   7.295
15892SOL    HW159330   6.606   8.637   7.328
15892SOL    HW259331   6.538   8.785   7.329
15893SOL     OW59332   1.920   8.362   4.385
15893SOL    HW159333   1.911   8.380   4.483
15893SOL    HW259334   1.844   8.406   4.336
15894SOL     OW59335   2.144   6.069   1.837
15894SOL    HW159336   2.230   6.089   1.789
15894SOL    HW259337   2.082   6.147   1.828
15895SOL     OW59338   8.913   4.852   3.544
15895SOL    HW159339   8.902   4.850   3.444
15895SOL    HW259340   8.941   4.761   3.575
15896SOL     OW59341   4.480   8.701   7.183
15896SOL    HW159342   4.526   8.754   7.255
15896SOL    HW259343   4.535   8.704   7.100
15897SOL     OW59344   8.978   8.950   7.571
15897SOL    HW159345   9.030   8.872   7.535
15897SOL    HW259346   8.913   8.981   7.502
15898SOL     OW59347   2.898   7.306   7.824
15898SOL    HW159348   2.884   7.208   7.839
15898SOL    HW259349   2.992   7.330   7.849
15899SOL     OW59350   8.616   9.561   6.924
15899SOL    HW159351   8.644   9.476   6.879
15899SOL    HW259352   8.521   9.552   6.954
15900SOL     OW59353   2.410   0.645   0.387
15900SOL    HW159354   2.420   0.693   0.474
15900SOL    HW259355   2.500   0.625   0.349
15901SOL     OW59356   8.947   5.172   1.232
15901SOL    HW159357   8.981   5.261   1.263
15901SOL    HW259358   8.972   5.158   1.136
15902SOL     OW59359   7.732   6.020   5.367
15902SOL    HW159360   7.697   5.967   5.444
15902SOL    HW259361   7.689   6.110   5.366
15903SOL     OW59362   8.483   5.049   4.681
15903SOL    HW159363   8.473   4.971   4.619
15903SOL    HW259364   8.576   5.052   4.717
15904SOL     OW59365   0.736   7.774   6.832
15904SOL    HW159366   0.711   7.870   6.844
15904SOL    HW259367   0.835   7.765   6.837
15905SOL     OW59368   6.754   4.438   1.073
15905SOL    HW159369   6.717   4.530   1.086
15905SOL    HW259370   6.749   4.387   1.159
15906SOL     OW59371   2.640   9.711   4.318
15906SOL    HW159372   2.582   9.789   4.340
15906SOL    HW259373   2.736   9.736   4.329
15907SOL     OW59374   3.202   3.857   7.647
15907SOL    HW159375   3.167   3.891   7.560
15907SOL    HW259376   3.283   3.800   7.631
15908SOL     OW59377   3.764   5.870   1.307
15908SOL    HW159378   3.829   5.946   1.310
15908SOL    HW259379   3.674   5.902   1.338
15909SOL     OW59380   7.702   8.909   6.849
15909SOL    HW159381   7.799   8.892   6.865
15909SOL    HW259382   7.651   8.824   6.859
15910SOL     OW59383   0.107   2.269   3.115
15910SOL    HW159384   0.025   2.282   3.171
15910SOL    HW259385   0.135   2.174   3.119
15911SOL     OW59386   4.895   6.072   0.708
15911SOL    HW159387   4.872   5.974   0.708
15911SOL    HW259388   4.993   6.083   0.723
15912SOL     OW59389   0.233   1.005   0.177
15912SOL    HW159390   0.148   1.042   0.140
15912SOL    HW259391   0.256   1.054   0.261
15913SOL     OW59392   7.423   0.570   2.469
15913SOL    HW159393   7.442   0.539   2.376
15913SOL    HW259394   7.459   0.663   2.481
15914SOL     OW59395   2.332   6.560   1.957
15914SOL    HW159396   2.272   6.627   2.002
15914SOL    HW259397   2.322   6.569   1.858
15915SOL     OW59398   1.142   6.566   1.449
15915SOL    HW159399   1.211   6.618   1.500
15915SOL    HW259400   1.095   6.626   1.385
15916SOL     OW59401   7.418   2.974   0.525
15916SOL    HW159402   7.477   2.942   0.451
15916SOL    HW259403   7.342   2.909   0.537
15917SOL     OW59404   2.266   4.117   1.328
15917SOL    HW159405   2.284   4.160   1.240
15917SOL    HW259406   2.247   4.188   1.396
15918SOL     OW59407   7.243   7.509   2.999
15918SOL    HW159408   7.267   7.417   3.031
15918SOL    HW259409   7.231   7.508   2.900
15919SOL     OW59410   2.444   6.073   1.140
15919SOL    HW159411   2.473   6.005   1.073
15919SOL    HW259412   2.475   6.044   1.231
15920SOL     OW59413   0.089   9.306   2.230
15920SOL    HW159414   0.131   9.280   2.143
15920SOL    HW259415   9.992   9.323   2.216
15921SOL     OW59416   1.277   5.298   5.821
15921SOL    HW159417   1.245   5.220   5.768
15921SOL    HW259418   1.252   5.285   5.917
15922SOL     OW59419   1.117   2.605   5.203
15922SOL    HW159420   1.020   2.621   5.220
15922SOL    HW259421   1.172   2.655   5.270
15923SOL     OW59422   8.385   2.202   5.080
15923SOL    HW159423   8.336   2.165   5.001
15923SOL    HW259424   8.472   2.154   5.090
15924SOL     OW59425   9.340   6.587   5.041
15924SOL    HW159426   9.280   6.571   4.962
15924SOL    HW259427   9.328   6.511   5.106
15925SOL     OW59428   4.071   5.735   3.728
15925SOL    HW159429   4.040   5.774   3.815
15925SOL    HW259430   4.095   5.808   3.664
15926SOL     OW59431   0.103   9.279   0.500
15926SOL    HW159432   0.149   9.191   0.516
15926SOL    HW259433   0.155   9.352   0.543
15927SOL     OW59434   8.718   1.982   2.664
15927SOL    HW159435   8.741   1.940   2.752
15927SOL    HW259436   8.790   1.962   2.598
15928SOL     OW59437   3.458   6.808   1.120
15928SOL    HW159438   3.493   6.895   1.086
15928SOL    HW259439   3.385   6.825   1.186
15929SOL     OW59440   7.490   0.509   7.778
15929SOL    HW159441   7.425   0.433   7.783
15929SOL    HW259442   7.453   0.588   7.826
15930SOL     OW59443   3.635   3.546   7.696
15930SOL    HW159444   3.684   3.624   7.735
15930SOL    HW259445   3.552   3.578   7.649
15931SOL     OW59446   5.805   8.600   2.574
15931SOL    HW159447   5.724   8.652   2.601
15931SOL    HW259448   5.881   8.622   2.636
15932SOL     OW59449   4.442   7.901   4.561
15932SOL    HW159450   4.350   7.938   4.552
15932SOL    HW259451   4.460   7.879   4.657
15933SOL     OW59452   9.568   1.919   5.349
15933SOL    HW159453   9.517   1.905   5.265
15933SOL    HW259454   9.563   1.836   5.405
15934SOL     OW59455   1.440   6.900   3.989
15934SOL    HW159456   1.394   6.919   4.075
15934SOL    HW259457   1.514   6.835   4.004
15935SOL     OW59458   2.551   5.826   7.812
15935SOL    HW159459   2.640   5.808   7.854
15935SOL    HW259460   2.550   5.919   7.775
15936SOL     OW59461   6.843   0.829   2.405
15936SOL    HW159462   6.786   0.817   2.487
15936SOL    HW259463   6.925   0.773   2.413
15937SOL     OW59464   3.704   9.514   0.977
15937SOL    HW159465   3.685   9.520   0.879
15937SOL    HW259466   3.721   9.606   1.013
15938SOL     OW59467   4.580   8.254   4.039
15938SOL    HW159468   4.527   8.214   4.113
15938SOL    HW259469   4.677   8.250   4.061
15939SOL     OW59470   3.186   7.117   7.729
15939SOL    HW159471   3.126   7.139   7.652
15939SOL    HW259472   3.185   7.192   7.795
15940SOL     OW59473   1.733   1.269   3.349
15940SOL    HW159474   1.652   1.324   3.366
15940SOL    HW259475   1.755   1.217   3.432
15941SOL     OW59476   1.539   8.648   2.853
15941SOL    HW159477   1.498   8.700   2.928
15941SOL    HW259478   1.598   8.708   2.799
15942SOL     OW59479   5.391   9.364   6.286
15942SOL    HW159480   5.431   9.438   6.231
15942SOL    HW259481   5.431   9.365   6.377
15943SOL     OW59482   0.990   5.992   3.928
15943SOL    HW159483   0.978   5.977   4.026
15943SOL    HW259484   0.951   5.915   3.878
15944SOL     OW59485   2.344   9.818   0.850
15944SOL    HW159486   2.249   9.847   0.855
15944SOL    HW259487   2.351   9.734   0.797
15945SOL     OW59488   8.285   0.460   2.788
15945SOL    HW159489   8.206   0.511   2.823
15945SOL    HW259490   8.316   0.502   2.702
15946SOL     OW59491   2.268   3.680   7.512
15946SOL    HW159492   2.339   3.737   7.470
15946SOL    HW259493   2.202   3.652   7.442
15947SOL     OW59494   1.622   0.414   1.904
15947SOL    HW159495   1.648   0.334   1.957
15947SOL    HW259496   1.587   0.485   1.966
15948SOL     OW59497   0.730   9.402   3.649
15948SOL    HW159498   0.782   9.445   3.575
15948SOL    HW259499   0.755   9.444   3.736
15949SOL     OW59500   8.029   9.265   4.285
15949SOL    HW159501   8.063   9.287   4.193
15949SOL    HW259502   8.009   9.167   4.290
15950SOL     OW59503   9.278   6.216   0.863
15950SOL    HW159504   9.368   6.176   0.881
15950SOL    HW259505   9.288   6.295   0.803
15951SOL     OW59506   8.647   7.852   1.677
15951SOL    HW159507   8.709   7.916   1.633
15951SOL    HW259508   8.632   7.773   1.617
15952SOL     OW59509   3.167   9.968   2.807
15952SOL    HW159510   3.170   0.064   2.835
15952SOL    HW259511   3.209   9.911   2.878
15953SOL     OW59512   7.681   9.753   5.361
15953SOL    HW159513   7.760   9.738   5.421
15953SOL    HW259514   7.673   9.851   5.341
15954SOL     OW59515   0.636   0.627   4.227
15954SOL    HW159516   0.628   0.679   4.142
15954SOL    HW259517   0.730   0.633   4.261
15955SOL     OW59518   9.725   4.515   0.888
15955SOL    HW159519   9.682   4.560   0.966
15955SOL    HW259520   9.803   4.570   0.856
15956SOL     OW59521   4.319   8.376   1.631
15956SOL    HW159522   4.262   8.306   1.674
15956SOL    HW259523   4.294   8.466   1.667
15957SOL     OW59524   8.239   9.111   1.343
15957SOL    HW159525   8.266   9.015   1.343
15957SOL    HW259526   8.276   9.156   1.262
15958SOL     OW59527   9.795   5.173   3.929
15958SOL    HW159528   9.855   5.232   3.984
15958SOL    HW259529   9.848   5.096   3.894
15959SOL     OW59530   2.395   9.278   3.579
15959SOL    HW159531   2.378   9.359   3.636
15959SOL    HW259532   2.335   9.281   3.499
15960SOL     OW59533   4.037   0.585   7.169
15960SOL    HW159534   4.095   0.516   7.126
15960SOL    HW259535   4.077   0.676   7.156
15961SOL     OW59536   7.829   6.569   3.099
15961SOL    HW159537   7.755   6.544   3.160
15961SOL    HW259538   7.813   6.528   3.009
15962SOL     OW59539   7.094   9.977   7.836
15962SOL    HW159540   7.064   0.014   7.749
15962SOL    HW259541   7.039   0.016   7.910
15963SOL     OW59542   2.345   8.496   2.182
15963SOL    HW159543   2.422   8.470   2.125
15963SOL    HW259544   2.360   8.464   2.275
15964SOL     OW59545   9.454   6.987   5.033
15964SOL    HW159546   9.378   6.965   5.095
15964SOL    HW259547   9.502   6.903   5.008
15965SOL     OW59548   0.563   5.121   2.258
15965SOL    HW159549   0.612   5.192   2.207
15965SOL    HW259550   0.534   5.049   2.196
15966SOL     OW59551   8.065   3.167   4.995
15966SOL    HW159552   8.157   3.163   4.957
15966SOL    HW259553   8.022   3.077   4.989
15967SOL     OW59554   8.949   4.743   1.192
15967SOL    HW159555   8.898   4.777   1.113
15967SOL    HW259556   8.949   4.813   1.264
15968SOL     OW59557   7.859   6.556   3.941
15968SOL    HW159558   7.792   6.501   3.990
15968SOL    HW259559   7.871   6.520   3.848
15969SOL     OW59560   1.706   9.830   1.988
15969SOL    HW159561   1.721   9.768   2.064
15969SOL    HW259562   1.693   9.778   1.904
15970SOL     OW59563   2.054   5.789   6.272
15970SOL    HW159564   2.028   5.882   6.299
15970SOL    HW259565   2.150   5.774   6.294
15971SOL     OW59566   9.027   3.858   0.741
15971SOL    HW159567   9.003   3.936   0.799
15971SOL    HW259568   9.022   3.886   0.645
15972SOL     OW59569   3.405   6.683   3.116
15972SOL    HW159570   3.320   6.635   3.092
15972SOL    HW259571   3.479   6.649   3.059
15973SOL     OW59572   3.504   1.288   1.005
15973SOL    HW159573   3.426   1.301   1.066
15973SOL    HW259574   3.484   1.216   0.939
15974SOL     OW59575   1.067   6.206   3.224
15974SOL    HW159576   1.103   6.158   3.144
15974SOL    HW259577   1.141   6.220   3.290
15975SOL     OW59578   9.586   4.477   5.917
15975SOL    HW159579   9.662   4.510   5.861
15975SOL    HW259580   9.612   4.391   5.961
15976SOL     OW59581   1.801   0.047   4.920
15976SOL    HW159582   1.795   0.143   4.891
15976SOL    HW259583   1.896   0.027   4.947
15977SOL     OW59584   0.702   7.757   1.300
15977SOL    HW159585   0.694   7.714   1.211
15977SOL    HW259586   0.784   7.815   1.303
15978SOL     OW59587   3.651   7.500   4.038
15978SOL    HW159588   3.630   7.597   4.053
15978SOL    HW259589   3.595   7.466   3.962
15979SOL     OW59590   1.601   7.501   4.540
15979SOL    HW159591   1.649   7.441   4.476
15979SOL    HW259592   1.586   7.454   4.626
15980SOL     OW59593   4.337   1.017   4.775
15980SOL    HW159594   4.241   1.044   4.772
15980SOL    HW259595   4.395   1.098   4.773
15981SOL     OW59596   0.932   7.238   5.499
15981SOL    HW159597   0.926   7.336   5.521
15981SOL    HW259598   0.871   7.187   5.560
15982SOL     OW59599   7.284   6.407   7.583
15982SOL    HW159600   7.359   6.398   7.650
15982SOL    HW259601   7.316   6.460   7.505
15983SOL     OW59602   5.140   8.894   2.007
15983SOL    HW159603   5.207   8.966   2.021
15983SOL    HW259604   5.069   8.926   1.944
15984SOL     OW59605   3.241   7.827   6.139
15984SOL    HW159606   3.322   7.883   6.155
15984SOL    HW259607   3.249   7.781   6.050
15985SOL     OW59608   2.456   7.601   4.166
15985SOL    HW159609   2.481   7.660   4.089
15985SOL    HW259610   2.449   7.506   4.134
15986SOL     OW59611   2.923   0.961   2.975
15986SOL    HW159612   2.905   1.060   2.976
15986SOL    HW259613   2.929   0.930   2.880
15987SOL     OW59614   2.672   2.782   3.938
15987SOL    HW159615   2.584   2.830   3.938
15987SOL    HW259616   2.728   2.817   4.014
15988SOL     OW59617   0.415   9.495   0.997
15988SOL    HW159618   0.398   9.559   1.072
15988SOL    HW259619   0.512   9.499   0.971
15989SOL     OW59620   7.901   9.413   1.325
15989SOL    HW159621   7.942   9.326   1.353
15989SOL    HW259622   7.829   9.437   1.391
15990SOL     OW59623   1.141   3.838   5.564
15990SOL    HW159624   1.098   3.817   5.477
15990SOL    HW259625   1.146   3.937   5.575
15991SOL     OW59626   3.182   0.891   3.053
15991SOL    HW159627   3.192   0.794   3.030
15991SOL    HW259628   3.088   0.920   3.034
15992SOL     OW59629   1.210   4.578   3.707
15992SOL    HW159630   1.129   4.523   3.689
15992SOL    HW259631   1.204   4.619   3.798
15993SOL     OW59632   9.527   8.437   0.872
15993SOL    HW159633   9.546   8.339   0.877
15993SOL    HW259634   9.570   8.476   0.791
15994SOL     OW59635   2.695   0.160   5.791
15994SOL    HW159636   2.600   0.133   5.808
15994SOL    HW259637   2.752   0.078   5.784
15995SOL     OW59638   3.056   8.971   1.484
15995SOL    HW159639   2.998   9.037   1.532
15995SOL    HW259640   3.149   9.008   1.475
15996SOL     OW59641   8.710   0.255   7.605
15996SOL    HW159642   8.784   0.211   7.656
15996SOL    HW259643   8.703   0.350   7.633
15997SOL     OW59644   5.275   5.284   1.649
15997SOL    HW159645   5.265   5.185   1.664
15997SOL    HW259646   5.223   5.333   1.719
15998SOL     OW59647   8.269   8.925   5.803
15998SOL    HW159648   8.251   8.853   5.736
15998SOL    HW259649   8.291   8.883   5.891
15999SOL     OW59650   8.681   5.255   3.991
15999SOL    HW159651   8.716   5.198   3.917
15999SOL    HW259652   8.586   5.280   3.972
16000SOL     OW59653   2.566   6.155   0.338
16000SOL    HW159654   2.567   6.211   0.421
16000SOL    HW259655   2.660   6.128   0.316
16001SOL     OW59656   7.153   7.593   3.902
16001SOL    HW159657   7.241   7.622   3.938
16001SOL    HW259658   7.087   7.668   3.912
16002SOL     OW59659   8.107   3.673   1.923
16002SOL    HW159660   8.056   3.638   2.002
16002SOL    HW259661   8.163   3.750   1.952
16003SOL     OW59662   0.630   1.692   5.011
16003SOL    HW159663   0.567   1.749   5.064
16003SOL    HW259664   0.720   1.735   5.008
16004SOL     OW59665   2.142   9.264   4.833
16004SOL    HW159666   2.120   9.325   4.757
16004SOL    HW259667   2.067   9.200   4.848
16005SOL     OW59668   1.140   0.329   7.131
16005SOL    HW159669   1.064   0.388   7.104
16005SOL    HW259670   1.206   0.382   7.183
16006SOL     OW59671   1.016   7.352   1.457
16006SOL    HW159672   1.074   7.273   1.437
16006SOL    HW259673   1.026   7.376   1.554
16007SOL     OW59674   9.459   1.952   3.923
16007SOL    HW159675   9.513   1.890   3.980
16007SOL    HW259676   9.488   1.941   3.827
16008SOL     OW59677   3.441   3.882   6.299
16008SOL    HW159678   3.487   3.945   6.237
16008SOL    HW259679   3.503   3.809   6.326
16009SOL     OW59680   8.100   8.950   6.738
16009SOL    HW159681   8.117   9.027   6.799
16009SOL    HW259682   8.045   8.881   6.785
16010SOL     OW59683   7.992   6.481   5.495
16010SOL    HW159684   8.037   6.490   5.583
16010SOL    HW259685   8.054   6.438   5.429
16011SOL     OW59686   8.976   4.351   3.548
16011SOL    HW159687   8.998   4.313   3.458
16011SOL    HW259688   8.881   4.330   3.571
16012SOL     OW59689   8.732   6.654   1.854
16012SOL    HW159690   8.755   6.710   1.933
16012SOL    HW259691   8.810   6.650   1.791
16013SOL     OW59692   3.339   4.004   4.244
16013SOL    HW159693   3.320   3.946   4.323
16013SOL    HW259694   3.264   4.069   4.231
16014SOL     OW59695   0.730   0.151   1.403
16014SOL    HW159696   0.685   0.069   1.367
16014SOL    HW259697   0.682   0.183   1.484
16015SOL     OW59698   2.845   7.556   3.521
16015SOL    HW159699   2.913   7.548   3.449
16015SOL    HW259700   2.888   7.591   3.604
16016SOL     OW59701   7.996   6.065   7.040
16016SOL    HW159702   7.901   6.055   7.009
16016SOL    HW259703   8.014   5.999   7.113
16017SOL     OW59704   1.843   1.814   3.914
16017SOL    HW159705   1.767   1.853   3.863
16017SOL    HW259706   1.924   1.871   3.903
16018SOL     OW59707   2.918   6.432   2.469
16018SOL    HW159708   2.989   6.438   2.540
16018SOL    HW259709   2.873   6.521   2.460
16019SOL     OW59710   3.311   1.502   2.035
16019SOL    HW159711   3.278   1.595   2.018
16019SOL    HW259712   3.400   1.489   1.991
16020SOL     OW59713   8.533   6.554   0.103
16020SOL    HW159714   8.593   6.485   0.144
16020SOL    HW259715   8.438   6.535   0.128
16021SOL     OW59716   0.492   0.426   2.854
16021SOL    HW159717   0.396   0.415   2.880
16021SOL    HW259718   0.507   0.519   2.820
16022SOL     OW59719   8.368   9.845   6.382
16022SOL    HW159720   8.381   9.760   6.331
16022SOL    HW259721   8.273   9.852   6.411
16023SOL     OW59722   1.805   6.974   6.152
16023SOL    HW159723   1.856   7.058   6.139
16023SOL    HW259724   1.846   6.921   6.227
16024SOL     OW59725   0.603   7.803   7.235
16024SOL    HW159726   0.583   7.846   7.147
16024SOL    HW259727   0.699   7.816   7.258
16025SOL     OW59728   1.049   9.868   6.931
16025SOL    HW159729   0.969   9.809   6.922
16025SOL    HW259730   1.068   9.883   7.028
16026SOL     OW59731   0.407   7.126   4.921
16026SOL    HW159732   0.392   7.057   4.991
16026SOL    HW259733   0.438   7.082   4.836
16027SOL     OW59734   1.668   1.982   6.000
16027SOL    HW159735   1.721   1.986   6.085
16027SOL    HW259736   1.570   1.987   6.021
16028SOL     OW59737   0.402   2.797   6.582
16028SOL    HW159738   0.306   2.778   6.564
16028SOL    HW259739   0.423   2.892   6.555
16029SOL     OW59740   5.622   1.456   4.244
16029SOL    HW159741   5.543   1.513   4.264
16029SOL    HW259742   5.705   1.512   4.242
16030SOL     OW59743   1.068   4.466   2.981
16030SOL    HW159744   1.150   4.495   2.933
16030SOL    HW259745   0.987   4.497   2.931
16031SOL     OW59746   1.565   1.294   2.247
16031SOL    HW159747   1.589   1.198   2.259
16031SOL    HW259748   1.479   1.313   2.295
16032SOL     OW59749   3.338   9.992   2.038
16032SOL    HW159750   3.334   0.061   2.111
16032SOL    HW259751   3.430   9.955   2.031
16033SOL     OW59752   8.969   7.020   1.434
16033SOL    HW159753   9.028   6.940   1.432
16033SOL    HW259754   8.897   7.007   1.503
16034SOL     OW59755   1.762   2.903   2.280
16034SOL    HW159756   1.782   2.988   2.329
16034SOL    HW259757   1.702   2.845   2.335
16035SOL     OW59758   3.507   8.107   7.127
16035SOL    HW159759   3.520   8.031   7.192
16035SOL    HW259760   3.511   8.194   7.176
16036SOL     OW59761   7.512   4.165   3.831
16036SOL    HW159762   7.486   4.092   3.894
16036SOL    HW259763   7.549   4.243   3.882
16037SOL     OW59764   0.190   0.696   2.916
16037SOL    HW159765   0.205   0.723   2.821
16037SOL    HW259766   0.265   0.728   2.973
16038SOL     OW59767   2.095   0.135   0.486
16038SOL    HW159768   2.163   0.073   0.525
16038SOL    HW259769   2.064   0.198   0.557
16039SOL     OW59770   0.457   7.774   3.366
16039SOL    HW159771   0.411   7.861   3.353
16039SOL    HW259772   0.550   7.790   3.398
16040SOL     OW59773   0.561   3.700   2.647
16040SOL    HW159774   0.544   3.644   2.728
16040SOL    HW259775   0.612   3.782   2.673
16041SOL     OW59776   9.038   3.139   4.540
16041SOL    HW159777   8.990   3.069   4.593
16041SOL    HW259778   9.043   3.223   4.593
16042SOL     OW59779   3.766   2.116   7.654
16042SOL    HW159780   3.686   2.162   7.616
16042SOL    HW259781   3.740   2.024   7.684
16043SOL     OW59782   7.188   8.440   4.929
16043SOL    HW159783   7.172   8.466   5.024
16043SOL    HW259784   7.266   8.490   4.893
16044SOL     OW59785   3.425   3.682   7.556
16044SOL    HW159786   3.353   3.613   7.565
16044SOL    HW259787   3.478   3.665   7.472
16045SOL     OW59788   0.323   2.492   5.845
16045SOL    HW159789   0.326   2.437   5.928
16045SOL    HW259790   0.269   2.574   5.860
16046SOL     OW59791   9.097   1.592   2.494
16046SOL    HW159792   9.008   1.637   2.487
16046SOL    HW259793   9.105   1.521   2.424
16047SOL     OW59794   1.131   2.451   2.509
16047SOL    HW159795   1.116   2.363   2.554
16047SOL    HW259796   1.144   2.522   2.578
16048SOL     OW59797   9.894   2.775   7.542
16048SOL    HW159798   9.990   2.751   7.556
16048SOL    HW259799   9.855   2.810   7.627
16049SOL     OW59800   1.131   5.706   5.144
16049SOL    HW159801   1.199   5.777   5.126
16049SOL    HW259802   1.071   5.735   5.219
16050SOL     OW59803   3.328   4.605   0.413
16050SOL    HW159804   3.334   4.552   0.328
16050SOL    HW259805   3.387   4.686   0.406
16051SOL     OW59806   7.917   9.084   5.577
16051SOL    HW159807   7.968   9.009   5.535
16051SOL    HW259808   7.819   9.065   5.571
16052SOL     OW59809   9.196   4.943   1.706
16052SOL    HW159810   9.143   4.884   1.767
16052SOL    HW259811   9.266   4.889   1.660
16053SOL     OW59812   9.776   7.394   1.972
16053SOL    HW159813   9.850   7.329   1.954
16053SOL    HW259814   9.689   7.345   1.972
16054SOL     OW59815   9.570   4.475   3.376
16054SOL    HW159816   9.648   4.525   3.413
16054SOL    HW259817   9.553   4.393   3.432
16055SOL     OW59818   0.187   0.099   7.441
16055SOL    HW159819   0.090   0.079   7.428
16055SOL    HW259820   0.242   0.039   7.382
16056SOL     OW59821   6.950   0.445   7.131
16056SOL    HW159822   6.972   0.468   7.036
16056SOL    HW259823   6.976   0.521   7.190
16057SOL     OW59824   8.140   4.288   1.177
16057SOL    HW159825   8.108   4.346   1.102
16057SOL    HW259826   8.061   4.247   1.222
16058SOL     OW59827   4.409   3.534   3.035
16058SOL    HW159828   4.334   3.594   3.061
16058SOL    HW259829   4.463   3.512   3.116
16059SOL     OW59830   6.331   9.233   6.516
16059SOL    HW159831   6.430   9.221   6.512
16059SOL    HW259832   6.299   9.274   6.431
16060SOL     OW59833   6.275   1.197   6.541
16060SOL    HW159834   6.244   1.247   6.622
16060SOL    HW259835   6.341   1.252   6.491
16061SOL     OW59836   2.577   0.692   6.341
16061SOL    HW159837   2.583   0.595   6.321
16061SOL    HW259838   2.495   0.710   6.395
16062SOL     OW59839   5.559   8.743   2.636
16062SOL    HW159840   5.481   8.801   2.660
16062SOL    HW259841   5.528   8.667   2.579
16063SOL     OW59842   3.754   3.228   0.342
16063SOL    HW159843   3.775   3.179   0.427
16063SOL    HW259844   3.796   3.319   0.345
16064SOL     OW59845   3.624   9.225   6.703
16064SOL    HW159846   3.608   9.235   6.801
16064SOL    HW259847   3.601   9.131   6.675
16065SOL     OW59848   6.605   9.128   4.091
16065SOL    HW159849   6.520   9.075   4.092
16065SOL    HW259850   6.630   9.153   4.184
16066SOL     OW59851   2.657   7.434   3.818
16066SOL    HW159852   2.687   7.530   3.810
16066SOL    HW259853   2.652   7.394   3.727
16067SOL     OW59854   1.348   5.644   2.589
16067SOL    HW159855   1.249   5.644   2.576
16067SOL    HW259856   1.385   5.734   2.569
16068SOL     OW59857   4.288   9.012   4.751
16068SOL    HW159858   4.366   8.972   4.703
16068SOL    HW259859   4.241   8.940   4.803
16069SOL     OW59860   4.239   2.669   1.495
16069SOL    HW159861   4.322   2.725   1.495
16069SOL    HW259862   4.181   2.694   1.418
16070SOL     OW59863   6.943   2.999   4.544
16070SOL    HW159864   6.855   2.999   4.497
16070SOL    HW259865   6.959   2.909   4.585
16071SOL     OW59866   3.368   1.918   1.836
16071SOL    HW159867   3.306   1.858   1.886
16071SOL    HW259868   3.443   1.864   1.798
16072SOL     OW59869   0.321   8.844   3.470
16072SOL    HW159870   0.270   8.873   3.551
16072SOL    HW259871   0.258   8.830   3.394
16073SOL     OW59872   1.472   8.567   3.246
16073SOL    HW159873   1.449   8.629   3.171
16073SOL    HW259874   1.496   8.620   3.328
16074SOL     OW59875   9.900   7.175   2.264
16074SOL    HW159876   9.890   7.274   2.256
16074SOL    HW259877   9.943   7.153   2.352
16075SOL     OW59878   8.434   0.775   0.272
16075SOL    HW159879   8.513   0.814   0.224
16075SOL    HW259880   8.457   0.682   0.302
16076SOL     OW59881   8.486   5.332   5.343
16076SOL    HW159882   8.400   5.321   5.294
16076SOL    HW259883   8.529   5.419   5.317
16077SOL     OW59884   2.429   8.230   3.085
16077SOL    HW159885   2.438   8.131   3.076
16077SOL    HW259886   2.409   8.270   2.996
16078SOL     OW59887   2.558   9.503   4.487
16078SOL    HW159888   2.589   9.567   4.416
16078SOL    HW259889   2.533   9.416   4.445
16079SOL     OW59890   3.849   4.121   5.995
16079SOL    HW159891   3.896   4.088   5.913
16079SOL    HW259892   3.886   4.074   6.075
16080SOL     OW59893   3.363   9.739   7.290
16080SOL    HW159894   3.374   9.798   7.210
16080SOL    HW259895   3.400   9.648   7.269
16081SOL     OW59896   0.895   0.980   3.675
16081SOL    HW159897   0.907   1.078   3.687
16081SOL    HW259898   0.966   0.932   3.727
16082SOL     OW59899   1.462   9.293   4.463
16082SOL    HW159900   1.451   9.285   4.562
16082SOL    HW259901   1.385   9.248   4.417
16083SOL     OW59902   1.646   4.239   2.802
16083SOL    HW159903   1.698   4.154   2.800
16083SOL    HW259904   1.559   4.224   2.848
16084SOL     OW59905   1.510   6.391   4.682
16084SOL    HW159906   1.433   6.331   4.703
16084SOL    HW259907   1.590   6.363   4.736
16085SOL     OW59908   5.834   1.631   4.270
16085SOL    HW159909   5.877   1.653   4.182
16085SOL    HW259910   5.905   1.623   4.340
16086SOL     OW59911   1.848   6.015   5.933
16086SOL    HW159912   1.939   6.050   5.953
16086SOL    HW259913   1.824   5.944   6.000
16087SOL     OW59914   1.817   7.525   3.719
16087SOL    HW159915   1.787   7.542   3.625
16087SOL    HW259916   1.875   7.444   3.721
16088SOL     OW59917   7.393   6.938   2.497
16088SOL    HW159918   7.424   6.882   2.574
16088SOL    HW259919   7.381   7.032   2.527
16089SOL     OW59920   7.759   8.407   4.375
16089SOL    HW159921   7.738   8.442   4.466
16089SOL    HW259922   7.675   8.399   4.321
16090SOL     OW59923   2.791   0.417   0.080
16090SOL    HW159924   2.843   0.333   0.094
16090SOL    HW259925   2.738   0.410  10.076
16091SOL     OW59926   5.659   8.683   7.241
16091SOL    HW159927   5.709   8.725   7.166
16091SOL    HW259928   5.694   8.718   7.328
16092SOL     OW59929   0.056   5.785   1.368
16092SOL    HW159930   0.073   5.810   1.273
16092SOL    HW259931   0.103   5.700   1.390
16093SOL     OW59932   1.927   2.663   5.429
16093SOL    HW159933   1.842   2.629   5.469
16093SOL    HW259934   1.937   2.761   5.450
16094SOL     OW59935   1.190   2.155   4.218
16094SOL    HW159936   1.129   2.201   4.282
16094SOL    HW259937   1.264   2.217   4.192
16095SOL     OW59938   9.322   9.355   3.818
16095SOL    HW159939   9.348   9.358   3.721
16095SOL    HW259940   9.341   9.444   3.860
16096SOL     OW59941   8.233   1.689   0.523
16096SOL    HW159942   8.236   1.788   0.511
16096SOL    HW259943   8.138   1.658   0.519
16097SOL     OW59944   8.380   4.917   5.328
16097SOL    HW159945   8.307   4.984   5.344
16097SOL    HW259946   8.348   4.847   5.265
16098SOL     OW59947   2.953   9.494   1.823
16098SOL    HW159948   3.014   9.560   1.781
16098SOL    HW259949   2.992   9.464   1.910
16099SOL     OW59950   1.072   6.927   3.369
16099SOL    HW159951   0.978   6.960   3.365
16099SOL    HW259952   1.135   7.002   3.347
16100SOL     OW59953   1.545   6.828   1.225
16100SOL    HW159954   1.626   6.855   1.174
16100SOL    HW259955   1.504   6.909   1.268
16101SOL     OW59956   1.077   6.584   4.524
16101SOL    HW159957   1.026   6.642   4.587
16101SOL    HW259958   1.158   6.633   4.492
16102SOL     OW59959   3.778   6.348   3.947
16102SOL    HW159960   3.771   6.342   3.848
16102SOL    HW259961   3.733   6.432   3.978
16103SOL     OW59962   8.566   9.095   1.122
16103SOL    HW159963   8.650   9.150   1.117
16103SOL    HW259964   8.589   9.002   1.148
16104SOL     OW59965   9.272   0.555   2.594
16104SOL    HW159966   9.240   0.479   2.538
16104SOL    HW259967   9.363   0.583   2.563
16105SOL     OW59968   7.162   2.741   5.048
16105SOL    HW159969   7.248   2.702   5.015
16105SOL    HW259970   7.127   2.685   5.123
16106SOL     OW59971   0.164   8.765   0.179
16106SOL    HW159972   0.135   8.760   0.274
16106SOL    HW259973   0.146   8.857   0.143
16107SOL     OW59974   5.508   9.678   3.727
16107SOL    HW159975   5.518   9.640   3.635
16107SOL    HW259976   5.554   9.619   3.793
16108SOL     OW59977   0.458   8.013   1.839
16108SOL    HW159978   0.461   7.960   1.924
16108SOL    HW259979   0.380   8.076   1.843
16109SOL     OW59980   0.060   9.850   3.601
16109SOL    HW159981   9.989   9.907   3.559
16109SOL    HW259982   0.028   9.755   3.605
16110SOL     OW59983   2.785   5.451   0.727
16110SOL    HW159984   2.862   5.512   0.747
16110SOL    HW259985   2.763   5.398   0.809
16111SOL     OW59986   9.538   7.809   2.722
16111SOL    HW159987   9.638   7.802   2.717
16111SOL    HW259988   9.507   7.884   2.664
16112SOL     OW59989   2.672   9.841   4.757
16112SOL    HW159990   2.751   9.797   4.714
16112SOL    HW259991   2.703   9.905   4.827
16113SOL     OW59992   0.063   8.244   1.215
16113SOL    HW159993   0.134   8.175   1.228
16113SOL    HW259994   0.003   8.247   1.295
16114SOL     OW59995   6.207   7.662   4.354
16114SOL    HW159996   6.295   7.705   4.375
16114SOL    HW259997   6.138   7.733   4.340
16115SOL     OW59998   9.507   8.323   7.490
16115SOL    HW159999   9.472   8.248   7.546
16115SOL    HW260000   9.584   8.290   7.435
16116SOL     OW60001   9.284   5.425   5.615
16116SOL    HW160002   9.320   5.336   5.643
16116SOL    HW260003   9.186   5.416   5.596
16117SOL     OW60004   5.645   9.505   7.315
16117SOL    HW160005   5.597   9.531   7.398
16117SOL    HW260006   5.735   9.468   7.338
16118SOL     OW60007   6.998   4.813   7.704
16118SOL    HW160008   7.091   4.809   7.741
16118SOL    HW260009   6.977   4.907   7.678
16119SOL     OW60010   8.605   7.501   0.279
16119SOL    HW160011   8.548   7.419   0.286
16119SOL    HW260012   8.560   7.568   0.220
16120SOL     OW60013   9.050   3.950   3.634
16120SOL    HW160014   8.969   3.901   3.665
16120SOL    HW260015   9.113   3.962   3.711
16121SOL     OW60016   6.816   7.624   7.043
16121SOL    HW160017   6.828   7.525   7.036
16121SOL    HW260018   6.777   7.646   7.133
16122SOL     OW60019   9.657   0.945   5.100
16122SOL    HW160020   9.579   0.921   5.042
16122SOL    HW260021   9.663   1.045   5.109
16123SOL     OW60022   7.699   9.351   7.668
16123SOL    HW160023   7.729   9.386   7.757
16123SOL    HW260024   7.608   9.386   7.649
16124SOL     OW60025   8.048   3.766   7.461
16124SOL    HW160026   8.098   3.680   7.458
16124SOL    HW260027   7.985   3.765   7.539
16125SOL     OW60028   9.798   8.969   1.769
16125SOL    HW160029   9.810   9.050   1.825
16125SOL    HW260030   9.729   8.909   1.810
16126SOL     OW60031   4.388   9.707   1.796
16126SOL    HW160032   4.365   9.734   1.702
16126SOL    HW260033   4.377   9.786   1.857
16127SOL     OW60034   7.332   0.669   5.105
16127SOL    HW160035   7.407   0.708   5.158
16127SOL    HW260036   7.362   0.654   5.011
16128SOL     OW60037   7.382   9.339   2.162
16128SOL    HW160038   7.470   9.381   2.187
16128SOL    HW260039   7.395   9.281   2.081
16129SOL     OW60040   0.494   2.446   4.777
16129SOL    HW160041   0.497   2.349   4.802
16129SOL    HW260042   0.508   2.502   4.859
16130SOL     OW60043   3.082   7.038   1.652
16130SOL    HW160044   3.166   7.029   1.598
16130SOL    HW260045   3.105   7.035   1.750
16131SOL     OW60046   8.288   1.562   0.948
16131SOL    HW160047   8.298   1.462   0.947
16131SOL    HW260048   8.336   1.601   0.870
16132SOL     OW60049   0.102   9.632   3.935
16132SOL    HW160050   0.192   9.589   3.935
16132SOL    HW260051   0.058   9.619   4.024
16133SOL     OW60052   4.313   5.376   3.336
16133SOL    HW160053   4.409   5.349   3.333
16133SOL    HW260054   4.280   5.375   3.430
16134SOL     OW60055   2.644   2.335   7.648
16134SOL    HW160056   2.645   2.236   7.632
16134SOL    HW260057   2.566   2.375   7.600
16135SOL     OW60058   1.155   2.662   0.899
16135SOL    HW160059   1.096   2.693   0.973
16135SOL    HW260060   1.213   2.738   0.869
16136SOL     OW60061   4.880   6.982   1.988
16136SOL    HW160062   4.786   7.012   1.974
16136SOL    HW260063   4.939   7.062   2.002
16137SOL     OW60064   9.933   4.660   3.214
16137SOL    HW160065   9.859   4.723   3.191
16137SOL    HW260066   9.957   4.606   3.133
16138SOL     OW60067   1.745   0.639   0.412
16138SOL    HW160068   1.698   0.571   0.468
16138SOL    HW260069   1.806   0.594   0.348
16139SOL     OW60070   4.247   8.620   1.718
16139SOL    HW160071   4.197   8.664   1.792
16139SOL    HW260072   4.283   8.690   1.656
16140SOL     OW60073   2.645   5.415   1.197
16140SOL    HW160074   2.709   5.391   1.269
16140SOL    HW260075   2.616   5.510   1.208
16141SOL     OW60076   6.834   2.100   1.720
16141SOL    HW160077   6.767   2.119   1.648
16141SOL    HW260078   6.823   2.006   1.753
16142SOL     OW60079   8.940   0.936   1.870
16142SOL    HW160080   8.870   0.867   1.886
16142SOL    HW260081   9.024   0.910   1.917
16143SOL     OW60082   2.259   0.257   2.310
16143SOL    HW160083   2.305   0.170   2.325
16143SOL    HW260084   2.168   0.254   2.350
16144SOL     OW60085   8.723   2.391   0.952
16144SOL    HW160086   8.678   2.477   0.973
16144SOL    HW260087   8.817   2.408   0.923
16145SOL     OW60088   3.875   6.342   2.113
16145SOL    HW160089   3.901   6.437   2.098
16145SOL    HW260090   3.937   6.300   2.179
16146SOL     OW60091   0.393   4.792   7.093
16146SOL    HW160092   0.460   4.741   7.040
16146SOL    HW260093   0.315   4.732   7.113
16147SOL     OW60094   9.762   2.457   3.409
16147SOL    HW160095   9.786   2.550   3.382
16147SOL    HW260096   9.810   2.434   3.494
16148SOL     OW60097   8.344   2.270   6.992
16148SOL    HW160098   8.443   2.265   6.990
16148SOL    HW260099   8.311   2.310   6.906
16149SOL     OW60100   7.467   4.659   1.127
16149SOL    HW160101   7.501   4.658   1.222
16149SOL    HW260102   7.504   4.739   1.080
16150SOL     OW60103   8.116   5.592   2.638
16150SOL    HW160104   8.115   5.628   2.732
16150SOL    HW260105   8.074   5.501   2.638
16151SOL     OW60106   3.459   4.716   3.321
16151SOL    HW160107   3.398   4.751   3.250
16151SOL    HW260108   3.464   4.616   3.314
16152SOL     OW60109   3.538   2.905   0.216
16152SOL    HW160110   3.443   2.927   0.238
16152SOL    HW260111   3.590   2.895   0.301
16153SOL     OW60112   9.312   1.923   7.008
16153SOL    HW160113   9.243   1.881   7.067
16153SOL    HW260114   9.268   1.960   6.927
16154SOL     OW60115   4.759   2.945   6.689
16154SOL    HW160116   4.670   2.951   6.644
16154SOL    HW260117   4.756   2.874   6.759
16155SOL     OW60118   0.075   7.792   2.913
16155SOL    HW160119   0.151   7.735   2.881
16155SOL    HW260120   0.053   7.861   2.844
16156SOL     OW60121   3.095   7.193   4.507
16156SOL    HW160122   3.079   7.180   4.605
16156SOL    HW260123   3.085   7.290   4.484
16157SOL     OW60124   3.587   1.433   4.460
16157SOL    HW160125   3.631   1.522   4.444
16157SOL    HW260126   3.498   1.447   4.504
16158SOL     OW60127   4.231   1.043   7.668
16158SOL    HW160128   4.321   1.002   7.653
16158SOL    HW260129   4.165   1.001   7.605
16159SOL     OW60130   3.957   4.817   5.637
16159SOL    HW160131   4.050   4.784   5.620
16159SOL    HW260132   3.927   4.874   5.561
16160SOL     OW60133   3.395   4.833   4.274
16160SOL    HW160134   3.405   4.823   4.373
16160SOL    HW260135   3.452   4.909   4.242
16161SOL     OW60136   8.457   9.153   5.831
16161SOL    HW160137   8.405   9.079   5.789
16161SOL    HW260138   8.418   9.174   5.920
16162SOL     OW60139   6.500   8.260   4.164
16162SOL    HW160140   6.411   8.253   4.118
16162SOL    HW260141   6.555   8.330   4.119
16163SOL     OW60142   5.125   1.103   6.263
16163SOL    HW160143   5.032   1.067   6.259
16163SOL    HW260144   5.131   1.185   6.206
16164SOL     OW60145   7.666   4.149   0.981
16164SOL    HW160146   7.666   4.103   1.069
16164SOL    HW260147   7.660   4.081   0.907
16165SOL     OW60148   7.247   0.884   1.488
16165SOL    HW160149   7.337   0.903   1.451
16165SOL    HW260150   7.178   0.934   1.435
16166SOL     OW60151   2.302   4.317   3.804
16166SOL    HW160152   2.236   4.252   3.840
16166SOL    HW260153   2.261   4.408   3.800
16167SOL     OW60154   8.989   9.557   2.049
16167SOL    HW160155   9.019   9.492   2.119
16167SOL    HW260156   8.891   9.573   2.058
16168SOL     OW60157   0.038   2.873   3.942
16168SOL    HW160158   0.038   2.834   3.850
16168SOL    HW260159   9.983   2.957   3.942
16169SOL     OW60160   1.951   5.071   5.523
16169SOL    HW160161   2.000   5.009   5.585
16169SOL    HW260162   1.931   5.156   5.571
16170SOL     OW60163   4.139   3.516   1.068
16170SOL    HW160164   4.099   3.425   1.059
16170SOL    HW260165   4.181   3.543   0.981
16171SOL     OW60166   5.663   1.037   3.678
16171SOL    HW160167   5.658   1.109   3.747
16171SOL    HW260168   5.739   0.976   3.700
16172SOL     OW60169   1.430   8.886   2.481
16172SOL    HW160170   1.447   8.798   2.436
16172SOL    HW260171   1.375   8.871   2.563
16173SOL     OW60172   5.070   4.024   0.242
16173SOL    HW160173   4.988   3.967   0.255
16173SOL    HW260174   5.148   3.965   0.221
16174SOL     OW60175   3.179   0.017   1.078
16174SOL    HW160176   3.267   0.064   1.090
16174SOL    HW260177   3.106   0.085   1.073
16175SOL     OW60178   5.285   4.566   6.494
16175SOL    HW160179   5.257   4.470   6.494
16175SOL    HW260180   5.351   4.582   6.420
16176SOL     OW60181   8.166   4.768   0.579
16176SOL    HW160182   8.113   4.841   0.535
16176SOL    HW260183   8.238   4.737   0.517
16177SOL     OW60184   3.585   8.281   4.803
16177SOL    HW160185   3.685   8.268   4.802
16177SOL    HW260186   3.542   8.202   4.758
16178SOL     OW60187   4.814   0.836   2.100
16178SOL    HW160188   4.913   0.842   2.113
16178SOL    HW260189   4.780   0.922   2.061
16179SOL     OW60190   6.077   9.393   4.724
16179SOL    HW160191   6.114   9.463   4.785
16179SOL    HW260192   5.985   9.368   4.754
16180SOL     OW60193   3.184   7.861   2.754
16180SOL    HW160194   3.189   7.762   2.736
16180SOL    HW260195   3.172   7.909   2.667
16181SOL     OW60196   1.742   8.946   0.408
16181SOL    HW160197   1.766   8.955   0.504
16181SOL    HW260198   1.741   8.849   0.383
16182SOL     OW60199   2.425   8.001   5.743
16182SOL    HW160200   2.491   7.978   5.672
16182SOL    HW260201   2.342   7.947   5.730
16183SOL     OW60202   8.840   3.139   6.208
16183SOL    HW160203   8.869   3.216   6.266
16183SOL    HW260204   8.748   3.110   6.235
16184SOL     OW60205   3.462   2.493   5.696
16184SOL    HW160206   3.482   2.484   5.599
16184SOL    HW260207   3.375   2.449   5.717
16185SOL     OW60208   8.949   8.769   4.094
16185SOL    HW160209   8.895   8.720   4.162
16185SOL    HW260210   8.947   8.867   4.114
16186SOL     OW60211   8.463   6.312   0.417
16186SOL    HW160212   8.367   6.287   0.403
16186SOL    HW260213   8.471   6.363   0.503
16187SOL     OW60214   4.773   3.624   0.294
16187SOL    HW160215   4.696   3.577   0.338
16187SOL    HW260216   4.789   3.583   0.205
16188SOL     OW60217   5.653   1.468   5.947
16188SOL    HW160218   5.632   1.394   6.011
16188SOL    HW260219   5.622   1.555   5.984
16189SOL     OW60220   9.423   0.713   1.413
16189SOL    HW160221   9.363   0.772   1.467
16189SOL    HW260222   9.422   0.744   1.318
16190SOL     OW60223   8.725   5.937   3.864
16190SOL    HW160224   8.816   5.926   3.824
16190SOL    HW260225   8.729   5.916   3.962
16191SOL     OW60226   9.126   9.153   5.281
16191SOL    HW160227   9.088   9.139   5.190
16191SOL    HW260228   9.125   9.066   5.331
16192SOL     OW60229   8.389   3.532   7.051
16192SOL    HW160230   8.377   3.495   7.143
16192SOL    HW260231   8.459   3.603   7.052
16193SOL     OW60232   4.440   9.812   5.169
16193SOL    HW160233   4.488   9.838   5.085
16193SOL    HW260234   4.408   9.717   5.161
16194SOL     OW60235   2.541   6.688   5.928
16194SOL    HW160236   2.558   6.728   6.018
16194SOL    HW260237   2.577   6.595   5.926
16195SOL     OW60238   2.361   7.525   4.522
16195SOL    HW160239   2.442   7.467   4.526
16195SOL    HW260240   2.293   7.484   4.461
16196SOL     OW60241   9.571   5.346   0.038
16196SOL    HW160242   9.667   5.336   0.064
16196SOL    HW260243   9.556   5.301  10.031
16197SOL     OW60244   6.844   4.877   0.115
16197SOL    HW160245   6.880   4.821   0.189
16197SOL    HW260246   6.771   4.828   0.068
16198SOL     OW60247   8.376   3.420   4.509
16198SOL    HW160248   8.278   3.427   4.526
16198SOL    HW260249   8.418   3.511   4.519
16199SOL     OW60250   6.578   5.889   0.840
16199SOL    HW160251   6.574   5.919   0.745
16199SOL    HW260252   6.617   5.798   0.845
16200SOL     OW60253   7.068   0.959   7.542
16200SOL    HW160254   7.020   1.019   7.605
16200SOL    HW260255   7.006   0.931   7.469
16201SOL     OW60256   8.972   8.582   1.249
16201SOL    HW160257   8.924   8.656   1.202
16201SOL    HW260258   9.070   8.590   1.233
16202SOL     OW60259   3.353   4.060   3.035
16202SOL    HW160260   3.268   4.073   3.087
16202SOL    HW260261   3.379   4.147   2.993
16203SOL     OW60262   1.926   0.441   3.124
16203SOL    HW160263   1.889   0.371   3.186
16203SOL    HW260264   1.905   0.415   3.029
16204SOL     OW60265   2.974   5.300   1.787
16204SOL    HW160266   2.969   5.376   1.722
16204SOL    HW260267   3.004   5.218   1.740
16205SOL     OW60268   7.359   5.384   1.747
16205SOL    HW160269   7.265   5.417   1.754
16205SOL    HW260270   7.362   5.288   1.776
16206SOL     OW60271   7.553   9.545   5.248
16206SOL    HW160272   7.600   9.625   5.286
16206SOL    HW260273   7.458   9.569   5.228
16207SOL     OW60274   8.948   9.891   6.843
16207SOL    HW160275   9.005   9.809   6.838
16207SOL    HW260276   8.857   9.871   6.805
16208SOL     OW60277   2.107   6.127   0.373
16208SOL    HW160278   2.141   6.214   0.338
16208SOL    HW260279   2.026   6.142   0.429
16209SOL     OW60280   2.533   7.904   6.987
16209SOL    HW160281   2.554   7.840   7.061
16209SOL    HW260282   2.604   7.974   6.982
16210SOL     OW60283   4.394   3.445   4.920
16210SOL    HW160284   4.399   3.541   4.894
16210SOL    HW260285   4.312   3.404   4.880
16211SOL     OW60286   8.167   4.890   4.980
16211SOL    HW160287   8.102   4.957   5.015
16211SOL    HW260288   8.196   4.830   5.055
16212SOL     OW60289   7.403   2.679   3.090
16212SOL    HW160290   7.496   2.712   3.109
16212SOL    HW260291   7.391   2.588   3.131
16213SOL     OW60292   0.406   3.084   1.110
16213SOL    HW160293   0.415   3.095   1.011
16213SOL    HW260294   0.495   3.097   1.154
16214SOL     OW60295   0.446   8.703   5.241
16214SOL    HW160296   0.394   8.682   5.323
16214SOL    HW260297   0.427   8.635   5.171
16215SOL     OW60298   9.337   9.261   1.506
16215SOL    HW160299   9.331   9.310   1.594
16215SOL    HW260300   9.431   9.267   1.471
16216SOL     OW60301   1.739   4.025   5.307
16216SOL    HW160302   1.671   4.054   5.240
16216SOL    HW260303   1.698   3.961   5.372
16217SOL     OW60304   2.748   2.944   1.439
16217SOL    HW160305   2.847   2.956   1.426
16217SOL    HW260306   2.723   2.851   1.413
16218SOL     OW60307   2.422   9.899   3.709
16218SOL    HW160308   2.506   9.847   3.696
16218SOL    HW260309   2.386   9.882   3.801
16219SOL     OW60310   2.022   3.366   3.905
16219SOL    HW160311   2.016   3.416   3.819
16219SOL    HW260312   2.092   3.408   3.963
16220SOL     OW60313   5.479   0.905   1.778
16220SOL    HW160314   5.489   0.806   1.770
16220SOL    HW260315   5.409   0.925   1.847
16221SOL     OW60316   7.911   4.101   0.349
16221SOL    HW160317   7.851   4.025   0.376
16221SOL    HW260318   7.863   4.161   0.286
16222SOL     OW60319   0.543   7.393   5.752
16222SOL    HW160320   0.543   7.319   5.819
16222SOL    HW260321   0.486   7.367   5.674
16223SOL     OW60322   7.454   1.326   3.294
16223SOL    HW160323   7.377   1.382   3.265
16223SOL    HW260324   7.496   1.365   3.376
16224SOL     OW60325   1.989   3.840   2.524
16224SOL    HW160326   2.029   3.922   2.565
16224SOL    HW260327   1.891   3.854   2.509
16225SOL     OW60328   6.488   0.559   5.018
16225SOL    HW160329   6.556   0.503   4.971
16225SOL    HW260330   6.463   0.637   4.961
16226SOL     OW60331   8.729   5.336   7.858
16226SOL    HW160332   8.632   5.355   7.849
16226SOL    HW260333   8.743   5.240   7.883
16227SOL     OW60334   0.330   3.880   1.476
16227SOL    HW160335   0.369   3.969   1.501
16227SOL    HW260336   0.296   3.884   1.382
16228SOL     OW60337   1.975   2.185   6.590
16228SOL    HW160338   1.987   2.116   6.661
16228SOL    HW260339   1.887   2.230   6.601
16229SOL     OW60340   7.112   9.427   2.080
16229SOL    HW160341   7.053   9.364   2.131
16229SOL    HW260342   7.208   9.402   2.095
16230SOL     OW60343   6.857   1.311   1.142
16230SOL    HW160344   6.777   1.318   1.082
16230SOL    HW260345   6.893   1.403   1.159
16231SOL     OW60346   7.397   5.082   1.257
16231SOL    HW160347   7.355   5.088   1.166
16231SOL    HW260348   7.341   5.022   1.315
16232SOL     OW60349   0.438   4.677   3.687
16232SOL    HW160350   0.449   4.776   3.673
16232SOL    HW260351   0.523   4.630   3.664
16233SOL     OW60352   2.063   6.902   7.515
16233SOL    HW160353   2.077   6.858   7.426
16233SOL    HW260354   1.971   6.940   7.519
16234SOL     OW60355   3.508   0.292   1.854
16234SOL    HW160356   3.547   0.214   1.804
16234SOL    HW260357   3.505   0.372   1.794
16235SOL     OW60358   9.708   7.970   7.614
16235SOL    HW160359   9.718   8.058   7.659
16235SOL    HW260360   9.736   7.897   7.677
16236SOL     OW60361   0.385   0.055   0.731
16236SOL    HW160362   0.319   9.981   0.747
16236SOL    HW260363   0.470   0.017   0.695
16237SOL     OW60364   7.562   1.141   4.502
16237SOL    HW160365   7.652   1.182   4.517
16237SOL    HW260366   7.496   1.183   4.564
16238SOL     OW60367   4.282   3.716   7.595
16238SOL    HW160368   4.237   3.779   7.658
16238SOL    HW260369   4.223   3.637   7.579
16239SOL     OW60370   6.185   2.640   3.542
16239SOL    HW160371   6.187   2.569   3.612
16239SOL    HW260372   6.264   2.701   3.554
16240SOL     OW60373   8.053   6.511   1.329
16240SOL    HW160374   7.988   6.537   1.401
16240SOL    HW260375   8.101   6.592   1.296
16241SOL     OW60376   1.973   5.633   4.954
16241SOL    HW160377   1.879   5.637   4.986
16241SOL    HW260378   2.028   5.700   5.005
16242SOL     OW60379   7.857   1.901   0.140
16242SOL    HW160380   7.918   1.976   0.115
16242SOL    HW260381   7.767   1.917   0.098
16243SOL     OW60382   6.265   8.411   4.810
16243SOL    HW160383   6.335   8.466   4.765
16243SOL    HW260384   6.182   8.465   4.822
16244SOL     OW60385   2.539   7.060   0.398
16244SOL    HW160386   2.608   6.998   0.360
16244SOL    HW260387   2.450   7.014   0.398
16245SOL     OW60388   7.294   9.156   3.560
16245SOL    HW160389   7.274   9.080   3.498
16245SOL    HW260390   7.209   9.203   3.585
16246SOL     OW60391   5.140   6.604   2.764
16246SOL    HW160392   5.222   6.629   2.713
16246SOL    HW260393   5.063   6.659   2.731
16247SOL     OW60394   4.873   8.710   6.887
16247SOL    HW160395   4.864   8.678   6.792
16247SOL    HW260396   4.783   8.713   6.929
16248SOL     OW60397   8.918   1.288   1.024
16248SOL    HW160398   8.895   1.339   1.107
16248SOL    HW260399   8.945   1.353   0.953
16249SOL     OW60400   4.996   7.781   5.061
16249SOL    HW160401   4.944   7.828   5.132
16249SOL    HW260402   4.938   7.764   4.982
16250SOL     OW60403   5.954   8.469   3.913
16250SOL    HW160404   5.911   8.379   3.899
16250SOL    HW260405   5.882   8.538   3.924
16251SOL     OW60406   2.478   8.567   0.476
16251SOL    HW160407   2.496   8.470   0.460
16251SOL    HW260408   2.412   8.577   0.551
16252SOL     OW60409   8.734   7.474   7.027
16252SOL    HW160410   8.695   7.500   6.939
16252SOL    HW260411   8.831   7.498   7.029
16253SOL     OW60412   6.919   3.873   2.933
16253SOL    HW160413   6.936   3.885   3.031
16253SOL    HW260414   6.992   3.818   2.893
16254SOL     OW60415   3.093   2.114   3.580
16254SOL    HW160416   3.080   2.101   3.678
16254SOL    HW260417   3.153   2.043   3.544
16255SOL     OW60418   3.985   7.283   1.922
16255SOL    HW160419   3.997   7.328   2.010
16255SOL    HW260420   4.068   7.232   1.899
16256SOL     OW60421   9.405   7.921   7.102
16256SOL    HW160422   9.401   7.864   7.020
16256SOL    HW260423   9.361   7.873   7.178
16257SOL     OW60424   2.783   3.564   3.501
16257SOL    HW160425   2.836   3.565   3.416
16257SOL    HW260426   2.729   3.480   3.505
16258SOL     OW60427   1.087   7.353   0.920
16258SOL    HW160428   1.184   7.364   0.901
16258SOL    HW260429   1.056   7.427   0.979
16259SOL     OW60430   5.784   5.984   0.753
16259SOL    HW160431   5.844   6.053   0.714
16259SOL    HW260432   5.838   5.918   0.806
16260SOL     OW60433   8.014   2.661   5.777
16260SOL    HW160434   8.034   2.759   5.769
16260SOL    HW260435   8.052   2.612   5.699
16261SOL     OW60436   4.262   9.704   3.420
16261SOL    HW160437   4.327   9.737   3.488
16261SOL    HW260438   4.230   9.613   3.446
16262SOL     OW60439   7.148   8.779   1.981
16262SOL    HW160440   7.189   8.707   2.036
16262SOL    HW260441   7.108   8.848   2.040
16263SOL     OW60442   0.324   3.793   4.886
16263SOL    HW160443   0.261   3.777   4.810
16263SOL    HW260444   0.296   3.875   4.936
16264SOL     OW60445   3.159   4.204   7.813
16264SOL    HW160446   3.172   4.115   7.858
16264SOL    HW260447   3.123   4.269   7.880
16265SOL     OW60448   9.763   0.178   1.842
16265SOL    HW160449   9.793   0.107   1.905
16265SOL    HW260450   9.733   0.258   1.893
16266SOL     OW60451   8.389   3.583   0.845
16266SOL    HW160452   8.413   3.652   0.777
16266SOL    HW260453   8.291   3.590   0.865
16267SOL     OW60454   0.594   6.906   5.235
16267SOL    HW160455   0.506   6.945   5.209
16267SOL    HW260456   0.611   6.923   5.332
16268SOL     OW60457   1.440   4.387   1.967
16268SOL    HW160458   1.401   4.451   1.902
16268SOL    HW260459   1.526   4.423   2.002
16269SOL     OW60460   5.113   4.342   7.511
16269SOL    HW160461   5.032   4.319   7.456
16269SOL    HW260462   5.138   4.263   7.568
16270SOL     OW60463   6.971   1.701   3.845
16270SOL    HW160464   7.041   1.761   3.882
16270SOL    HW260465   6.886   1.712   3.896
16271SOL     OW60466   4.624   7.376   3.716
16271SOL    HW160467   4.569   7.392   3.634
16271SOL    HW260468   4.615   7.280   3.744
16272SOL     OW60469   9.024   4.413   7.083
16272SOL    HW160470   8.962   4.354   7.032
16272SOL    HW260471   9.034   4.500   7.035
16273SOL     OW60472   5.503   3.521   2.090
16273SOL    HW160473   5.558   3.493   2.011
16273SOL    HW260474   5.417   3.561   2.058
16274SOL     OW60475   9.371   7.021   1.433
16274SOL    HW160476   9.308   6.947   1.409
16274SOL    HW260477   9.440   6.986   1.497
16275SOL     OW60478   7.005   8.425   5.993
16275SOL    HW160479   7.040   8.516   5.969
16275SOL    HW260480   7.067   8.355   5.957
16276SOL     OW60481   5.691   7.322   4.372
16276SOL    HW160482   5.723   7.280   4.457
16276SOL    HW260483   5.768   7.364   4.324
16277SOL     OW60484   4.478   6.056   2.676
16277SOL    HW160485   4.419   5.976   2.666
16277SOL    HW260486   4.524   6.052   2.764
16278SOL     OW60487   3.736   4.303   0.759
16278SOL    HW160488   3.682   4.256   0.829
16278SOL    HW260489   3.832   4.278   0.769
16279SOL     OW60490   6.424   2.006   1.774
16279SOL    HW160491   6.366   2.087   1.767
16279SOL    HW260492   6.451   1.976   1.683
16280SOL     OW60493   0.687   6.150   2.123
16280SOL    HW160494   0.736   6.212   2.062
16280SOL    HW260495   0.668   6.196   2.210
16281SOL     OW60496   9.222   6.640   2.269
16281SOL    HW160497   9.284   6.715   2.287
16281SOL    HW260498   9.152   6.636   2.340
16282SOL     OW60499   8.875   8.326   0.547
16282SOL    HW160500   8.948   8.261   0.527
16282SOL    HW260501   8.891   8.368   0.636
16283SOL     OW60502   1.829   1.393   0.650
16283SOL    HW160503   1.744   1.377   0.600
16283SOL    HW260504   1.821   1.357   0.743
16284SOL     OW60505   8.052   5.497   3.733
16284SOL    HW160506   8.006   5.464   3.815
16284SOL    HW260507   8.045   5.429   3.660
16285SOL     OW60508   3.182   8.121   4.205
16285SOL    HW160509   3.227   8.048   4.257
16285SOL    HW260510   3.083   8.112   4.212
16286SOL     OW60511   0.752   2.007   0.892
16286SOL    HW160512   0.849   1.995   0.869
16286SOL    HW260513   0.716   2.085   0.840
16287SOL     OW60514   4.749   2.212   6.951
16287SOL    HW160515   4.848   2.224   6.940
16287SOL    HW260516   4.701   2.255   6.875
16288SOL     OW60517   3.846   1.557   0.809
16288SOL    HW160518   3.856   1.623   0.735
16288SOL    HW260519   3.750   1.535   0.823
16289SOL     OW60520   2.524   5.355   2.794
16289SOL    HW160521   2.536   5.449   2.828
16289SOL    HW260522   2.437   5.348   2.745
16290SOL     OW60523   7.765   1.524   1.526
16290SOL    HW160524   7.722   1.450   1.579
16290SOL    HW260525   7.855   1.493   1.494
16291SOL     OW60526   8.898   1.690   4.867
16291SOL    HW160527   8.935   1.769   4.916
16291SOL    HW260528   8.942   1.607   4.901
16292SOL     OW60529   3.401   4.340   6.009
16292SOL    HW160530   3.410   4.440   6.004
16292SOL    HW260531   3.384   4.313   6.103
16293SOL     OW60532   9.580   6.522   7.629
16293SOL    HW160533   9.660   6.464   7.612
16293SOL    HW260534   9.522   6.523   7.547
16294SOL     OW60535   5.858   8.314   2.253
16294SOL    HW160536   5.854   8.229   2.199
16294SOL    HW260537   5.946   8.359   2.236
16295SOL     OW60538   3.727   9.845   4.924
16295SOL    HW160539   3.679   9.922   4.881
16295SOL    HW260540   3.706   9.761   4.874
16296SOL     OW60541   0.680   9.504   0.937
16296SOL    HW160542   0.736   9.431   0.898
16296SOL    HW260543   0.732   9.588   0.942
16297SOL     OW60544   8.940   4.944   1.386
16297SOL    HW160545   8.931   5.017   1.318
16297SOL    HW260546   8.984   4.980   1.468
16298SOL     OW60547   3.331   1.312   1.537
16298SOL    HW160548   3.304   1.334   1.631
16298SOL    HW260549   3.250   1.311   1.478
16299SOL     OW60550   9.667   7.763   0.566
16299SOL    HW160551   9.713   7.776   0.654
16299SOL    HW260552   9.641   7.852   0.529
16300SOL     OW60553   3.837   3.975   3.533
16300SOL    HW160554   3.934   3.963   3.550
16300SOL    HW260555   3.795   4.023   3.610
16301SOL     OW60556   2.229   6.497   6.280
16301SOL    HW160557   2.171   6.416   6.286
16301SOL    HW260558   2.320   6.471   6.250
16302SOL     OW60559   0.003   0.102   5.062
16302SOL    HW160560   0.034   0.008   5.079
16302SOL    HW260561   9.906   0.109   5.086
16303SOL     OW60562   2.913   0.356   0.504
16303SOL    HW160563   2.910   0.267   0.459
16303SOL    HW260564   2.820   0.390   0.518
16304SOL     OW60565   8.473   4.433   0.683
16304SOL    HW160566   8.390   4.390   0.646
16304SOL    HW260567   8.449   4.485   0.765
16305SOL     OW60568   9.824   8.614   1.767
16305SOL    HW160569   9.749   8.669   1.803
16305SOL    HW260570   9.909   8.666   1.772
16306SOL     OW60571   8.378   2.225   3.283
16306SOL    HW160572   8.353   2.138   3.242
16306SOL    HW260573   8.473   2.222   3.315
16307SOL     OW60574   5.510   7.282   2.126
16307SOL    HW160575   5.459   7.237   2.199
16307SOL    HW260576   5.587   7.224   2.098
16308SOL     OW60577   1.844   8.519   0.102
16308SOL    HW160578   1.865   8.454   0.030
16308SOL    HW260579   1.929   8.562   0.134
16309SOL     OW60580   5.210   9.609   1.357
16309SOL    HW160581   5.233   9.631   1.452
16309SOL    HW260582   5.278   9.546   1.320
16310SOL     OW60583   7.509   4.852   6.970
16310SOL    HW160584   7.416   4.852   7.006
16310SOL    HW260585   7.506   4.866   6.871
16311SOL     OW60586   1.518   1.122   5.069
16311SOL    HW160587   1.475   1.066   5.140
16311SOL    HW260588   1.476   1.213   5.068
16312SOL     OW60589   2.311   9.366   0.205
16312SOL    HW160590   2.340   9.281   0.161
16312SOL    HW260591   2.360   9.377   0.291
16313SOL     OW60592   8.690   8.254   3.452
16313SOL    HW160593   8.736   8.259   3.364
16313SOL    HW260594   8.757   8.238   3.524
16314SOL     OW60595   2.198   0.596   0.229
16314SOL    HW160596   2.190   0.496   0.227
16314SOL    HW260597   2.275   0.622   0.287
16315SOL     OW60598   1.456   3.975   2.021
16315SOL    HW160599   1.408   4.023   2.094
16315SOL    HW260600   1.532   3.922   2.061
16316SOL     OW60601   7.553   1.289   7.340
16316SOL    HW160602   7.579   1.239   7.423
16316SOL    HW260603   7.536   1.385   7.363
16317SOL     OW60604   9.084   5.447   1.908
16317SOL    HW160605   9.021   5.387   1.957
16317SOL    HW260606   9.068   5.542   1.933
16318SOL     OW60607   7.784   7.487   0.623
16318SOL    HW160608   7.843   7.484   0.542
16318SOL    HW260609   7.714   7.417   0.616
16319SOL     OW60610   2.503   0.129   4.172
16319SOL    HW160611   2.450   0.210   4.147
16319SOL    HW260612   2.595   0.157   4.201
16320SOL     OW60613   6.612   0.966   6.174
16320SOL    HW160614   6.544   1.039   6.175
16320SOL    HW260615   6.683   0.985   6.242
16321SOL     OW60616   0.940   8.592   7.245
16321SOL    HW160617   0.987   8.609   7.331
16321SOL    HW260618   0.925   8.679   7.198
16322SOL     OW60619   2.711   4.492   6.550
16322SOL    HW160620   2.761   4.464   6.632
16322SOL    HW260621   2.750   4.577   6.514
16323SOL     OW60622   8.383   5.387   2.322
16323SOL    HW160623   8.283   5.377   2.327
16323SOL    HW260624   8.413   5.459   2.385
16324SOL     OW60625   7.057   6.682   3.170
16324SOL    HW160626   7.046   6.772   3.129
16324SOL    HW260627   7.022   6.612   3.108
16325SOL     OW60628   9.401   5.640   7.081
16325SOL    HW160629   9.348   5.555   7.092
16325SOL    HW260630   9.338   5.718   7.080
16326SOL     OW60631   3.871   4.250   4.143
16326SOL    HW160632   3.778   4.230   4.174
16326SOL    HW260633   3.871   4.335   4.091
16327SOL     OW60634   6.865   5.216   1.456
16327SOL    HW160635   6.812   5.259   1.529
16327SOL    HW260636   6.807   5.152   1.406
16328SOL     OW60637   0.124   2.519   5.242
16328SOL    HW160638   0.045   2.566   5.283
16328SOL    HW260639   0.163   2.577   5.171
16329SOL     OW60640   5.759   0.130   4.465
16329SOL    HW160641   5.799   0.088   4.383
16329SOL    HW260642   5.682   0.075   4.496
16330SOL     OW60643   8.448   6.098   2.866
16330SOL    HW160644   8.541   6.103   2.829
16330SOL    HW260645   8.417   6.191   2.888
16331SOL     OW60646   2.206   5.555   2.873
16331SOL    HW160647   2.279   5.576   2.938
16331SOL    HW260648   2.240   5.489   2.806
16332SOL     OW60649   7.392   0.222   1.434
16332SOL    HW160650   7.459   0.149   1.422
16332SOL    HW260651   7.333   0.228   1.353
16333SOL     OW60652   7.995   9.416   4.716
16333SOL    HW160653   7.971   9.457   4.804
16333SOL    HW260654   7.929   9.345   4.692
16334SOL     OW60655   8.896   7.109   7.100
16334SOL    HW160656   8.856   7.082   7.188
16334SOL    HW260657   8.953   7.190   7.112
16335SOL     OW60658   4.418   5.120   2.290
16335SOL    HW160659   4.444   5.052   2.221
16335SOL    HW260660   4.498   5.175   2.314
16336SOL     OW60661   5.932   3.272   2.048
16336SOL    HW160662   5.992   3.277   1.968
16336SOL    HW260663   5.848   3.225   2.024
16337SOL     OW60664   1.967   2.371   7.645
16337SOL    HW160665   2.014   2.328   7.722
16337SOL    HW260666   1.959   2.305   7.570
16338SOL     OW60667   2.638   5.192   3.485
16338SOL    HW160668   2.620   5.226   3.393
16338SOL    HW260669   2.690   5.106   3.479
16339SOL     OW60670   1.793   4.715   3.481
16339SOL    HW160671   1.762   4.798   3.435
16339SOL    HW260672   1.774   4.635   3.424
16340SOL     OW60673   2.682   8.405   3.719
16340SOL    HW160674   2.669   8.482   3.781
16340SOL    HW260675   2.652   8.431   3.627
16341SOL     OW60676   3.683   0.903   6.706
16341SOL    HW160677   3.718   0.887   6.614
16341SOL    HW260678   3.754   0.943   6.763
16342SOL     OW60679   0.265   3.937   7.210
16342SOL    HW160680   0.364   3.949   7.205
16342SOL    HW260681   0.244   3.842   7.235
16343SOL     OW60682   2.920   6.277   6.562
16343SOL    HW160683   2.842   6.220   6.588
16343SOL    HW260684   3.005   6.230   6.587
16344SOL     OW60685   4.376   0.290   6.377
16344SOL    HW160686   4.458   0.235   6.361
16344SOL    HW260687   4.299   0.230   6.397
16345SOL     OW60688   4.597   9.538   3.701
16345SOL    HW160689   4.612   9.482   3.619
16345SOL    HW260690   4.680   9.538   3.757
16346SOL     OW60691   2.536   3.894   2.770
16346SOL    HW160692   2.521   3.795   2.780
16346SOL    HW260693   2.528   3.937   2.860
16347SOL     OW60694   3.873   1.076   3.118
16347SOL    HW160695   3.938   1.142   3.081
16347SOL    HW260696   3.807   1.050   3.047
16348SOL     OW60697   7.567   4.451   7.829
16348SOL    HW160698   7.648   4.428   7.775
16348SOL    HW260699   7.513   4.369   7.846
16349SOL     OW60700   9.900   8.749   3.505
16349SOL    HW160701   9.848   8.691   3.441
16349SOL    HW260702   9.839   8.818   3.544
16350SOL     OW60703   9.145   6.965   3.269
16350SOL    HW160704   9.185   7.042   3.318
16350SOL    HW260705   9.217   6.914   3.222
16351SOL     OW60706   3.766   8.332   5.101
16351SOL    HW160707   3.824   8.413   5.096
16351SOL    HW260708   3.670   8.359   5.095
16352SOL     OW60709   4.034   8.526   5.587
16352SOL    HW160710   4.076   8.443   5.549
16352SOL    HW260711   4.102   8.574   5.643
16353SOL     OW60712   4.839   6.013   2.650
16353SOL    HW160713   4.907   5.978   2.714
16353SOL    HW260714   4.808   6.103   2.680
16354SOL     OW60715   2.704   7.834   0.169
16354SOL    HW160716   2.786   7.874   0.128
16354SOL    HW260717   2.658   7.776   0.102
16355SOL     OW60718   6.610   3.223   1.805
16355SOL    HW160719   6.610   3.301   1.867
16355SOL    HW260720   6.538   3.158   1.832
16356SOL     OW60721   0.635   2.296   7.626
16356SOL    HW160722   0.557   2.358   7.618
16356SOL    HW260723   0.664   2.291   7.722
16357SOL     OW60724   9.445   0.547   1.858
16357SOL    HW160725   9.499   0.558   1.774
16357SOL    HW260726   9.348   0.544   1.834
16358SOL     OW60727   2.326   1.880   2.959
16358SOL    HW160728   2.370   1.845   3.042
16358SOL    HW260729   2.303   1.803   2.900
16359SOL     OW60730   4.286   9.002   1.231
16359SOL    HW160731   4.251   8.916   1.268
16359SOL    HW260732   4.250   9.016   1.139
16360SOL     OW60733   3.331   6.005   0.747
16360SOL    HW160734   3.245   5.974   0.707
16360SOL    HW260735   3.337   6.104   0.740
16361SOL     OW60736   0.280   0.346   6.081
16361SOL    HW160737   0.349   0.283   6.117
16361SOL    HW260738   0.261   0.417   6.149
16362SOL     OW60739   1.050   6.750   3.008
16362SOL    HW160740   0.977   6.809   3.041
16362SOL    HW260741   1.098   6.709   3.085
16363SOL     OW60742   8.741   7.422   7.716
16363SOL    HW160743   8.803   7.424   7.637
16363SOL    HW260744   8.672   7.493   7.706
16364SOL     OW60745   7.111   2.441   1.140
16364SOL    HW160746   7.063   2.374   1.196
16364SOL    HW260747   7.198   2.465   1.184
16365SOL     OW60748   2.357   1.580   4.319
16365SOL    HW160749   2.301   1.498   4.316
16365SOL    HW260750   2.364   1.619   4.227
16366SOL     OW60751   6.504   6.006   2.045
16366SOL    HW160752   6.592   5.979   2.006
16366SOL    HW260753   6.451   5.925   2.067
16367SOL     OW60754   3.519   8.485   6.312
16367SOL    HW160755   3.543   8.511   6.405
16367SOL    HW260756   3.420   8.495   6.299
16368SOL     OW60757   8.127   0.453   5.421
16368SOL    HW160758   8.175   0.439   5.334
16368SOL    HW260759   8.038   0.407   5.417
16369SOL     OW60760   3.552   9.563   0.420
16369SOL    HW160761   3.553   9.508   0.504
16369SOL    HW260762   3.495   9.644   0.433
16370SOL     OW60763   5.250   7.433   2.624
16370SOL    HW160764   5.222   7.397   2.535
16370SOL    HW260765   5.235   7.532   2.626
16371SOL     OW60766   9.088   5.271   3.654
16371SOL    HW160767   9.101   5.294   3.751
16371SOL    HW260768   9.115   5.176   3.638
16372SOL     OW60769   2.025   6.537   6.778
16372SOL    HW160770   2.080   6.619   6.790
16372SOL    HW260771   1.937   6.547   6.824
16373SOL     OW60772   8.929   8.185   4.315
16373SOL    HW160773   8.974   8.109   4.268
16373SOL    HW260774   8.968   8.272   4.285
16374SOL     OW60775   3.066   5.068   6.008
16374SOL    HW160776   3.150   5.027   6.044
16374SOL    HW260777   3.060   5.164   6.036
16375SOL     OW60778   9.432   0.535   7.794
16375SOL    HW160779   9.362   0.599   7.826
16375SOL    HW260780   9.389   0.448   7.769
16376SOL     OW60781   0.363   7.892   5.187
16376SOL    HW160782   0.363   7.984   5.147
16376SOL    HW260783   0.270   7.868   5.216
16377SOL     OW60784   0.070   4.267   0.070
16377SOL    HW160785   0.068   4.269  10.052
16377SOL    HW260786   0.141   4.203   0.100
16378SOL     OW60787   1.396   1.548   6.550
16378SOL    HW160788   1.322   1.608   6.581
16378SOL    HW260789   1.443   1.509   6.629
16379SOL     OW60790   6.880   1.173   5.592
16379SOL    HW160791   6.956   1.194   5.655
16379SOL    HW260792   6.798   1.222   5.622
16380SOL     OW60793   4.645   3.250   6.106
16380SOL    HW160794   4.584   3.171   6.101
16380SOL    HW260795   4.685   3.267   6.015
16381SOL     OW60796   6.258   5.805   1.684
16381SOL    HW160797   6.277   5.902   1.700
16381SOL    HW260798   6.344   5.755   1.679
16382SOL     OW60799   1.795   8.195   4.772
16382SOL    HW160800   1.743   8.133   4.713
16382SOL    HW260801   1.843   8.262   4.715
16383SOL     OW60802   1.079   3.206   3.681
16383SOL    HW160803   1.075   3.246   3.589
16383SOL    HW260804   1.102   3.277   3.747
16384SOL     OW60805   5.141   9.218   2.660
16384SOL    HW160806   5.110   9.137   2.610
16384SOL    HW260807   5.067   9.253   2.717
16385SOL     OW60808   3.963   2.475   7.328
16385SOL    HW160809   3.951   2.449   7.232
16385SOL    HW260810   4.010   2.402   7.377
16386SOL     OW60811   8.438   8.058   4.692
16386SOL    HW160812   8.504   8.084   4.762
16386SOL    HW260813   8.438   8.127   4.619
16387SOL     OW60814   4.355   9.486   6.153
16387SOL    HW160815   4.272   9.472   6.207
16387SOL    HW260816   4.404   9.567   6.185
16388SOL     OW60817   2.028   5.877   1.233
16388SOL    HW160818   2.078   5.888   1.319
16388SOL    HW260819   2.065   5.940   1.165
16389SOL     OW60820   2.221   3.665   5.999
16389SOL    HW160821   2.321   3.667   5.999
16389SOL    HW260822   2.187   3.700   5.911
16390SOL     OW60823   0.287   4.950   3.416
16390SOL    HW160824   0.239   4.990   3.494
16390SOL    HW260825   0.245   4.862   3.392
16391SOL     OW60826   7.248   2.395   4.879
16391SOL    HW160827   7.312   2.346   4.819
16391SOL    HW260828   7.289   2.481   4.908
16392SOL     OW60829   8.380   5.803   1.888
16392SOL    HW160830   8.421   5.836   1.973
16392SOL    HW260831   8.422   5.715   1.862
16393SOL     OW60832   0.139   8.606   5.919
16393SOL    HW160833   0.146   8.511   5.888
16393SOL    HW260834   0.204   8.621   5.993
16394SOL     OW60835   2.691   2.980   4.392
16394SOL    HW160836   2.728   3.070   4.412
16394SOL    HW260837   2.673   2.931   4.477
16395SOL     OW60838   3.364   3.476   0.856
16395SOL    HW160839   3.273   3.512   0.833
16395SOL    HW260840   3.367   3.453   0.953
16396SOL     OW60841   7.708   0.129   5.040
16396SOL    HW160842   7.735   0.040   5.004
16396SOL    HW260843   7.624   0.159   4.996
16397SOL     OW60844   8.963   6.791   3.158
16397SOL    HW160845   9.013   6.867   3.199
16397SOL    HW260846   9.018   6.708   3.165
16398SOL     OW60847   2.180   3.029   5.348
16398SOL    HW160848   2.204   2.992   5.437
16398SOL    HW260849   2.252   3.092   5.318
16399SOL     OW60850   8.877   3.915   6.687
16399SOL    HW160851   8.974   3.934   6.671
16399SOL    HW260852   8.823   3.955   6.612
16400SOL     OW60853   9.094   4.447   6.409
16400SOL    HW160854   9.104   4.529   6.353
16400SOL    HW260855   9.087   4.473   6.506
16401SOL     OW60856   0.583   1.796   7.532
16401SOL    HW160857   0.495   1.771   7.574
16401SOL    HW260858   0.627   1.715   7.495
16402SOL     OW60859   7.867   2.140   7.693
16402SOL    HW160860   7.887   2.165   7.599
16402SOL    HW260861   7.953   2.127   7.743
16403SOL     OW60862   5.761   0.050   1.785
16403SOL    HW160863   5.836   0.086   1.839
16403SOL    HW260864   5.792   0.031   1.692
16404SOL     OW60865   8.859   8.365   7.113
16404SOL    HW160866   8.796   8.311   7.057
16404SOL    HW260867   8.813   8.393   7.197
16405SOL     OW60868   7.020   1.423   0.484
16405SOL    HW160869   7.061   1.399   0.396
16405SOL    HW260870   6.991   1.519   0.482
16406SOL     OW60871   1.040   8.789   2.801
16406SOL    HW160872   0.965   8.831   2.749
16406SOL    HW260873   1.039   8.825   2.895
16407SOL     OW60874   1.868   0.329   2.877
16407SOL    HW160875   1.911   0.362   2.793
16407SOL    HW260876   1.908   0.242   2.904
16408SOL     OW60877   1.821   2.372   7.263
16408SOL    HW160878   1.726   2.386   7.292
16408SOL    HW260879   1.873   2.456   7.275
16409SOL     OW60880   5.183   0.831   7.455
16409SOL    HW160881   5.085   0.810   7.451
16409SOL    HW260882   5.205   0.872   7.544
16410SOL     OW60883   3.447   7.803   3.102
16410SOL    HW160884   3.430   7.705   3.112
16410SOL    HW260885   3.483   7.839   3.188
16411SOL     OW60886   4.673   7.115   4.616
16411SOL    HW160887   4.600   7.046   4.615
16411SOL    HW260888   4.641   7.197   4.661
16412SOL     OW60889   2.385   8.019   0.844
16412SOL    HW160890   2.322   8.060   0.910
16412SOL    HW260891   2.334   7.965   0.778
16413SOL     OW60892   0.332   3.948   0.788
16413SOL    HW160893   0.238   3.970   0.815
16413SOL    HW260894   0.373   4.028   0.744
16414SOL     OW60895   5.263   5.456   0.068
16414SOL    HW160896   5.236   5.435  10.056
16414SOL    HW260897   5.280   5.555   0.077
16415SOL     OW60898   1.221   5.468   0.045
16415SOL    HW160899   1.191   5.476  10.031
16415SOL    HW260900   1.231   5.559   0.085
16416SOL     OW60901   2.868   0.306   5.627
16416SOL    HW160902   2.881   0.251   5.545
16416SOL    HW260903   2.799   0.263   5.686
16417SOL     OW60904   3.926   4.381   4.499
16417SOL    HW160905   3.999   4.448   4.513
16417SOL    HW260906   3.851   4.423   4.448
16418SOL     OW60907   2.535   8.193   3.830
16418SOL    HW160908   2.596   8.263   3.792
16418SOL    HW260909   2.526   8.117   3.765
16419SOL     OW60910   6.942   9.822   2.790
16419SOL    HW160911   7.033   9.865   2.791
16419SOL    HW260912   6.889   9.860   2.714
16420SOL     OW60913   7.393   9.037   4.170
16420SOL    HW160914   7.391   8.991   4.082
16420SOL    HW260915   7.488   9.058   4.195
16421SOL     OW60916   1.375   3.754   3.314
16421SOL    HW160917   1.370   3.853   3.302
16421SOL    HW260918   1.374   3.709   3.224
16422SOL     OW60919   8.331   4.283   4.947
16422SOL    HW160920   8.377   4.203   4.984
16422SOL    HW260921   8.286   4.258   4.861
16423SOL     OW60922   2.378   3.326   5.012
16423SOL    HW160923   2.410   3.309   4.919
16423SOL    HW260924   2.338   3.243   5.050
16424SOL     OW60925   4.382   3.306   7.683
16424SOL    HW160926   4.455   3.335   7.620
16424SOL    HW260927   4.293   3.326   7.642
16425SOL     OW60928   3.590   4.670   1.115
16425SOL    HW160929   3.533   4.596   1.078
16425SOL    HW260930   3.604   4.740   1.045
16426SOL     OW60931   1.981   3.955   2.901
16426SOL    HW160932   1.886   3.965   2.875
16426SOL    HW260933   1.993   3.987   2.995
16427SOL     OW60934   3.728   1.599   2.577
16427SOL    HW160935   3.765   1.582   2.486
16427SOL    HW260936   3.802   1.592   2.644
16428SOL     OW60937   8.971   9.178   7.713
16428SOL    HW160938   8.877   9.200   7.736
16428SOL    HW260939   8.974   9.096   7.657
16429SOL     OW60940   0.822   0.440   6.092
16429SOL    HW160941   0.818   0.343   6.071
16429SOL    HW260942   0.739   0.485   6.060
16430SOL     OW60943   1.245   4.665   4.696
16430SOL    HW160944   1.328   4.609   4.697
16430SOL    HW260945   1.202   4.662   4.786
16431SOL     OW60946   9.827   0.278   4.863
16431SOL    HW160947   9.912   0.331   4.864
16431SOL    HW260948   9.802   0.253   4.956
16432SOL     OW60949   7.145   3.171   2.530
16432SOL    HW160950   7.244   3.178   2.524
16432SOL    HW260951   7.106   3.261   2.551
16433SOL     OW60952   6.460   7.955   3.374
16433SOL    HW160953   6.457   8.035   3.434
16433SOL    HW260954   6.439   7.872   3.427
16434SOL     OW60955   0.525   5.510   7.019
16434SOL    HW160956   0.617   5.481   7.044
16434SOL    HW260957   0.526   5.607   6.996
16435SOL     OW60958   6.054   0.549   2.682
16435SOL    HW160959   5.973   0.492   2.695
16435SOL    HW260960   6.026   0.645   2.670
16436SOL     OW60961   3.321   3.025   3.349
16436SOL    HW160962   3.268   2.965   3.409
16436SOL    HW260963   3.351   2.973   3.268
16437SOL     OW60964   6.670   9.299   2.701
16437SOL    HW160965   6.754   9.306   2.646
16437SOL    HW260966   6.654   9.386   2.748
16438SOL     OW60967   8.459   3.951   7.563
16438SOL    HW160968   8.435   3.855   7.579
16438SOL    HW260969   8.378   3.999   7.527
16439SOL     OW60970   9.088   7.687   1.491
16439SOL    HW160971   9.072   7.757   1.561
16439SOL    HW260972   9.092   7.597   1.535
16440SOL     OW60973   2.861   9.940   5.768
16440SOL    HW160974   2.867   9.907   5.673
16440SOL    HW260975   2.953   9.952   5.805
16441SOL     OW60976   2.669   1.429   7.610
16441SOL    HW160977   2.685   1.527   7.600
16441SOL    HW260978   2.572   1.413   7.632
16442SOL     OW60979   1.856   1.526   1.999
16442SOL    HW160980   1.838   1.508   2.096
16442SOL    HW260981   1.800   1.466   1.943
16443SOL     OW60982   2.369   0.727   3.392
16443SOL    HW160983   2.378   0.772   3.303
16443SOL    HW260984   2.341   0.795   3.460
16444SOL     OW60985   0.620   7.579   3.971
16444SOL    HW160986   0.558   7.636   3.918
16444SOL    HW260987   0.631   7.490   3.927
16445SOL     OW60988   0.580   9.207   7.301
16445SOL    HW160989   0.517   9.285   7.294
16445SOL    HW260990   0.597   9.187   7.398
16446SOL     OW60991   8.477   7.165   6.203
16446SOL    HW160992   8.570   7.129   6.210
16446SOL    HW260993   8.470   7.223   6.122
16447SOL     OW60994   8.025   6.827   0.118
16447SOL    HW160995   7.938   6.790   0.085
16447SOL    HW260996   8.016   6.852   0.215
16448SOL     OW60997   7.710   9.730   1.528
16448SOL    HW160998   7.666   9.749   1.440
16448SOL    HW260999   7.722   9.632   1.540
16449SOL     OW61000   3.216   7.693   7.547
16449SOL    HW161001   3.161   7.640   7.482
16449SOL    HW261002   3.206   7.655   7.639
16450SOL     OW61003   5.664   8.498   6.338
16450SOL    HW161004   5.599   8.423   6.350
16450SOL    HW261005   5.616   8.579   6.303
16451SOL     OW61006   3.154   9.519   6.117
16451SOL    HW161007   3.146   9.594   6.050
16451SOL    HW261008   3.111   9.437   6.080
16452SOL     OW61009   5.964   0.620   0.781
16452SOL    HW161010   5.943   0.610   0.878
16452SOL    HW261011   5.942   0.534   0.734
16453SOL     OW61012   8.210   1.856   4.756
16453SOL    HW161013   8.223   1.942   4.805
16453SOL    HW261014   8.291   1.799   4.767
16454SOL     OW61015   1.789   6.135   1.829
16454SOL    HW161016   1.804   6.116   1.926
16454SOL    HW261017   1.768   6.232   1.818
16455SOL     OW61018   0.529   2.898   4.018
16455SOL    HW161019   0.537   2.799   4.011
16455SOL    HW261020   0.434   2.923   4.038
16456SOL     OW61021   0.858   3.866   6.607
16456SOL    HW161022   0.921   3.939   6.581
16456SOL    HW261023   0.886   3.826   6.693
16457SOL     OW61024   3.519   2.185   3.889
16457SOL    HW161025   3.453   2.246   3.931
16457SOL    HW261026   3.544   2.221   3.799
16458SOL     OW61027   5.131   1.212   7.240
16458SOL    HW161028   5.123   1.250   7.332
16458SOL    HW261029   5.221   1.235   7.203
16459SOL     OW61030   7.387   6.553   7.374
16459SOL    HW161031   7.336   6.638   7.383
16459SOL    HW261032   7.485   6.573   7.365
16460SOL     OW61033   9.299   8.172   0.753
16460SOL    HW161034   9.392   8.173   0.789
16460SOL    HW261035   9.235   8.206   0.823
16461SOL     OW61036   6.634   1.743   5.354
16461SOL    HW161037   6.689   1.778   5.429
16461SOL    HW261038   6.692   1.693   5.290
16462SOL     OW61039   8.676   8.706   2.575
16462SOL    HW161040   8.587   8.751   2.575
16462SOL    HW261041   8.720   8.719   2.664
16463SOL     OW61042   1.130   4.881   3.489
16463SOL    HW161043   1.204   4.945   3.512
16463SOL    HW261044   1.167   4.788   3.486
16464SOL     OW61045   4.070   0.199   3.848
16464SOL    HW161046   4.030   0.176   3.760
16464SOL    HW261047   4.168   0.181   3.846
16465SOL     OW61048   3.067   7.891   3.472
16465SOL    HW161049   3.007   7.970   3.489
16465SOL    HW261050   3.075   7.876   3.374
16466SOL     OW61051   0.480   4.951   3.636
16466SOL    HW161052   0.424   4.947   3.553
16466SOL    HW261053   0.542   5.029   3.631
16467SOL     OW61054   6.145   8.249   6.450
16467SOL    HW161055   6.156   8.244   6.351
16467SOL    HW261056   6.158   8.344   6.480
16468SOL     OW61057   3.278   5.557   4.087
16468SOL    HW161058   3.367   5.512   4.091
16468SOL    HW261059   3.215   5.511   4.149
16469SOL     OW61060   4.965   0.535   4.324
16469SOL    HW161061   4.913   0.450   4.311
16469SOL    HW261062   4.977   0.552   4.421
16470SOL     OW61063   2.964   0.500   4.038
16470SOL    HW161064   2.999   0.571   3.977
16470SOL    HW261065   2.888   0.453   3.994
16471SOL     OW61066   7.441   8.717   1.415
16471SOL    HW161067   7.422   8.637   1.359
16471SOL    HW261068   7.517   8.768   1.376
16472SOL     OW61069   7.877   5.348   0.887
16472SOL    HW161070   7.964   5.354   0.838
16472SOL    HW261071   7.891   5.308   0.977
16473SOL     OW61072   4.837   9.290   4.007
16473SOL    HW161073   4.932   9.260   3.997
16473SOL    HW261074   4.797   9.248   4.089
16474SOL     OW61075   1.434   8.250   2.770
16474SOL    HW161076   1.394   8.301   2.846
16474SOL    HW261077   1.516   8.202   2.802
16475SOL     OW61078   7.428   8.416   3.500
16475SOL    HW161079   7.333   8.392   3.519
16475SOL    HW261080   7.440   8.515   3.510
16476SOL     OW61081   3.247   3.132   4.272
16476SOL    HW161082   3.292   3.219   4.292
16476SOL    HW261083   3.306   3.056   4.299
16477SOL     OW61084   2.095   4.201   0.357
16477SOL    HW161085   2.070   4.145   0.436
16477SOL    HW261086   2.182   4.248   0.376
16478SOL     OW61087   4.821   0.428   5.079
16478SOL    HW161088   4.858   0.521   5.086
16478SOL    HW261089   4.725   0.427   5.108
16479SOL     OW61090   2.595   4.917   0.102
16479SOL    HW161091   2.564   4.822   0.102
16479SOL    HW261092   2.673   4.926   0.040
16480SOL     OW61093   7.499   2.640   4.694
16480SOL    HW161094   7.465   2.615   4.785
16480SOL    HW261095   7.553   2.724   4.701
16481SOL     OW61096   3.895   5.066   0.325
16481SOL    HW161097   3.990   5.074   0.294
16481SOL    HW261098   3.854   5.157   0.330
16482SOL     OW61099   8.297   0.314   6.650
16482SOL    HW161100   8.202   0.302   6.678
16482SOL    HW261101   8.300   0.354   6.559
16483SOL     OW61102   1.923   0.772   7.354
16483SOL    HW161103   1.899   0.847   7.416
16483SOL    HW261104   1.926   0.686   7.405
16484SOL     OW61105   3.604   4.646   7.720
16484SOL    HW161106   3.621   4.668   7.816
16484SOL    HW261107   3.617   4.548   7.705
16485SOL     OW61108   0.277   4.894   4.642
16485SOL    HW161109   0.311   4.977   4.599
16485SOL    HW261110   0.178   4.887   4.628
16486SOL     OW61111   2.012   0.717   5.041
16486SOL    HW161112   1.971   0.636   5.083
16486SOL    HW261113   1.971   0.732   4.951
16487SOL     OW61114   1.394   7.744   1.082
16487SOL    HW161115   1.482   7.696   1.090
16487SOL    HW261116   1.361   7.736   0.988
16488SOL     OW61117   9.458   9.228   3.292
16488SOL    HW161118   9.535   9.175   3.326
16488SOL    HW261119   9.409   9.176   3.222
16489SOL     OW61120   5.347   1.044   3.377
16489SOL    HW161121   5.302   1.118   3.427
16489SOL    HW261122   5.322   0.956   3.418
16490SOL     OW61123   8.151   4.414   2.883
16490SOL    HW161124   8.174   4.509   2.860
16490SOL    HW261125   8.089   4.413   2.962
16491SOL     OW61126   6.815   2.242   0.754
16491SOL    HW161127   6.785   2.218   0.846
16491SOL    HW261128   6.807   2.340   0.740
16492SOL     OW61129   5.159   0.725   6.741
16492SOL    HW161130   5.200   0.753   6.828
16492SOL    HW261131   5.230   0.694   6.678
16493SOL     OW61132   5.156   8.313   1.080
16493SOL    HW161133   5.177   8.263   1.164
16493SOL    HW261134   5.229   8.378   1.061
16494SOL     OW61135   6.671   0.215   5.104
16494SOL    HW161136   6.584   0.233   5.150
16494SOL    HW261137   6.738   0.182   5.170
16495SOL     OW61138   1.359   6.228   6.990
16495SOL    HW161139   1.370   6.206   6.893
16495SOL    HW261140   1.316   6.151   7.037
16496SOL     OW61141   4.407   2.533   4.275
16496SOL    HW161142   4.381   2.545   4.179
16496SOL    HW261143   4.475   2.603   4.299
16497SOL     OW61144   4.146   1.048   6.810
16497SOL    HW161145   4.167   1.074   6.716
16497SOL    HW261146   4.185   0.958   6.829
16498SOL     OW61147   3.243   6.575   4.286
16498SOL    HW161148   3.144   6.572   4.268
16498SOL    HW261149   3.266   6.509   4.357
16499SOL     OW61150   1.382   2.767   7.501
16499SOL    HW161151   1.295   2.722   7.518
16499SOL    HW261152   1.444   2.749   7.577
16500SOL     OW61153   7.967   6.299   6.080
16500SOL    HW161154   8.013   6.385   6.059
16500SOL    HW261155   8.024   6.245   6.142
16501SOL     OW61156   1.668   4.700   2.933
16501SOL    HW161157   1.615   4.729   3.013
16501SOL    HW261158   1.606   4.678   2.858
16502SOL     OW61159   5.983   1.213   1.840
16502SOL    HW161160   5.910   1.227   1.773
16502SOL    HW261161   6.028   1.300   1.860
16503SOL     OW61162   0.980   7.767   6.210
16503SOL    HW161163   0.999   7.678   6.168
16503SOL    HW261164   1.065   7.808   6.243
16504SOL     OW61165   0.295   3.750   1.190
16504SOL    HW161166   0.310   3.674   1.254
16504SOL    HW261167   0.223   3.725   1.126
16505SOL     OW61168   2.568   8.728   6.910
16505SOL    HW161169   2.508   8.744   6.832
16505SOL    HW261170   2.526   8.660   6.970
16506SOL     OW61171   6.974   1.188   4.249
16506SOL    HW161172   6.972   1.225   4.156
16506SOL    HW261173   6.885   1.150   4.271
16507SOL     OW61174   1.665   8.091   1.044
16507SOL    HW161175   1.644   8.154   1.119
16507SOL    HW261176   1.613   8.007   1.055
16508SOL     OW61177   0.270   2.661   5.036
16508SOL    HW161178   0.256   2.690   4.942
16508SOL    HW261179   0.364   2.630   5.049
16509SOL     OW61180   4.487   0.910   4.242
16509SOL    HW161181   4.503   0.812   4.252
16509SOL    HW261182   4.452   0.947   4.328
16510SOL     OW61183   1.059   7.697   3.146
16510SOL    HW161184   1.066   7.795   3.129
16510SOL    HW261185   0.967   7.666   3.121
16511SOL     OW61186   0.171   5.572   7.821
16511SOL    HW161187   0.262   5.593   7.857
16511SOL    HW261188   0.175   5.559   7.722
16512SOL     OW61189   6.155   7.974   4.879
16512SOL    HW161190   6.095   8.049   4.908
16512SOL    HW261191   6.160   7.905   4.951
16513SOL     OW61192   2.248   0.021   4.159
16513SOL    HW161193   2.206   0.026   4.249
16513SOL    HW261194   2.340   0.060   4.163
16514SOL     OW61195   9.853   6.396   2.333
16514SOL    HW161196   9.897   6.448   2.259
16514SOL    HW261197   9.866   6.444   2.420
16515SOL     OW61198   0.555   6.153   0.511
16515SOL    HW161199   0.499   6.235   0.523
16515SOL    HW261200   0.630   6.153   0.578
16516SOL     OW61201   7.035   5.998   1.709
16516SOL    HW161202   7.113   5.978   1.769
16516SOL    HW261203   6.964   5.929   1.724
16517SOL     OW61204   8.446   6.804   2.637
16517SOL    HW161205   8.447   6.758   2.548
16517SOL    HW261206   8.533   6.788   2.684
16518SOL     OW61207   9.166   2.610   4.915
16518SOL    HW161208   9.135   2.692   4.964
16518SOL    HW261209   9.199   2.543   4.981
16519SOL     OW61210   8.519   6.398   3.489
16519SOL    HW161211   8.536   6.427   3.395
16519SOL    HW261212   8.588   6.440   3.549
16520SOL     OW61213   1.591   8.273   0.077
16520SOL    HW161214   1.607   8.365   0.042
16520SOL    HW261215   1.496   8.265   0.109
16521SOL     OW61216   0.586   3.399   0.939
16521SOL    HW161217   0.519   3.369   0.871
16521SOL    HW261218   0.561   3.489   0.973
16522SOL     OW61219   5.795   0.988   1.130
16522SOL    HW161220   5.708   1.010   1.086
16522SOL    HW261221   5.870   1.010   1.068
16523SOL     OW61222   1.533   5.847   7.323
16523SOL    HW161223   1.505   5.761   7.365
16523SOL    HW261224   1.517   5.842   7.224
16524SOL     OW61225   5.865   4.580   7.784
16524SOL    HW161226   5.768   4.565   7.764
16524SOL    HW261227   5.902   4.646   7.719
16525SOL     OW61228   5.082   1.290   7.501
16525SOL    HW161229   5.003   1.337   7.542
16525SOL    HW261230   5.166   1.323   7.544
16526SOL     OW61231   9.463   2.095   4.927
16526SOL    HW161232   9.413   2.045   4.856
16526SOL    HW261233   9.398   2.142   4.987
16527SOL     OW61234   7.945   8.784   5.272
16527SOL    HW161235   7.893   8.699   5.281
16527SOL    HW261236   7.885   8.856   5.236
16528SOL     OW61237   4.178   4.303   6.800
16528SOL    HW161238   4.166   4.210   6.836
16528SOL    HW261239   4.172   4.300   6.700
16529SOL     OW61240   0.340   3.810   6.543
16529SOL    HW161241   0.435   3.819   6.571
16529SOL    HW261242   0.291   3.895   6.565
16530SOL     OW61243   2.922   8.753   0.619
16530SOL    HW161244   2.964   8.662   0.630
16530SOL    HW261245   2.972   8.804   0.549
16531SOL     OW61246   2.778   3.743   7.107
16531SOL    HW161247   2.695   3.705   7.148
16531SOL    HW261248   2.791   3.837   7.140
16532SOL     OW61249   6.591   9.894   7.591
16532SOL    HW161250   6.587   9.800   7.623
16532SOL    HW261251   6.657   9.902   7.516
16533SOL     OW61252   5.972   1.694   5.321
16533SOL    HW161253   5.981   1.712   5.419
16533SOL    HW261254   6.047   1.636   5.290
16534SOL     OW61255   5.963   8.475   2.936
16534SOL    HW161256   5.986   8.524   2.852
16534SOL    HW261257   5.967   8.539   3.013
16535SOL     OW61258   7.802   9.649   2.246
16535SOL    HW161259   7.832   9.659   2.340
16535SOL    HW261260   7.750   9.564   2.236
16536SOL     OW61261   9.316   8.147   5.780
16536SOL    HW161262   9.373   8.068   5.753
16536SOL    HW261263   9.220   8.128   5.759
16537SOL     OW61264   0.737   8.111   5.083
16537SOL    HW161265   0.771   8.073   5.169
16537SOL    HW261266   0.777   8.060   5.006
16538SOL     OW61267   7.726   4.751   3.239
16538SOL    HW161268   7.721   4.834   3.294
16538SOL    HW261269   7.648   4.693   3.259
16539SOL     OW61270   0.780   1.320   7.649
16539SOL    HW161271   0.739   1.323   7.558
16539SOL    HW261272   0.847   1.394   7.658
16540SOL     OW61273   7.283   4.415   2.606
16540SOL    HW161274   7.218   4.479   2.647
16540SOL    HW261275   7.330   4.364   2.678
16541SOL     OW61276   3.855   7.497   0.548
16541SOL    HW161277   3.778   7.546   0.588
16541SOL    HW261278   3.822   7.411   0.508
16542SOL     OW61279   8.241   8.403   1.041
16542SOL    HW161280   8.180   8.466   1.089
16542SOL    HW261281   8.199   8.373   0.956
16543SOL     OW61282   3.442   8.936   4.363
16543SOL    HW161283   3.502   9.014   4.346
16543SOL    HW261284   3.495   8.851   4.358
16544SOL     OW61285   1.530   7.756   4.453
16544SOL    HW161286   1.560   7.670   4.494
16544SOL    HW261287   1.610   7.814   4.436
16545SOL     OW61288   9.432   0.089   6.415
16545SOL    HW161289   9.416   0.178   6.372
16545SOL    HW261290   9.382   0.084   6.501
16546SOL     OW61291   8.457   1.304   5.307
16546SOL    HW161292   8.376   1.256   5.342
16546SOL    HW261293   8.521   1.237   5.269
16547SOL     OW61294   9.361   6.370   4.177
16547SOL    HW161295   9.273   6.414   4.193
16547SOL    HW261296   9.378   6.364   4.078
16548SOL     OW61297   9.766   5.110   6.410
16548SOL    HW161298   9.838   5.169   6.448
16548SOL    HW261299   9.770   5.113   6.310
16549SOL     OW61300   3.532   8.601   6.876
16549SOL    HW161301   3.567   8.695   6.873
16549SOL    HW261302   3.458   8.595   6.944
16550SOL     OW61303   1.697   3.457   5.322
16550SOL    HW161304   1.641   3.374   5.317
16550SOL    HW261305   1.672   3.519   5.248
16551SOL     OW61306   7.209   8.226   7.916
16551SOL    HW161307   7.308   8.228   7.902
16551SOL    HW261308   7.187   8.157   7.985
16552SOL     OW61309   0.839   4.563   2.864
16552SOL    HW161310   0.812   4.654   2.896
16552SOL    HW261311   0.757   4.507   2.853
16553SOL     OW61312   0.826   9.933   0.331
16553SOL    HW161313   0.787   0.011   0.381
16553SOL    HW261314   0.902   9.965   0.274
16554SOL     OW61315   3.566   7.887   5.247
16554SOL    HW161316   3.543   7.976   5.208
16554SOL    HW261317   3.495   7.821   5.225
16555SOL     OW61318   6.039   0.855   3.185
16555SOL    HW161319   6.136   0.831   3.192
16555SOL    HW261320   6.006   0.834   3.093
16556SOL     OW61321   2.504   4.663   0.121
16556SOL    HW161322   2.436   4.683   0.192
16556SOL    HW261323   2.576   4.606   0.158
16557SOL     OW61324   5.739   8.497   6.610
16557SOL    HW161325   5.746   8.404   6.646
16557SOL    HW261326   5.727   8.494   6.511
16558SOL     OW61327   8.829   8.424   5.744
16558SOL    HW161328   8.834   8.342   5.802
16558SOL    HW261329   8.917   8.469   5.741
16559SOL     OW61330   2.537   6.856   1.762
16559SOL    HW161331   2.619   6.823   1.809
16559SOL    HW261332   2.513   6.792   1.689
16560SOL     OW61333   0.913   4.364   4.144
16560SOL    HW161334   1.000   4.323   4.117
16560SOL    HW261335   0.866   4.400   4.063
16561SOL     OW61336   8.548   1.521   7.584
16561SOL    HW161337   8.558   1.510   7.486
16561SOL    HW261338   8.489   1.600   7.603
16562SOL     OW61339   2.195   1.778   5.320
16562SOL    HW161340   2.222   1.776   5.223
16562SOL    HW261341   2.201   1.871   5.355
16563SOL     OW61342   2.018   4.324   5.232
16563SOL    HW161343   2.005   4.380   5.150
16563SOL    HW261344   2.109   4.341   5.269
16564SOL     OW61345   0.050   9.311   7.266
16564SOL    HW161346   9.953   9.330   7.282
16564SOL    HW261347   0.059   9.236   7.201
16565SOL     OW61348   6.168   2.241   0.437
16565SOL    HW161349   6.113   2.158   0.432
16565SOL    HW261350   6.261   2.218   0.463
16566SOL     OW61351   1.859   9.197   6.960
16566SOL    HW161352   1.784   9.144   7.001
16566SOL    HW261353   1.898   9.258   7.029
16567SOL     OW61354   3.299   7.944   4.381
16567SOL    HW161355   3.251   7.973   4.463
16567SOL    HW261356   3.329   7.849   4.391
16568SOL     OW61357   2.479   3.415   2.362
16568SOL    HW161358   2.426   3.388   2.282
16568SOL    HW261359   2.543   3.487   2.337
16569SOL     OW61360   4.095   5.102   2.169
16569SOL    HW161361   4.132   5.129   2.257
16569SOL    HW261362   4.100   5.003   2.159
16570SOL     OW61363   0.677   3.933   2.751
16570SOL    HW161364   0.655   3.903   2.844
16570SOL    HW261365   0.700   4.031   2.752
16571SOL     OW61366   5.490   9.548   6.104
16571SOL    HW161367   5.454   9.639   6.085
16571SOL    HW261368   5.588   9.547   6.086
16572SOL     OW61369   8.673   5.330   0.213
16572SOL    HW161370   8.603   5.277   0.166
16572SOL    HW261371   8.681   5.420   0.171
16573SOL     OW61372   7.566   8.708   1.925
16573SOL    HW161373   7.546   8.620   1.882
16573SOL    HW261374   7.539   8.704   2.022
16574SOL     OW61375   3.486   8.058   4.676
16574SOL    HW161376   3.402   8.038   4.625
16574SOL    HW261377   3.565   8.030   4.621
16575SOL     OW61378   8.961   1.794   2.190
16575SOL    HW161379   8.895   1.791   2.115
16575SOL    HW261380   8.928   1.740   2.267
16576SOL     OW61381   0.144   9.041   4.509
16576SOL    HW161382   0.103   9.068   4.422
16576SOL    HW261383   0.073   9.038   4.580
16577SOL     OW61384   4.759   7.167   1.593
16577SOL    HW161385   4.799   7.211   1.673
16577SOL    HW261386   4.830   7.147   1.526
16578SOL     OW61387   9.200   3.640   5.045
16578SOL    HW161388   9.186   3.738   5.054
16578SOL    HW261389   9.136   3.604   4.977
16579SOL     OW61390   5.284   7.599   3.901
16579SOL    HW161391   5.198   7.594   3.850
16579SOL    HW261392   5.355   7.551   3.850
16580SOL     OW61393   7.094   7.287   2.128
16580SOL    HW161394   7.065   7.379   2.153
16580SOL    HW261395   7.120   7.286   2.031
16581SOL     OW61396   0.615   6.978   5.498
16581SOL    HW161397   0.553   6.911   5.538
16581SOL    HW261398   0.678   7.011   5.568
16582SOL     OW61399   5.680   9.790   7.612
16582SOL    HW161400   5.620   9.718   7.577
16582SOL    HW261401   5.761   9.749   7.654
16583SOL     OW61402   2.914   1.522   1.085
16583SOL    HW161403   2.869   1.433   1.076
16583SOL    HW261404   2.890   1.580   1.008
16584SOL     OW61405   1.013   9.362   2.263
16584SOL    HW161406   1.062   9.447   2.241
16584SOL    HW261407   0.930   9.357   2.208
16585SOL     OW61408   0.783   0.566   1.449
16585SOL    HW161409   0.738   0.477   1.462
16585SOL    HW261410   0.729   0.621   1.385
16586SOL     OW61411   7.634   3.040   1.428
16586SOL    HW161412   7.629   2.997   1.338
16586SOL    HW261413   7.570   2.996   1.490
16587SOL     OW61414   1.671   9.968   4.412
16587SOL    HW161415   1.660   0.026   4.332
16587SOL    HW261416   1.751   9.997   4.464
16588SOL     OW61417   9.360   9.006   3.099
16588SOL    HW161418   9.324   8.942   3.030
16588SOL    HW261419   9.392   8.954   3.178
16589SOL     OW61420   2.203   5.894   0.084
16589SOL    HW161421   2.252   5.929   0.164
16589SOL    HW261422   2.268   5.860   0.017
16590SOL     OW61423   6.875   1.464   2.692
16590SOL    HW161424   6.915   1.544   2.646
16590SOL    HW261425   6.927   1.382   2.669
16591SOL     OW61426   8.297   6.247   3.540
16591SOL    HW161427   8.377   6.306   3.530
16591SOL    HW261428   8.309   6.187   3.619
16592SOL     OW61429   6.545   7.963   7.058
16592SOL    HW161430   6.564   7.897   6.985
16592SOL    HW261431   6.532   8.054   7.019
16593SOL     OW61432   2.563   5.202   5.895
16593SOL    HW161433   2.626   5.126   5.881
16593SOL    HW261434   2.536   5.205   5.991
16594SOL     OW61435   3.392   1.839   0.074
16594SOL    HW161436   3.360   1.917   0.128
16594SOL    HW261437   3.492   1.841   0.070
16595SOL     OW61438   0.441   6.059   3.861
16595SOL    HW161439   0.417   6.131   3.927
16595SOL    HW261440   0.494   5.988   3.906
16596SOL     OW61441   4.452   4.988   2.575
16596SOL    HW161442   4.426   5.081   2.603
16596SOL    HW261443   4.530   4.992   2.514
16597SOL     OW61444   7.840   3.547   3.299
16597SOL    HW161445   7.901   3.555   3.378
16597SOL    HW261446   7.893   3.557   3.215
16598SOL     OW61447   1.312   9.187   6.917
16598SOL    HW161448   1.370   9.199   6.997
16598SOL    HW261449   1.369   9.158   6.839
16599SOL     OW61450   4.204   3.529   6.429
16599SOL    HW161451   4.242   3.437   6.415
16599SOL    HW261452   4.107   3.522   6.450
16600SOL     OW61453   9.795   0.863   4.285
16600SOL    HW161454   9.764   0.821   4.200
16600SOL    HW261455   9.886   0.902   4.272
16601SOL     OW61456   1.003   1.261   1.201
16601SOL    HW161457   1.091   1.297   1.169
16601SOL    HW261458   0.928   1.314   1.161
16602SOL     OW61459   8.789   8.579   1.460
16602SOL    HW161460   8.819   8.590   1.554
16602SOL    HW261461   8.867   8.582   1.398
16603SOL     OW61462   1.913   7.980   6.668
16603SOL    HW161463   1.897   7.916   6.743
16603SOL    HW261464   2.007   8.013   6.672
16604SOL     OW61465   0.015   5.847   0.749
16604SOL    HW161466   9.921   5.811   0.748
16604SOL    HW261467   0.018   5.935   0.702
16605SOL     OW61468   3.855   6.528   1.000
16605SOL    HW161469   3.899   6.606   0.955
16605SOL    HW261470   3.772   6.558   1.046
16606SOL     OW61471   8.132   4.091   1.474
16606SOL    HW161472   8.088   4.077   1.563
16606SOL    HW261473   8.062   4.114   1.406
16607SOL     OW61474   0.901   8.115   7.137
16607SOL    HW161475   0.862   8.125   7.045
16607SOL    HW261476   0.874   8.194   7.193
16608SOL     OW61477   7.789   6.237   1.490
16608SOL    HW161478   7.825   6.262   1.400
16608SOL    HW261479   7.844   6.164   1.529
16609SOL     OW61480   0.642   1.313   7.400
16609SOL    HW161481   0.651   1.314   7.301
16609SOL    HW261482   0.584   1.237   7.428
16610SOL     OW61483   4.286   4.314   7.485
16610SOL    HW161484   4.326   4.392   7.438
16610SOL    HW261485   4.224   4.265   7.424
16611SOL     OW61486   4.554   1.644   7.111
16611SOL    HW161487   4.466   1.634   7.157
16611SOL    HW261488   4.603   1.722   7.150
16612SOL     OW61489   7.791   7.731   4.517
16612SOL    HW161490   7.700   7.771   4.531
16612SOL    HW261491   7.821   7.687   4.602
16613SOL     OW61492   8.709   7.410   2.524
16613SOL    HW161493   8.644   7.334   2.516
16613SOL    HW261494   8.774   7.390   2.597
16614SOL     OW61495   9.766   8.610   3.313
16614SOL    HW161496   9.737   8.676   3.243
16614SOL    HW261497   9.749   8.517   3.280
16615SOL     OW61498   9.912   7.081   4.088
16615SOL    HW161499   9.908   7.091   3.989
16615SOL    HW261500   9.870   7.161   4.131
16616SOL     OW61501   2.198   6.526   2.359
16616SOL    HW161502   2.196   6.452   2.426
16616SOL    HW261503   2.110   6.533   2.313
16617SOL     OW61504   0.235   7.187   6.223
16617SOL    HW161505   0.203   7.201   6.317
16617SOL    HW261506   0.158   7.199   6.159
16618SOL     OW61507   9.285   3.787   0.790
16618SOL    HW161508   9.321   3.711   0.736
16618SOL    HW261509   9.194   3.812   0.756
16619SOL     OW61510   3.418   7.023   5.967
16619SOL    HW161511   3.399   7.119   5.987
16619SOL    HW261512   3.401   7.006   5.870
16620SOL     OW61513   5.223   1.282   3.920
16620SOL    HW161514   5.241   1.262   4.016
16620SOL    HW261515   5.150   1.351   3.914
16621SOL     OW61516   3.497   1.079   3.679
16621SOL    HW161517   3.422   1.029   3.634
16621SOL    HW261518   3.499   1.173   3.645
16622SOL     OW61519   9.476   0.334   1.101
16622SOL    HW161520   9.575   0.344   1.106
16622SOL    HW261521   9.434   0.367   1.186
16623SOL     OW61522   8.246   8.019   6.531
16623SOL    HW161523   8.266   8.027   6.434
16623SOL    HW261524   8.188   8.096   6.560
16624SOL     OW61525   5.163   2.466   1.234
16624SOL    HW161526   5.156   2.483   1.333
16624SOL    HW261527   5.235   2.398   1.218
16625SOL     OW61528   0.429   9.293   2.621
16625SOL    HW161529   0.340   9.281   2.578
16625SOL    HW261530   0.426   9.258   2.715
16626SOL     OW61531   0.523   5.302   6.372
16626SOL    HW161532   0.571   5.306   6.460
16626SOL    HW261533   0.490   5.394   6.348
16627SOL     OW61534   0.214   2.103   3.653
16627SOL    HW161535   0.279   2.142   3.718
16627SOL    HW261536   0.150   2.043   3.702
16628SOL     OW61537   6.166   1.209   4.279
16628SOL    HW161538   6.186   1.119   4.241
16628SOL    HW261539   6.071   1.234   4.257
16629SOL     OW61540   3.863   0.957   3.952
16629SOL    HW161541   3.862   0.908   3.865
16629SOL    HW261542   3.774   0.946   3.998
16630SOL     OW61543   3.995   4.516   5.967
16630SOL    HW161544   3.910   4.478   5.931
16630SOL    HW261545   4.031   4.455   6.037
16631SOL     OW61546   5.357   0.958   6.600
16631SOL    HW161547   5.299   0.987   6.677
16631SOL    HW261548   5.453   0.969   6.625
16632SOL     OW61549   9.913   2.353   3.619
16632SOL    HW161550   9.945   2.272   3.569
16632SOL    HW261551   9.992   2.404   3.653
16633SOL     OW61552   2.336   3.459   5.448
16633SOL    HW161553   2.249   3.450   5.496
16633SOL    HW261554   2.320   3.485   5.353
16634SOL     OW61555   0.671   1.006   7.280
16634SOL    HW161556   0.611   0.945   7.228
16634SOL    HW261557   0.624   1.037   7.362
16635SOL     OW61558   2.126   5.328   7.539
16635SOL    HW161559   2.184   5.337   7.620
16635SOL    HW261560   2.124   5.415   7.490
16636SOL     OW61561   3.261   9.091   2.094
16636SOL    HW161562   3.280   8.995   2.118
16636SOL    HW261563   3.338   9.148   2.124
16637SOL     OW61564   0.307   7.526   0.020
16637SOL    HW161565   0.350   7.616   0.029
16637SOL    HW261566   0.262   7.519  10.013
16638SOL     OW61567   3.037   7.712   6.493
16638SOL    HW161568   2.947   7.671   6.510
16638SOL    HW261569   3.029   7.812   6.499
16639SOL     OW61570   5.498   9.739   7.137
16639SOL    HW161571   5.541   9.702   7.219
16639SOL    HW261572   5.549   9.710   7.056
16640SOL     OW61573   9.108   9.254   3.546
16640SOL    HW161574   9.077   9.334   3.598
16640SOL    HW261575   9.037   9.226   3.481
16641SOL     OW61576   8.699   2.203   1.163
16641SOL    HW161577   8.643   2.122   1.149
16641SOL    HW261578   8.698   2.260   1.081
16642SOL     OW61579   0.161   3.031   0.846
16642SOL    HW161580   0.136   2.944   0.804
16642SOL    HW261581   0.102   3.048   0.925
16643SOL     OW61582   6.846   3.296   1.665
16643SOL    HW161583   6.765   3.280   1.722
16643SOL    HW261584   6.821   3.286   1.569
16644SOL     OW61585   8.785   7.008   7.322
16644SOL    HW161586   8.750   6.914   7.322
16644SOL    HW261587   8.817   7.032   7.414
16645SOL     OW61588   5.504   0.191   5.042
16645SOL    HW161589   5.428   0.238   5.087
16645SOL    HW261590   5.524   0.236   4.955
16646SOL     OW61591   7.564   2.745   4.097
16646SOL    HW161592   7.524   2.836   4.098
16646SOL    HW261593   7.514   2.686   4.160
16647SOL     OW61594   6.877   8.622   6.394
16647SOL    HW161595   6.871   8.549   6.325
16647SOL    HW261596   6.784   8.645   6.425
16648SOL     OW61597   9.569   7.284   0.153
16648SOL    HW161598   9.568   7.203   0.095
16648SOL    HW261599   9.657   7.330   0.146
16649SOL     OW61600   1.408   4.077   5.431
16649SOL    HW161601   1.323   4.097   5.479
16649SOL    HW261602   1.481   4.062   5.497
16650SOL     OW61603   1.262   2.923   5.205
16650SOL    HW161604   1.333   2.911   5.136
16650SOL    HW261605   1.251   3.021   5.224
16651SOL     OW61606   8.434   0.456   4.345
16651SOL    HW161607   8.377   0.499   4.275
16651SOL    HW261608   8.375   0.408   4.410
16652SOL     OW61609   2.183   7.035   5.295
16652SOL    HW161610   2.209   7.070   5.204
16652SOL    HW261611   2.085   7.015   5.296
16653SOL     OW61612   2.105   1.441   0.688
16653SOL    HW161613   2.010   1.432   0.659
16653SOL    HW261614   2.110   1.487   0.776
16654SOL     OW61615   1.398   1.118   7.366
16654SOL    HW161616   1.344   1.173   7.430
16654SOL    HW261617   1.454   1.179   7.309
16655SOL     OW61618   5.511   6.453   0.190
16655SOL    HW161619   5.567   6.534   0.175
16655SOL    HW261620   5.553   6.374   0.145
16656SOL     OW61621   1.004   8.568   2.554
16656SOL    HW161622   1.018   8.621   2.638
16656SOL    HW261623   0.930   8.502   2.567
16657SOL     OW61624   5.648   8.511   5.355
16657SOL    HW161625   5.692   8.600   5.363
16657SOL    HW261626   5.552   8.519   5.382
16658SOL     OW61627   0.598   8.041   2.618
16658SOL    HW161628   0.591   8.129   2.572
16658SOL    HW261629   0.571   8.051   2.714
16659SOL     OW61630   3.374   5.907   7.932
16659SOL    HW161631   3.320   5.824   7.916
16659SOL    HW261632   3.330   5.963   8.002
16660SOL     OW61633   7.562   3.847   7.740
16660SOL    HW161634   7.593   3.841   7.646
16660SOL    HW261635   7.502   3.927   7.751
16661SOL     OW61636   1.395   1.002   5.288
16661SOL    HW161637   1.305   1.007   5.330
16661SOL    HW261638   1.425   0.907   5.284
16662SOL     OW61639   9.049   1.401   1.463
16662SOL    HW161640   9.112   1.476   1.482
16662SOL    HW261641   9.098   1.314   1.465
16663SOL     OW61642   5.079   9.817   4.578
16663SOL    HW161643   5.109   9.761   4.655
16663SOL    HW261644   5.085   9.914   4.602
16664SOL     OW61645   4.029   5.851   2.565
16664SOL    HW161646   4.021   5.752   2.569
16664SOL    HW261647   4.031   5.880   2.469
16665SOL     OW61648   6.437   9.171   3.659
16665SOL    HW161649   6.496   9.219   3.724
16665SOL    HW261650   6.345   9.210   3.661
16666SOL     OW61651   8.448   1.121   4.224
16666SOL    HW161652   8.496   1.038   4.253
16666SOL    HW261653   8.418   1.172   4.304
16667SOL     OW61654   8.392   3.444   7.306
16667SOL    HW161655   8.469   3.491   7.348
16667SOL    HW261656   8.416   3.349   7.289
16668SOL     OW61657   8.772   9.666   0.485
16668SOL    HW161658   8.783   9.766   0.482
16668SOL    HW261659   8.677   9.643   0.502
16669SOL     OW61660   1.914   5.851   2.434
16669SOL    HW161661   1.965   5.900   2.505
16669SOL    HW261662   1.970   5.843   2.351
16670SOL     OW61663   2.381   3.965   7.054
16670SOL    HW161664   2.312   4.007   7.113
16670SOL    HW261665   2.463   4.022   7.053
16671SOL     OW61666   3.381   5.027   5.269
16671SOL    HW161667   3.323   5.104   5.245
16671SOL    HW261668   3.393   5.025   5.368
16672SOL     OW61669   1.979   2.681   3.903
16672SOL    HW161670   1.996   2.778   3.924
16672SOL    HW261671   2.013   2.624   3.978
16673SOL     OW61672   5.273   1.048   5.545
16673SOL    HW161673   5.326   1.052   5.460
16673SOL    HW261674   5.264   0.952   5.574
16674SOL     OW61675   9.177   3.991   6.195
16674SOL    HW161676   9.200   4.076   6.242
16674SOL    HW261677   9.254   3.963   6.138
16675SOL     OW61678   7.529   7.660   5.395
16675SOL    HW161679   7.512   7.563   5.413
16675SOL    HW261680   7.443   7.704   5.369
16676SOL     OW61681   7.832   2.723   4.886
16676SOL    HW161682   7.817   2.626   4.903
16676SOL    HW261683   7.759   2.759   4.828
16677SOL     OW61684   7.658   7.566   0.865
16677SOL    HW161685   7.701   7.545   0.777
16677SOL    HW261686   7.669   7.663   0.885
16678SOL     OW61687   3.027   8.721   2.126
16678SOL    HW161688   2.998   8.737   2.032
16678SOL    HW261689   2.951   8.740   2.188
16679SOL     OW61690   9.245   9.351   4.504
16679SOL    HW161691   9.279   9.342   4.411
16679SOL    HW261692   9.299   9.293   4.565
16680SOL     OW61693   0.237   9.281   6.131
16680SOL    HW161694   0.175   9.203   6.138
16680SOL    HW261695   0.184   9.364   6.113
16681SOL     OW61696   4.532   8.095   3.818
16681SOL    HW161697   4.556   8.153   3.895
16681SOL    HW261698   4.603   8.103   3.747
16682SOL     OW61699   4.226   0.258   3.312
16682SOL    HW161700   4.278   0.343   3.303
16682SOL    HW261701   4.131   0.280   3.334
16683SOL     OW61702   8.958   7.805   5.662
16683SOL    HW161703   9.041   7.749   5.664
16683SOL    HW261704   8.938   7.832   5.568
16684SOL     OW61705   1.291   9.115   5.482
16684SOL    HW161706   1.347   9.196   5.501
16684SOL    HW261707   1.207   9.119   5.538
16685SOL     OW61708   7.383   5.623   7.919
16685SOL    HW161709   7.406   5.692   7.850
16685SOL    HW261710   7.461   5.612   7.981
16686SOL     OW61711   0.989   8.686   5.240
16686SOL    HW161712   0.947   8.595   5.235
16686SOL    HW261713   0.932   8.747   5.294
16687SOL     OW61714   3.681   2.850   7.826
16687SOL    HW161715   3.631   2.764   7.830
16687SOL    HW261716   3.778   2.832   7.844
16688SOL     OW61717   0.360   5.086   0.387
16688SOL    HW161718   0.323   5.179   0.384
16688SOL    HW261719   0.444   5.082   0.333
16689SOL     OW61720   6.205   3.529   1.166
16689SOL    HW161721   6.176   3.457   1.229
16689SOL    HW261722   6.207   3.493   1.073
16690SOL     OW61723   8.061   5.656   6.459
16690SOL    HW161724   8.060   5.568   6.506
16690SOL    HW261725   8.152   5.674   6.422
16691SOL     OW61726   9.069   5.155   4.089
16691SOL    HW161727   9.098   5.221   4.020
16691SOL    HW261728   8.981   5.185   4.128
16692SOL     OW61729   3.071   8.870   6.163
16692SOL    HW161730   3.037   8.810   6.091
16692SOL    HW261731   3.164   8.843   6.187
16693SOL     OW61732   0.610   1.302   3.064
16693SOL    HW161733   0.653   1.365   3.000
16693SOL    HW261734   0.664   1.298   3.149
16694SOL     OW61735   9.459   2.921   0.617
16694SOL    HW161736   9.548   2.904   0.573
16694SOL    HW261737   9.472   2.985   0.693
16695SOL     OW61738   2.260   2.162   6.173
16695SOL    HW161739   2.192   2.143   6.102
16695SOL    HW261740   2.226   2.128   6.261
16696SOL     OW61741   5.247   7.875   4.789
16696SOL    HW161742   5.265   7.847   4.883
16696SOL    HW261743   5.306   7.823   4.726
16697SOL     OW61744   1.826   1.185   5.690
16697SOL    HW161745   1.737   1.229   5.685
16697SOL    HW261746   1.871   1.210   5.776
16698SOL     OW61747   6.313   1.372   5.108
16698SOL    HW161748   6.310   1.277   5.140
16698SOL    HW261749   6.284   1.375   5.012
16699SOL     OW61750   9.283   4.506   7.218
16699SOL    HW161751   9.347   4.473   7.149
16699SOL    HW261752   9.189   4.483   7.190
16700SOL     OW61753   8.159   3.850   7.084
16700SOL    HW161754   8.148   3.766   7.031
16700SOL    HW261755   8.226   3.834   7.157
16701SOL     OW61756   1.144   4.296   6.984
16701SOL    HW161757   1.125   4.361   7.057
16701SOL    HW261758   1.139   4.203   7.020
16702SOL     OW61759   3.258   7.451   3.935
16702SOL    HW161760   3.227   7.529   3.988
16702SOL    HW261761   3.183   7.418   3.877
16703SOL     OW61762   9.655   1.999   6.148
16703SOL    HW161763   9.580   2.016   6.212
16703SOL    HW261764   9.722   2.073   6.153
16704SOL     OW61765   8.310   0.339   0.917
16704SOL    HW161766   8.369   0.409   0.877
16704SOL    HW261767   8.337   0.323   1.012
16705SOL     OW61768   3.877   4.029   1.003
16705SOL    HW161769   3.920   4.089   0.935
16705SOL    HW261770   3.945   4.002   1.071
16706SOL     OW61771   1.854   9.497   0.940
16706SOL    HW161772   1.897   9.572   0.991
16706SOL    HW261773   1.907   9.478   0.857
16707SOL     OW61774   1.599   6.194   2.268
16707SOL    HW161775   1.551   6.175   2.353
16707SOL    HW261776   1.533   6.203   2.194
16708SOL     OW61777   6.886   4.481   1.854
16708SOL    HW161778   6.898   4.504   1.758
16708SOL    HW261779   6.890   4.564   1.910
16709SOL     OW61780   1.241   0.173   7.541
16709SOL    HW161781   1.178   0.177   7.464
16709SOL    HW261782   1.282   0.263   7.557
16710SOL     OW61783   8.903   0.375   2.473
16710SOL    HW161784   8.857   0.395   2.386
16710SOL    HW261785   8.884   0.449   2.538
16711SOL     OW61786   6.126   3.315   1.327
16711SOL    HW161787   6.062   3.347   1.396
16711SOL    HW261788   6.077   3.261   1.258
16712SOL     OW61789   4.703   1.298   6.299
16712SOL    HW161790   4.651   1.288   6.383
16712SOL    HW261791   4.645   1.336   6.227
16713SOL     OW61792   0.664   2.505   2.900
16713SOL    HW161793   0.644   2.582   2.840
16713SOL    HW261794   0.659   2.534   2.995
16714SOL     OW61795   8.974   3.339   1.564
16714SOL    HW161796   9.061   3.319   1.608
16714SOL    HW261797   8.945   3.260   1.509
16715SOL     OW61798   4.233   4.693   5.436
16715SOL    HW161799   4.165   4.655   5.374
16715SOL    HW261800   4.321   4.648   5.420
16716SOL     OW61801   7.155   7.311   1.855
16716SOL    HW161802   7.123   7.404   1.843
16716SOL    HW261803   7.231   7.293   1.792
16717SOL     OW61804   6.485   8.269   5.616
16717SOL    HW161805   6.580   8.262   5.645
16717SOL    HW261806   6.440   8.342   5.668
16718SOL     OW61807   2.976   4.591   1.899
16718SOL    HW161808   3.064   4.638   1.891
16718SOL    HW261809   2.940   4.603   1.991
16719SOL     OW61810   8.141   0.994   6.654
16719SOL    HW161811   8.162   1.061   6.726
16719SOL    HW261812   8.099   0.914   6.695
16720SOL     OW61813   4.146   8.217   5.761
16720SOL    HW161814   4.149   8.254   5.668
16720SOL    HW261815   4.189   8.280   5.824
16721SOL     OW61816   6.445   2.099   5.063
16721SOL    HW161817   6.362   2.062   5.105
16721SOL    HW261818   6.424   2.186   5.018
16722SOL     OW61819   2.341   8.139   7.901
16722SOL    HW161820   2.319   8.224   7.949
16722SOL    HW261821   2.381   8.074   7.965
16723SOL     OW61822   4.139   8.466   6.952
16723SOL    HW161823   4.141   8.561   6.919
16723SOL    HW261824   4.180   8.406   6.883
16724SOL     OW61825   0.852   5.036   7.693
16724SOL    HW161826   0.926   5.080   7.745
16724SOL    HW261827   0.803   4.974   7.753
16725SOL     OW61828   9.505   7.444   1.384
16725SOL    HW161829   9.529   7.347   1.375
16725SOL    HW261830   9.500   7.486   1.294
16726SOL     OW61831   8.803   8.574   4.228
16726SOL    HW161832   8.764   8.588   4.319
16726SOL    HW261833   8.730   8.546   4.165
16727SOL     OW61834   2.329   1.430   2.212
16727SOL    HW161835   2.325   1.457   2.116
16727SOL    HW261836   2.422   1.402   2.236
16728SOL     OW61837   9.077   4.877   7.509
16728SOL    HW161838   9.046   4.963   7.467
16728SOL    HW261839   9.016   4.803   7.482
16729SOL     OW61840   8.449   6.395   6.099
16729SOL    HW161841   8.412   6.440   6.180
16729SOL    HW261842   8.469   6.463   6.029
16730SOL     OW61843   0.049   3.369   3.105
16730SOL    HW161844   9.988   3.307   3.056
16730SOL    HW261845   0.045   3.459   3.064
16731SOL     OW61846   0.953   1.899   2.289
16731SOL    HW161847   0.989   1.808   2.310
16731SOL    HW261848   0.983   1.927   2.198
16732SOL     OW61849   8.157   7.428   6.817
16732SOL    HW161850   8.166   7.342   6.868
16732SOL    HW261851   8.160   7.505   6.880
16733SOL     OW61852   0.907   4.816   2.528
16733SOL    HW161853   0.832   4.867   2.486
16733SOL    HW261854   0.940   4.865   2.609
16734SOL     OW61855   9.012   2.547   3.626
16734SOL    HW161856   8.940   2.571   3.691
16734SOL    HW261857   9.031   2.626   3.568
16735SOL     OW61858   0.523   3.099   0.138
16735SOL    HW161859   0.586   3.173   0.117
16735SOL    HW261860   0.432   3.121   0.103
16736SOL     OW61861   0.070   0.229   7.673
16736SOL    HW161862   0.104   0.168   7.602
16736SOL    HW261863   0.129   0.223   7.754
16737SOL     OW61864   1.278   9.569   3.550
16737SOL    HW161865   1.206   9.636   3.531
16737SOL    HW261866   1.337   9.561   3.470
16738SOL     OW61867   5.370   7.884   5.891
16738SOL    HW161868   5.331   7.915   5.978
16738SOL    HW261869   5.457   7.931   5.875
16739SOL     OW61870   0.842   9.072   5.258
16739SOL    HW161871   0.757   9.124   5.248
16739SOL    HW261872   0.823   8.987   5.307
16740SOL     OW61873   1.357   1.661   1.691
16740SOL    HW161874   1.379   1.751   1.653
16740SOL    HW261875   1.431   1.598   1.671
16741SOL     OW61876   4.519   8.387   1.918
16741SOL    HW161877   4.455   8.408   1.992
16741SOL    HW261878   4.529   8.467   1.859
16742SOL     OW61879   5.569   4.396   0.168
16742SOL    HW161880   5.517   4.318   0.134
16742SOL    HW261881   5.626   4.367   0.245
16743SOL     OW61882   3.807   9.761   3.322
16743SOL    HW161883   3.866   9.716   3.255
16743SOL    HW261884   3.716   9.719   3.320
16744SOL     OW61885   0.957   3.455   7.215
16744SOL    HW161886   0.886   3.512   7.257
16744SOL    HW261887   0.992   3.501   7.134
16745SOL     OW61888   5.310   4.298   1.399
16745SOL    HW161889   5.315   4.306   1.299
16745SOL    HW261890   5.270   4.382   1.437
16746SOL     OW61891   7.141   1.785   5.662
16746SOL    HW161892   7.099   1.855   5.605
16746SOL    HW261893   7.142   1.698   5.612
16747SOL     OW61894   3.864   9.517   4.956
16747SOL    HW161895   3.925   9.494   5.032
16747SOL    HW261896   3.881   9.455   4.880
16748SOL     OW61897   7.666   1.190   1.891
16748SOL    HW161898   7.719   1.109   1.865
16748SOL    HW261899   7.647   1.245   1.810
16749SOL     OW61900   0.101   0.291   6.835
16749SOL    HW161901   0.083   0.355   6.761
16749SOL    HW261902   0.127   0.202   6.798
16750SOL     OW61903   8.275   3.232   3.004
16750SOL    HW161904   8.253   3.325   3.035
16750SOL    HW261905   8.221   3.166   3.057
16751SOL     OW61906   1.258   7.077   6.962
16751SOL    HW161907   1.206   7.157   6.993
16751SOL    HW261908   1.225   6.996   7.010
16752SOL     OW61909   8.332   5.106   2.409
16752SOL    HW161910   8.251   5.112   2.351
16752SOL    HW261911   8.387   5.189   2.399
16753SOL     OW61912   1.043   2.792   7.313
16753SOL    HW161913   1.004   2.734   7.241
16753SOL    HW261914   1.083   2.735   7.385
16754SOL     OW61915   4.236   1.666   4.706
16754SOL    HW161916   4.224   1.597   4.635
16754SOL    HW261917   4.177   1.644   4.784
16755SOL     OW61918   5.948   3.080   1.736
16755SOL    HW161919   5.878   3.151   1.739
16755SOL    HW261920   5.944   3.027   1.821
16756SOL     OW61921   3.840   5.378   7.275
16756SOL    HW161922   3.871   5.408   7.185
16756SOL    HW261923   3.740   5.380   7.278
16757SOL     OW61924   5.498   1.940   5.881
16757SOL    HW161925   5.402   1.916   5.864
16757SOL    HW261926   5.521   2.023   5.830
16758SOL     OW61927   3.282   5.743   6.090
16758SOL    HW161928   3.211   5.814   6.089
16758SOL    HW261929   3.363   5.779   6.137
16759SOL     OW61930   3.212   2.109   5.785
16759SOL    HW161931   3.284   2.092   5.851
16759SOL    HW261932   3.128   2.065   5.815
16760SOL     OW61933   4.485   9.415   4.487
16760SOL    HW161934   4.538   9.410   4.402
16760SOL    HW261935   4.531   9.361   4.558
16761SOL     OW61936   3.218   4.393   4.659
16761SOL    HW161937   3.212   4.486   4.622
16761SOL    HW261938   3.150   4.335   4.613
16762SOL     OW61939   9.204   6.406   3.366
16762SOL    HW161940   9.279   6.461   3.402
16762SOL    HW261941   9.158   6.359   3.441
16763SOL     OW61942   7.546   3.041   3.785
16763SOL    HW161943   7.626   2.983   3.801
16763SOL    HW261944   7.567   3.108   3.714
16764SOL     OW61945   5.024   3.205   7.404
16764SOL    HW161946   4.995   3.227   7.310
16764SOL    HW261947   5.111   3.157   7.401
16765SOL     OW61948   5.013   0.713   0.639
16765SOL    HW161949   5.103   0.736   0.677
16765SOL    HW261950   4.993   0.775   0.563
16766SOL     OW61951   2.928   6.660   7.291
16766SOL    HW161952   2.994   6.587   7.310
16766SOL    HW261953   2.839   6.636   7.330
16767SOL     OW61954   0.526   0.367   4.802
16767SOL    HW161955   0.493   0.358   4.708
16767SOL    HW261956   0.623   0.393   4.801
16768SOL     OW61957   5.382   7.142   2.328
16768SOL    HW161958   5.445   7.067   2.307
16768SOL    HW261959   5.400   7.175   2.420
16769SOL     OW61960   2.527   8.701   3.083
16769SOL    HW161961   2.610   8.755   3.070
16769SOL    HW261962   2.466   8.748   3.147
16770SOL     OW61963   2.585   6.232   3.645
16770SOL    HW161964   2.559   6.328   3.657
16770SOL    HW261965   2.666   6.227   3.587
16771SOL     OW61966   9.352   0.365   5.894
16771SOL    HW161967   9.307   0.286   5.936
16771SOL    HW261968   9.368   0.435   5.963
16772SOL     OW61969   2.032   6.556   4.182
16772SOL    HW161970   2.006   6.517   4.094
16772SOL    HW261971   2.088   6.491   4.233
16773SOL     OW61972   1.940   4.351   6.639
16773SOL    HW161973   2.004   4.407   6.690
16773SOL    HW261974   1.904   4.278   6.698
16774SOL     OW61975   0.480   7.036   4.674
16774SOL    HW161976   0.433   6.971   4.613
16774SOL    HW261977   0.568   6.998   4.701
16775SOL     OW61978   4.931   9.546   7.846
16775SOL    HW161979   4.853   9.608   7.836
16775SOL    HW261980   5.014   9.591   7.813
16776SOL     OW61981   2.266   6.599   1.697
16776SOL    HW161982   2.332   6.592   1.622
16776SOL    HW261983   2.184   6.648   1.664
16777SOL     OW61984   4.525   6.398   3.986
16777SOL    HW161985   4.477   6.480   3.956
16777SOL    HW261986   4.459   6.331   4.021
16778SOL     OW61987   1.961   4.084   0.616
16778SOL    HW161988   1.924   4.112   0.705
16778SOL    HW261989   1.886   4.063   0.554
16779SOL     OW61990   0.379   2.107   7.696
16779SOL    HW161991   0.453   2.075   7.756
16779SOL    HW261992   0.346   2.196   7.728
16780SOL     OW61993   0.849   3.625   6.828
16780SOL    HW161994   0.762   3.647   6.873
16780SOL    HW261995   0.923   3.630   6.895
16781SOL     OW61996   9.051   0.192   5.683
16781SOL    HW161997   9.068   0.114   5.742
16781SOL    HW261998   8.966   0.238   5.711
16782SOL     OW61999   8.351   9.116   4.188
16782SOL    HW162000   8.395   9.026   4.189
16782SOL    HW262001   8.299   9.128   4.272
16783SOL     OW62002   7.067   3.979   2.541
16783SOL    HW162003   7.111   4.055   2.494
16783SOL    HW262004   6.968   3.983   2.526
16784SOL     OW62005   0.570   0.029   1.033
16784SOL    HW162006   0.653   0.021   0.977
16784SOL    HW262007   0.504   0.088   0.987
16785SOL     OW62008   9.147   3.665   5.422
16785SOL    HW162009   9.177   3.654   5.517
16785SOL    HW262010   9.112   3.578   5.389
16786SOL     OW62011   2.813   1.018   6.859
16786SOL    HW162012   2.780   1.045   6.768
16786SOL    HW262013   2.742   1.034   6.927
16787SOL     OW62014   4.186   7.276   2.343
16787SOL    HW162015   4.213   7.181   2.358
16787SOL    HW262016   4.242   7.335   2.402
16788SOL     OW62017   2.046   5.057   2.151
16788SOL    HW162018   1.972   5.007   2.196
16788SOL    HW262019   2.064   5.141   2.202
16789SOL     OW62020   8.302   8.649   7.449
16789SOL    HW162021   8.348   8.599   7.376
16789SOL    HW262022   8.279   8.741   7.417
16790SOL     OW62023   1.519   8.105   6.686
16790SOL    HW162024   1.464   8.157   6.620
16790SOL    HW262025   1.610   8.146   6.692
16791SOL     OW62026   1.545   8.748   5.901
16791SOL    HW162027   1.619   8.780   5.961
16791SOL    HW262028   1.457   8.764   5.946
16792SOL     OW62029   3.265   3.483   2.651
16792SOL    HW162030   3.192   3.434   2.604
16792SOL    HW262031   3.335   3.417   2.681
16793SOL     OW62032   3.448   3.627   4.447
16793SOL    HW162033   3.537   3.638   4.404
16793SOL    HW262034   3.399   3.714   4.446
16794SOL     OW62035   9.319   2.151   2.829
16794SOL    HW162036   9.401   2.203   2.805
16794SOL    HW262037   9.271   2.123   2.746
16795SOL     OW62038   3.114   3.223   7.272
16795SOL    HW162039   3.147   3.317   7.259
16795SOL    HW262040   3.153   3.164   7.203
16796SOL     OW62041   4.216   6.673   3.024
16796SOL    HW162042   4.133   6.727   3.041
16796SOL    HW262043   4.246   6.686   2.929
16797SOL     OW62044   3.504   9.398   3.747
16797SOL    HW162045   3.551   9.322   3.793
16797SOL    HW262046   3.406   9.388   3.758
16798SOL     OW62047   8.382   4.232   1.505
16798SOL    HW162048   8.432   4.290   1.440
16798SOL    HW262049   8.293   4.207   1.467
16799SOL     OW62050   9.943   5.886   4.286
16799SOL    HW162051   0.033   5.920   4.258
16799SOL    HW262052   9.918   5.807   4.230
16800SOL     OW62053   2.926   6.920   7.493
16800SOL    HW162054   2.945   6.832   7.538
16800SOL    HW262055   2.962   6.919   7.400
16801SOL     OW62056   0.559   7.382   7.643
16801SOL    HW162057   0.529   7.467   7.600
16801SOL    HW262058   0.608   7.403   7.727
16802SOL     OW62059   8.395   5.081   0.143
16802SOL    HW162060   8.301   5.114   0.142
16802SOL    HW262061   8.396   4.982   0.163
16803SOL     OW62062   4.676   7.161   1.140
16803SOL    HW162063   4.704   7.081   1.193
16803SOL    HW262064   4.583   7.147   1.105
16804SOL     OW62065   9.791   5.428   1.227
16804SOL    HW162066   9.843   5.351   1.190
16804SOL    HW262067   9.823   5.513   1.184
16805SOL     OW62068   2.987   8.564   5.628
16805SOL    HW162069   2.992   8.608   5.538
16805SOL    HW262070   3.059   8.600   5.687
16806SOL     OW62071   9.513   1.193   6.115
16806SOL    HW162072   9.537   1.140   6.197
16806SOL    HW262073   9.423   1.235   6.128
16807SOL     OW62074   8.980   9.632   6.127
16807SOL    HW162075   8.998   9.728   6.150
16807SOL    HW262076   8.959   9.626   6.029
16808SOL     OW62077   4.417   0.064   5.653
16808SOL    HW162078   4.435   0.028   5.561
16808SOL    HW262079   4.373   9.993   5.709
16809SOL     OW62080   3.929   8.945   4.878
16809SOL    HW162081   4.007   8.883   4.885
16809SOL    HW262082   3.951   9.031   4.924
16810SOL     OW62083   8.283   9.245   0.610
16810SOL    HW162084   8.297   9.249   0.709
16810SOL    HW262085   8.246   9.332   0.578
16811SOL     OW62086   2.682   4.002   3.260
16811SOL    HW162087   2.614   3.982   3.330
16811SOL    HW262088   2.724   4.091   3.279
16812SOL     OW62089   9.385   7.514   6.979
16812SOL    HW162090   9.394   7.606   6.942
16812SOL    HW262091   9.476   7.473   6.988
16813SOL     OW62092   7.099   3.210   1.627
16813SOL    HW162093   7.083   3.133   1.566
16813SOL    HW262094   7.012   3.254   1.649
16814SOL     OW62095   2.742   1.287   4.809
16814SOL    HW162096   2.804   1.342   4.753
16814SOL    HW262097   2.786   1.267   4.897
16815SOL     OW62098   5.482   9.938   3.619
16815SOL    HW162099   5.505   9.852   3.667
16815SOL    HW262100   5.398   9.975   3.657
16816SOL     OW62101   7.098   8.970   5.457
16816SOL    HW162102   7.058   9.060   5.442
16816SOL    HW262103   7.042   8.901   5.411
16817SOL     OW62104   7.809   1.016   4.183
16817SOL    HW162105   7.831   1.045   4.090
16817SOL    HW262106   7.891   0.980   4.228
16818SOL     OW62107   8.129   4.384   1.839
16818SOL    HW162108   8.160   4.472   1.874
16818SOL    HW262109   8.207   4.330   1.807
16819SOL     OW62110   4.007   4.725   3.503
16819SOL    HW162111   4.091   4.684   3.537
16819SOL    HW262112   4.030   4.799   3.439
16820SOL     OW62113   5.016   4.735   6.696
16820SOL    HW162114   5.036   4.819   6.746
16820SOL    HW262115   5.046   4.745   6.601
16821SOL     OW62116   4.505   5.355   0.917
16821SOL    HW162117   4.488   5.268   0.871
16821SOL    HW262118   4.436   5.422   0.890
16822SOL     OW62119   8.394   8.689   3.247
16822SOL    HW162120   8.383   8.621   3.174
16822SOL    HW262121   8.311   8.743   3.255
16823SOL     OW62122   2.170   9.675   4.585
16823SOL    HW162123   2.267   9.680   4.608
16823SOL    HW262124   2.119   9.744   4.637
16824SOL     OW62125   4.856   0.747   0.274
16824SOL    HW162126   4.791   0.796   0.215
16824SOL    HW262127   4.815   0.660   0.302
16825SOL     OW62128   6.731   9.948   5.432
16825SOL    HW162129   6.719   9.856   5.470
16825SOL    HW262130   6.703   0.016   5.501
16826SOL     OW62131   9.055   0.372   7.844
16826SOL    HW162132   9.144   0.352   7.804
16826SOL    HW262133   9.022   0.460   7.810
16827SOL     OW62134   8.424   8.615   5.832
16827SOL    HW162135   8.428   8.599   5.930
16827SOL    HW262136   8.513   8.644   5.799
16828SOL     OW62137   4.291   4.110   2.718
16828SOL    HW162138   4.209   4.142   2.766
16828SOL    HW262139   4.287   4.010   2.710
16829SOL     OW62140   4.984   9.306   6.505
16829SOL    HW162141   5.054   9.310   6.575
16829SOL    HW262142   5.023   9.332   6.417
16830SOL     OW62143   3.874   5.688   1.498
16830SOL    HW162144   3.835   5.737   1.420
16830SOL    HW262145   3.901   5.753   1.569
16831SOL     OW62146   9.471   4.186   6.243
16831SOL    HW162147   9.529   4.132   6.303
16831SOL    HW262148   9.382   4.201   6.287
16832SOL     OW62149   7.035   0.207   2.243
16832SOL    HW162150   7.072   0.134   2.186
16832SOL    HW262151   7.069   0.197   2.336
16833SOL     OW62152   7.842   4.603   6.750
16833SOL    HW162153   7.784   4.620   6.830
16833SOL    HW262154   7.924   4.660   6.756
16834SOL     OW62155   4.973   4.474   1.610
16834SOL    HW162156   4.910   4.425   1.670
16834SOL    HW262157   4.942   4.568   1.598
16835SOL     OW62158   3.035   2.844   5.381
16835SOL    HW162159   3.110   2.808   5.436
16835SOL    HW262160   2.948   2.825   5.426
16836SOL     OW62161   0.030   4.751   6.150
16836SOL    HW162162   9.997   4.738   6.244
16836SOL    HW262163   0.054   4.663   6.111
16837SOL     OW62164   6.189   3.787   1.560
16837SOL    HW162165   6.283   3.805   1.589
16837SOL    HW262166   6.134   3.870   1.571
16838SOL     OW62167   4.654   8.861   3.157
16838SOL    HW162168   4.704   8.947   3.167
16838SOL    HW262169   4.718   8.785   3.154
16839SOL     OW62170   6.253   9.728   4.725
16839SOL    HW162171   6.163   9.760   4.695
16839SOL    HW262172   6.242   9.668   4.804
16840SOL     OW62173   0.242   9.433   5.511
16840SOL    HW162174   0.336   9.454   5.537
16840SOL    HW262175   0.238   9.414   5.413
16841SOL     OW62176   4.359   0.572   7.402
16841SOL    HW162177   4.288   0.615   7.458
16841SOL    HW262178   4.384   0.634   7.327
16842SOL     OW62179   7.808   0.982   5.953
16842SOL    HW162180   7.833   1.043   6.028
16842SOL    HW262181   7.844   0.890   5.971
16843SOL     OW62182   8.227   6.011   5.973
16843SOL    HW162183   8.165   5.980   5.901
16843SOL    HW262184   8.195   5.977   6.061
16844SOL     OW62185   1.050   7.384   1.753
16844SOL    HW162186   1.063   7.312   1.822
16844SOL    HW262187   0.953   7.406   1.746
16845SOL     OW62188   0.403   4.367   5.686
16845SOL    HW162189   0.490   4.320   5.700
16845SOL    HW262190   0.333   4.326   5.745
16846SOL     OW62191   9.500   8.614   6.292
16846SOL    HW162192   9.414   8.650   6.328
16846SOL    HW262193   9.539   8.549   6.358
16847SOL     OW62194   7.611   5.046   2.991
16847SOL    HW162195   7.624   5.132   3.040
16847SOL    HW262196   7.548   5.061   2.914
16848SOL     OW62197   7.602   2.071   2.641
16848SOL    HW162198   7.682   2.127   2.666
16848SOL    HW262199   7.579   2.011   2.718
16849SOL     OW62200   0.849   7.057   0.341
16849SOL    HW162201   0.823   7.107   0.258
16849SOL    HW262202   0.947   7.066   0.355
16850SOL     OW62203   2.578   4.789   1.008
16850SOL    HW162204   2.557   4.691   1.012
16850SOL    HW262205   2.643   4.806   0.934
16851SOL     OW62206   8.943   5.092   3.136
16851SOL    HW162207   8.981   5.138   3.216
16851SOL    HW262208   8.997   5.116   3.055
16852SOL     OW62209   0.036   9.232   4.858
16852SOL    HW162210   0.006   9.158   4.798
16852SOL    HW262211   0.049   9.197   4.950
16853SOL     OW62212   8.641   1.995   1.904
16853SOL    HW162213   8.635   2.009   1.805
16853SOL    HW262214   8.693   1.912   1.922
16854SOL     OW62215   2.195   0.719   4.082
16854SOL    HW162216   2.176   0.689   3.988
16854SOL    HW262217   2.207   0.818   4.084
16855SOL     OW62218   0.261   6.347   4.489
16855SOL    HW162219   0.207   6.289   4.428
16855SOL    HW262220   0.199   6.400   4.547
16856SOL     OW62221   7.168   7.180   4.171
16856SOL    HW162222   7.212   7.111   4.114
16856SOL    HW262223   7.175   7.152   4.267
16857SOL     OW62224   8.813   4.871   1.806
16857SOL    HW162225   8.797   4.842   1.711
16857SOL    HW262226   8.904   4.843   1.834
16858SOL     OW62227   5.085   8.858   6.970
16858SOL    HW162228   5.170   8.806   6.970
16858SOL    HW262229   5.009   8.800   6.940
16859SOL     OW62230   5.221   1.898   5.861
16859SOL    HW162231   5.156   1.886   5.785
16859SOL    HW262232   5.236   1.810   5.906
16860SOL     OW62233   6.691   7.954   2.218
16860SOL    HW162234   6.594   7.975   2.203
16860SOL    HW262235   6.703   7.856   2.232
16861SOL     OW62236   0.931   1.981   7.889
16861SOL    HW162237   0.855   1.972   7.825
16861SOL    HW262238   0.896   1.994   7.982
16862SOL     OW62239   3.577   6.263   6.861
16862SOL    HW162240   3.613   6.311   6.781
16862SOL    HW262241   3.597   6.165   6.853
16863SOL     OW62242   2.721   4.132   7.667
16863SOL    HW162243   2.701   4.182   7.751
16863SOL    HW262244   2.818   4.143   7.644
16864SOL     OW62245   9.634   1.912   7.194
16864SOL    HW162246   9.624   1.887   7.097
16864SOL    HW262247   9.646   2.011   7.202
16865SOL     OW62248   8.643   2.428   3.275
16865SOL    HW162249   8.684   2.489   3.208
16865SOL    HW262250   8.712   2.363   3.307
16866SOL     OW62251   1.389   5.039   1.577
16866SOL    HW162252   1.358   5.090   1.657
16866SOL    HW262253   1.458   5.093   1.528
16867SOL     OW62254   1.440   4.777   1.477
16867SOL    HW162255   1.405   4.862   1.517
16867SOL    HW262256   1.539   4.773   1.489
16868SOL     OW62257   2.244   5.242   5.237
16868SOL    HW162258   2.180   5.165   5.248
16868SOL    HW262259   2.299   5.252   5.320
16869SOL     OW62260   2.682   9.981   5.363
16869SOL    HW162261   2.606   9.931   5.405
16869SOL    HW262262   2.744   9.917   5.318
16870SOL     OW62263   8.739   2.497   7.878
16870SOL    HW162264   8.747   2.596   7.878
16870SOL    HW262265   8.802   2.458   7.810
16871SOL     OW62266   2.277   4.099   6.466
16871SOL    HW162267   2.315   4.044   6.539
16871SOL    HW262268   2.226   4.176   6.505
16872SOL     OW62269   6.146   9.599   2.920
16872SOL    HW162270   6.158   9.656   2.838
16872SOL    HW262271   6.067   9.631   2.972
16873SOL     OW62272   8.285   0.607   4.166
16873SOL    HW162273   8.276   0.680   4.233
16873SOL    HW262274   8.309   0.646   4.077
16874SOL     OW62275   0.650   2.907   5.344
16874SOL    HW162276   0.721   2.836   5.335
16874SOL    HW262277   0.565   2.866   5.377
16875SOL     OW62278   5.520   1.694   5.189
16875SOL    HW162279   5.504   1.642   5.273
16875SOL    HW262280   5.471   1.650   5.113
16876SOL     OW62281   7.681   4.797   2.380
16876SOL    HW162282   7.680   4.717   2.440
16876SOL    HW262283   7.771   4.839   2.382
16877SOL     OW62284   7.115   0.831   0.728
16877SOL    HW162285   7.094   0.733   0.721
16877SOL    HW262286   7.151   0.851   0.818
16878SOL     OW62287   8.947   0.159   6.908
16878SOL    HW162288   8.958   0.063   6.879
16878SOL    HW262289   8.864   0.168   6.963
16879SOL     OW62290   0.147   8.792   1.779
16879SOL    HW162291   0.085   8.799   1.701
16879SOL    HW262292   0.241   8.809   1.748
16880SOL     OW62293   9.780   5.407   4.809
16880SOL    HW162294   9.709   5.453   4.862
16880SOL    HW262295   9.739   5.367   4.727
16881SOL     OW62296   8.830   2.889   0.187
16881SOL    HW162297   8.770   2.883   0.107
16881SOL    HW262298   8.787   2.949   0.255
16882SOL     OW62299   1.223   8.668   3.442
16882SOL    HW162300   1.321   8.678   3.455
16882SOL    HW262301   1.203   8.574   3.414
16883SOL     OW62302   1.519   1.373   6.172
16883SOL    HW162303   1.504   1.275   6.167
16883SOL    HW262304   1.438   1.417   6.211
16884SOL     OW62305   9.470   7.578   4.489
16884SOL    HW162306   9.563   7.592   4.522
16884SOL    HW262307   9.469   7.506   4.420
16885SOL     OW62308   9.144   6.968   0.186
16885SOL    HW162309   9.187   7.052   0.218
16885SOL    HW262310   9.099   6.922   0.263
16886SOL     OW62311   4.962   1.014   5.729
16886SOL    HW162312   4.923   1.085   5.670
16886SOL    HW262313   4.961   0.927   5.680
16887SOL     OW62314   6.337   7.521   6.466
16887SOL    HW162315   6.355   7.613   6.430
16887SOL    HW262316   6.332   7.456   6.390
16888SOL     OW62317   7.358   6.722   4.621
16888SOL    HW162318   7.360   6.742   4.523
16888SOL    HW262319   7.375   6.807   4.672
16889SOL     OW62320   2.381   2.751   0.820
16889SOL    HW162321   2.389   2.822   0.750
16889SOL    HW262322   2.286   2.720   0.825
16890SOL     OW62323   2.598   6.507   3.622
16890SOL    HW162324   2.664   6.504   3.547
16890SOL    HW262325   2.636   6.559   3.699
16891SOL     OW62326   2.231   4.261   1.569
16891SOL    HW162327   2.205   4.175   1.612
16891SOL    HW262328   2.195   4.338   1.622
16892SOL     OW62329   4.238   9.638   4.764
16892SOL    HW162330   4.291   9.563   4.802
16892SOL    HW262331   4.233   9.712   4.831
16893SOL     OW62332   3.189   4.637   4.541
16893SOL    HW162333   3.137   4.625   4.456
16893SOL    HW262334   3.271   4.691   4.523
16894SOL     OW62335   9.302   7.788   7.319
16894SOL    HW162336   9.212   7.817   7.353
16894SOL    HW262337   9.371   7.804   7.390
16895SOL     OW62338   8.674   8.352   7.847
16895SOL    HW162339   8.757   8.318   7.802
16895SOL    HW262340   8.684   8.343   7.946
16896SOL     OW62341   0.107   2.971   3.290
16896SOL    HW162342   0.070   2.906   3.223
16896SOL    HW262343   0.203   2.987   3.271
16897SOL     OW62344   8.341   0.516   0.106
16897SOL    HW162345   8.316   0.612   0.097
16897SOL    HW262346   8.417   0.507   0.171
16898SOL     OW62347   7.424   2.467   1.734
16898SOL    HW162348   7.368   2.549   1.744
16898SOL    HW262349   7.410   2.407   1.812
16899SOL     OW62350   8.520   3.224   4.660
16899SOL    HW162351   8.483   3.274   4.582
16899SOL    HW262352   8.576   3.285   4.715
16900SOL     OW62353   2.662   6.568   7.038
16900SOL    HW162354   2.621   6.615   7.115
16900SOL    HW262355   2.626   6.474   7.034
16901SOL     OW62356   8.153   8.894   5.019
16901SOL    HW162357   8.184   8.868   5.111
16901SOL    HW262358   8.111   8.984   5.022
16902SOL     OW62359   1.343   0.380   3.706
16902SOL    HW162360   1.297   0.423   3.628
16902SOL    HW262361   1.280   0.319   3.753
16903SOL     OW62362   4.089   2.286   4.305
16903SOL    HW162363   4.188   2.280   4.296
16903SOL    HW262364   4.054   2.359   4.246
16904SOL     OW62365   8.411   9.822   4.389
16904SOL    HW162366   8.373   9.904   4.346
16904SOL    HW262367   8.337   9.767   4.427
16905SOL     OW62368   4.780   9.528   5.756
16905SOL    HW162369   4.738   9.615   5.782
16905SOL    HW262370   4.739   9.454   5.810
16906SOL     OW62371   9.918   2.669   5.881
16906SOL    HW162372   0.012   2.703   5.876
16906SOL    HW262373   9.860   2.738   5.924
16907SOL     OW62374   8.551   3.541   2.635
16907SOL    HW162375   8.627   3.606   2.624
16907SOL    HW262376   8.497   3.540   2.551
16908SOL     OW62377   9.563   4.076   2.684
16908SOL    HW162378   9.613   4.018   2.619
16908SOL    HW262379   9.488   4.023   2.725
16909SOL     OW62380   4.496   9.949   5.401
16909SOL    HW162381   4.462   9.905   5.317
16909SOL    HW262382   4.596   9.958   5.395
16910SOL     OW62383   5.601   0.943   4.482
16910SOL    HW162384   5.602   0.843   4.493
16910SOL    HW262385   5.587   0.966   4.386
16911SOL     OW62386   4.594   8.538   4.498
16911SOL    HW162387   4.587   8.439   4.509
16911SOL    HW262388   4.505   8.580   4.511
16912SOL     OW62389   2.983   9.741   3.114
16912SOL    HW162390   2.931   9.826   3.122
16912SOL    HW262391   2.956   9.692   3.032
16913SOL     OW62392   6.913   0.471   7.647
16913SOL    HW162393   6.874   0.559   7.621
16913SOL    HW262394   6.845   0.399   7.631
16914SOL     OW62395   7.075   0.203   0.891
16914SOL    HW162396   7.007   0.234   0.825
16914SOL    HW262397   7.036   0.206   0.983
16915SOL     OW62398   9.604   2.414   4.634
16915SOL    HW162399   9.668   2.393   4.560
16915SOL    HW262400   9.512   2.386   4.608
16916SOL     OW62401   0.815   7.025   3.370
16916SOL    HW162402   0.807   7.125   3.368
16916SOL    HW262403   0.726   6.984   3.387
16917SOL     OW62404   3.506   3.423   1.378
16917SOL    HW162405   3.523   3.491   1.449
16917SOL    HW262406   3.462   3.343   1.419
16918SOL     OW62407   7.190   1.965   2.165
16918SOL    HW162408   7.235   1.983   2.077
16918SOL    HW262409   7.196   2.046   2.223
16919SOL     OW62410   0.425   3.707   3.869
16919SOL    HW162411   0.493   3.678   3.936
16919SOL    HW262412   0.464   3.777   3.810
16920SOL     OW62413   3.104   4.135   4.153
16920SOL    HW162414   3.064   4.043   4.159
16920SOL    HW262415   3.102   4.166   4.058
16921SOL     OW62416   4.837   8.811   7.299
16921SOL    HW162417   4.744   8.832   7.327
16921SOL    HW262418   4.839   8.722   7.253
16922SOL     OW62419   6.642   1.777   2.947
16922SOL    HW162420   6.630   1.869   2.910
16922SOL    HW262421   6.734   1.767   2.984
16923SOL     OW62422   2.177   0.514   0.537
16923SOL    HW162423   2.176   0.613   0.526
16923SOL    HW262424   2.172   0.470   0.447
16924SOL     OW62425   0.749   7.045   7.801
16924SOL    HW162426   0.693   7.055   7.719
16924SOL    HW262427   0.844   7.028   7.775
16925SOL     OW62428   9.693   8.938   7.045
16925SOL    HW162429   9.778   8.886   7.056
16925SOL    HW262430   9.621   8.877   7.013
16926SOL     OW62431   8.779   2.287   6.078
16926SOL    HW162432   8.786   2.369   6.021
16926SOL    HW262433   8.682   2.270   6.100
16927SOL     OW62434   2.298   3.306   2.559
16927SOL    HW162435   2.341   3.280   2.645
16927SOL    HW262436   2.365   3.351   2.500
16928SOL     OW62437   3.690   9.105   1.900
16928SOL    HW162438   3.726   9.050   1.825
16928SOL    HW262439   3.638   9.182   1.863
16929SOL     OW62440   9.069   7.818   3.149
16929SOL    HW162441   9.079   7.720   3.135
16929SOL    HW262442   9.139   7.851   3.212
16930SOL     OW62443   1.810   6.080   7.600
16930SOL    HW162444   1.728   6.068   7.656
16930SOL    HW262445   1.817   6.004   7.535
16931SOL     OW62446   7.079   8.350   7.708
16931SOL    HW162447   7.126   8.305   7.784
16931SOL    HW262448   7.048   8.440   7.738
16932SOL     OW62449   3.198   4.768   5.980
16932SOL    HW162450   3.136   4.713   6.036
16932SOL    HW262451   3.156   4.785   5.891
16933SOL     OW62452   0.961   6.725   4.177
16933SOL    HW162453   0.915   6.675   4.250
16933SOL    HW262454   1.041   6.673   4.147
16934SOL     OW62455   3.839   7.925   6.035
16934SOL    HW162456   3.914   7.859   6.036
16934SOL    HW262457   3.862   8.000   5.973
16935SOL     OW62458   2.373   9.183   3.143
16935SOL    HW162459   2.327   9.215   3.226
16935SOL    HW262460   2.318   9.114   3.098
16936SOL     OW62461   2.295   5.011   3.685
16936SOL    HW162462   2.361   4.937   3.675
16936SOL    HW262463   2.217   4.979   3.740
16937SOL     OW62464   6.040   9.997   3.320
16937SOL    HW162465   6.056   0.096   3.327
16937SOL    HW262466   6.081   9.963   3.236
16938SOL     OW62467   7.658   7.413   3.031
16938SOL    HW162468   7.742   7.413   3.085
16938SOL    HW262469   7.668   7.477   2.954
16939SOL     OW62470   5.476   9.691   5.444
16939SOL    HW162471   5.532   9.626   5.496
16939SOL    HW262472   5.497   9.784   5.475
16940SOL     OW62473   1.971   2.890   1.620
16940SOL    HW162474   2.036   2.816   1.603
16940SOL    HW262475   1.924   2.874   1.707
16941SOL     OW62476   9.314   1.467   4.625
16941SOL    HW162477   9.286   1.491   4.532
16941SOL    HW262478   9.278   1.536   4.689
16942SOL     OW62479   0.373   5.442   4.845
16942SOL    HW162480   0.346   5.385   4.923
16942SOL    HW262481   0.291   5.484   4.805
16943SOL     OW62482   2.496   7.114   1.683
16943SOL    HW162483   2.397   7.124   1.680
16943SOL    HW262484   2.520   7.021   1.712
16944SOL     OW62485   8.485   1.676   2.017
16944SOL    HW162486   8.483   1.613   1.939
16944SOL    HW262487   8.411   1.742   2.008
16945SOL     OW62488   8.842   0.503   4.389
16945SOL    HW162489   8.782   0.574   4.425
16945SOL    HW262490   8.788   0.433   4.343
16946SOL     OW62491   8.055   4.538   0.235
16946SOL    HW162492   8.032   4.490   0.320
16946SOL    HW262493   7.989   4.612   0.220
16947SOL     OW62494   6.325   0.393   5.901
16947SOL    HW162495   6.424   0.395   5.907
16947SOL    HW262496   6.297   0.346   5.817
16948SOL     OW62497   1.310   3.900   3.870
16948SOL    HW162498   1.288   3.849   3.954
16948SOL    HW262499   1.385   3.853   3.822
16949SOL     OW62500   1.778   2.888   4.352
16949SOL    HW162501   1.845   2.822   4.318
16949SOL    HW262502   1.725   2.846   4.425
16950SOL     OW62503   7.207   7.714   7.117
16950SOL    HW162504   7.144   7.782   7.080
16950SOL    HW262505   7.281   7.761   7.165
16951SOL     OW62506   4.872   7.816   2.877
16951SOL    HW162507   4.893   7.893   2.937
16951SOL    HW262508   4.889   7.730   2.925
16952SOL     OW62509   7.989   7.478   2.822
16952SOL    HW162510   8.039   7.527   2.893
16952SOL    HW262511   7.895   7.512   2.818
16953SOL     OW62512   3.341   9.104   1.146
16953SOL    HW162513   3.352   9.187   1.091
16953SOL    HW262514   3.425   9.051   1.143
16954SOL     OW62515   2.133   7.164   2.458
16954SOL    HW162516   2.062   7.099   2.485
16954SOL    HW262517   2.166   7.213   2.539
16955SOL     OW62518   2.284   9.599   7.540
16955SOL    HW162519   2.317   9.564   7.453
16955SOL    HW262520   2.248   9.691   7.528
16956SOL     OW62521   6.561   6.199   1.209
16956SOL    HW162522   6.589   6.170   1.118
16956SOL    HW262523   6.463   6.217   1.209
16957SOL     OW62524   3.582   9.191   4.339
16957SOL    HW162525   3.626   9.196   4.428
16957SOL    HW262526   3.500   9.249   4.338
16958SOL     OW62527   9.369   3.681   1.432
16958SOL    HW162528   9.340   3.670   1.337
16958SOL    HW262529   9.405   3.594   1.466
16959SOL     OW62530   9.354   1.112   2.167
16959SOL    HW162531   9.297   1.128   2.087
16959SOL    HW262532   9.327   1.026   2.210
16960SOL     OW62533   3.481   2.027   4.252
16960SOL    HW162534   3.466   1.936   4.214
16960SOL    HW262535   3.556   2.071   4.203
16961SOL     OW62536   5.371   8.463   3.459
16961SOL    HW162537   5.448   8.467   3.522
16961SOL    HW262538   5.311   8.388   3.484
16962SOL     OW62539   3.329   7.275   2.313
16962SOL    HW162540   3.379   7.251   2.397
16962SOL    HW262541   3.394   7.301   2.242
16963SOL     OW62542   2.612   1.050   2.357
16963SOL    HW162543   2.544   0.986   2.321
16963SOL    HW262544   2.703   1.021   2.328
16964SOL     OW62545   1.286   4.560   2.853
16964SOL    HW162546   1.381   4.557   2.823
16964SOL    HW262547   1.239   4.636   2.809
16965SOL     OW62548   1.229   1.333   4.843
16965SOL    HW162549   1.287   1.369   4.770
16965SOL    HW262550   1.174   1.257   4.808
16966SOL     OW62551   8.999   0.373   0.556
16966SOL    HW162552   8.910   0.342   0.521
16966SOL    HW262553   9.058   0.397   0.479
16967SOL     OW62554   7.669   7.053   2.268
16967SOL    HW162555   7.743   7.026   2.329
16967SOL    HW262556   7.616   7.127   2.309
16968SOL     OW62557   4.777   8.323   6.080
16968SOL    HW162558   4.748   8.239   6.127
16968SOL    HW262559   4.854   8.302   6.020
16969SOL     OW62560   3.688   3.936   4.203
16969SOL    HW162561   3.766   3.940   4.265
16969SOL    HW262562   3.644   4.026   4.199
16970SOL     OW62563   9.147   4.855   2.245
16970SOL    HW162564   9.091   4.777   2.273
16970SOL    HW262565   9.200   4.831   2.163
16971SOL     OW62566   7.356   8.100   3.423
16971SOL    HW162567   7.268   8.127   3.384
16971SOL    HW262568   7.429   8.156   3.384
16972SOL     OW62569   4.548   1.831   6.520
16972SOL    HW162570   4.620   1.838   6.589
16972SOL    HW262571   4.567   1.892   6.444
16973SOL     OW62572   5.167   9.471   5.223
16973SOL    HW162573   5.170   9.380   5.264
16973SOL    HW262574   5.075   9.486   5.185
16974SOL     OW62575   0.927   4.295   4.768
16974SOL    HW162576   0.843   4.301   4.714
16974SOL    HW262577   1.006   4.308   4.708
16975SOL     OW62578   5.368   8.761   2.332
16975SOL    HW162579   5.401   8.683   2.385
16975SOL    HW262580   5.271   8.749   2.311
16976SOL     OW62581   2.268   6.413   7.101
16976SOL    HW162582   2.303   6.498   7.060
16976SOL    HW262583   2.169   6.418   7.107
16977SOL     OW62584   3.076   7.901   0.346
16977SOL    HW162585   2.987   7.868   0.376
16977SOL    HW262586   3.134   7.823   0.322
16978SOL     OW62587   9.492   8.470   5.059
16978SOL    HW162588   9.433   8.500   5.134
16978SOL    HW262589   9.500   8.544   4.992
16979SOL     OW62590   2.172   6.046   7.314
16979SOL    HW162591   2.193   6.140   7.339
16979SOL    HW262592   2.076   6.038   7.288
16980SOL     OW62593   5.307   8.863   3.579
16980SOL    HW162594   5.311   8.821   3.489
16980SOL    HW262595   5.258   8.950   3.573
16981SOL     OW62596   7.738   0.128   4.293
16981SOL    HW162597   7.640   0.143   4.284
16981SOL    HW262598   7.768   0.154   4.384
16982SOL     OW62599   2.344   0.818   6.120
16982SOL    HW162600   2.275   0.868   6.069
16982SOL    HW262601   2.372   0.871   6.200
16983SOL     OW62602   3.726   1.703   4.172
16983SOL    HW162603   3.753   1.713   4.268
16983SOL    HW262604   3.629   1.726   4.162
16984SOL     OW62605   8.024   6.432   4.897
16984SOL    HW162606   7.956   6.447   4.825
16984SOL    HW262607   8.116   6.440   4.857
16985SOL     OW62608   7.382   4.076   2.405
16985SOL    HW162609   7.392   4.045   2.499
16985SOL    HW262610   7.297   4.129   2.396
16986SOL     OW62611   7.364   4.591   7.695
16986SOL    HW162612   7.334   4.680   7.729
16986SOL    HW262613   7.428   4.550   7.761
16987SOL     OW62614   3.525   6.390   2.464
16987SOL    HW162615   3.450   6.331   2.493
16987SOL    HW262616   3.611   6.339   2.469
16988SOL     OW62617   1.969   3.547   5.773
16988SOL    HW162618   1.970   3.646   5.788
16988SOL    HW262619   1.923   3.502   5.850
16989SOL     OW62620   4.028   0.421   4.276
16989SOL    HW162621   3.987   0.329   4.271
16989SOL    HW262622   4.001   0.473   4.194
16990SOL     OW62623   3.414   0.694   1.473
16990SOL    HW162624   3.505   0.702   1.432
16990SOL    HW262625   3.351   0.653   1.407
16991SOL     OW62626   8.096   4.595   3.770
16991SOL    HW162627   8.002   4.591   3.736
16991SOL    HW262628   8.150   4.655   3.710
16992SOL     OW62629   0.719   7.778   4.717
16992SOL    HW162630   0.752   7.686   4.698
16992SOL    HW262631   0.693   7.822   4.631
16993SOL     OW62632   0.598   4.286   1.060
16993SOL    HW162633   0.633   4.333   0.979
16993SOL    HW262634   0.645   4.198   1.070
16994SOL     OW62635   7.833   2.186   2.730
16994SOL    HW162636   7.917   2.219   2.687
16994SOL    HW262637   7.854   2.113   2.794
16995SOL     OW62638   4.338   9.626   0.609
16995SOL    HW162639   4.427   9.659   0.642
16995SOL    HW262640   4.265   9.677   0.655
16996SOL     OW62641   4.939   2.634   5.954
16996SOL    HW162642   4.909   2.728   5.971
16996SOL    HW262643   5.018   2.636   5.891
16997SOL     OW62644   1.927   0.108   2.515
16997SOL    HW162645   1.908   0.040   2.586
16997SOL    HW262646   1.948   0.061   2.429
16998SOL     OW62647   9.419   7.419   3.827
16998SOL    HW162648   9.504   7.383   3.866
16998SOL    HW262649   9.375   7.479   3.894
16999SOL     OW62650   3.950   9.905   5.333
16999SOL    HW162651   3.950   9.896   5.234
16999SOL    HW262652   3.914   9.995   5.359
17000SOL     OW62653   4.343   5.883   2.351
17000SOL    HW162654   4.352   5.850   2.445
17000SOL    HW262655   4.393   5.821   2.289
17001SOL     OW62656   5.433   1.858   4.558
17001SOL    HW162657   5.345   1.815   4.539
17001SOL    HW262658   5.496   1.840   4.483
17002SOL     OW62659   2.184   0.603   2.787
17002SOL    HW162660   2.154   0.694   2.758
17002SOL    HW262661   2.272   0.581   2.745
17003SOL     OW62662   6.229   0.912   4.712
17003SOL    HW162663   6.234   0.971   4.793
17003SOL    HW262664   6.247   0.966   4.630
17004SOL     OW62665   4.286   4.437   0.644
17004SOL    HW162666   4.273   4.443   0.545
17004SOL    HW262667   4.318   4.345   0.668
17005SOL     OW62668   2.860   3.752   2.383
17005SOL    HW162669   2.958   3.744   2.370
17005SOL    HW262670   2.834   3.849   2.379
17006SOL     OW62671   1.248   3.095   6.540
17006SOL    HW162672   1.158   3.114   6.579
17006SOL    HW262673   1.290   3.018   6.588
17007SOL     OW62674   3.343   6.022   6.778
17007SOL    HW162675   3.293   5.987   6.856
17007SOL    HW262676   3.441   6.010   6.792
17008SOL     OW62677   2.439   8.414   5.645
17008SOL    HW162678   2.397   8.505   5.645
17008SOL    HW262679   2.518   8.414   5.583
17009SOL     OW62680   7.064   5.938   1.447
17009SOL    HW162681   7.114   5.851   1.453
17009SOL    HW262682   7.043   5.971   1.539
17010SOL     OW62683   7.637   6.629   2.590
17010SOL    HW162684   7.550   6.596   2.552
17010SOL    HW262685   7.692   6.669   2.516
17011SOL     OW62686   9.115   8.172   1.206
17011SOL    HW162687   9.032   8.224   1.224
17011SOL    HW262688   9.091   8.080   1.173
17012SOL     OW62689   2.949   5.732   0.755
17012SOL    HW162690   2.893   5.722   0.673
17012SOL    HW262691   3.037   5.774   0.731
17013SOL     OW62692   4.869   7.491   1.555
17013SOL    HW162693   4.832   7.584   1.544
17013SOL    HW262694   4.924   7.468   1.474
17014SOL     OW62695   0.108   2.503   3.752
17014SOL    HW162696   0.099   2.468   3.845
17014SOL    HW262697   0.082   2.600   3.750
17015SOL     OW62698   8.810   3.869   7.495
17015SOL    HW162699   8.738   3.939   7.494
17015SOL    HW262700   8.808   3.819   7.408
17016SOL     OW62701   3.360   5.337   2.560
17016SOL    HW162702   3.326   5.313   2.469
17016SOL    HW262703   3.450   5.296   2.574
17017SOL     OW62704   3.784   1.741   3.901
17017SOL    HW162705   3.882   1.759   3.890
17017SOL    HW262706   3.761   1.737   3.998
17018SOL     OW62707   9.394   9.827   4.921
17018SOL    HW162708   9.348   9.748   4.963
17018SOL    HW262709   9.391   9.818   4.822
17019SOL     OW62710   3.952   9.899   5.063
17019SOL    HW162711   3.873   9.871   5.009
17019SOL    HW262712   4.035   9.859   5.025
17020SOL     OW62713   9.545   4.708   0.595
17020SOL    HW162714   9.472   4.704   0.526
17020SOL    HW262715   9.525   4.644   0.669
17021SOL     OW62716   9.008   7.232   3.134
17021SOL    HW162717   8.909   7.248   3.145
17021SOL    HW262718   9.058   7.283   3.204
17022SOL     OW62719   7.931   0.650   0.868
17022SOL    HW162720   7.997   0.711   0.823
17022SOL    HW262721   7.969   0.558   0.874
17023SOL     OW62722   9.028   2.412   2.460
17023SOL    HW162723   8.963   2.488   2.463
17023SOL    HW262724   9.049   2.389   2.365
17024SOL     OW62725   0.079   5.156   4.125
17024SOL    HW162726   0.044   5.066   4.102
17024SOL    HW262727   0.098   5.160   4.224
17025SOL     OW62728   8.449   0.573   3.184
17025SOL    HW162729   8.388   0.516   3.239
17025SOL    HW262730   8.466   0.659   3.231
17026SOL     OW62731   0.892   8.641   1.466
17026SOL    HW162732   0.810   8.620   1.519
17026SOL    HW262733   0.918   8.561   1.412
17027SOL     OW62734   1.014   5.554   4.940
17027SOL    HW162735   0.956   5.489   4.990
17027SOL    HW262736   1.058   5.616   5.004
17028SOL     OW62737   5.288   3.339   5.302
17028SOL    HW162738   5.217   3.348   5.232
17028SOL    HW262739   5.326   3.429   5.323
17029SOL     OW62740   5.409   1.518   7.264
17029SOL    HW162741   5.411   1.513   7.165
17029SOL    HW262742   5.419   1.427   7.303
17030SOL     OW62743   7.197   8.430   7.465
17030SOL    HW162744   7.154   8.393   7.548
17030SOL    HW262745   7.154   8.389   7.384
17031SOL     OW62746   2.860   2.820   0.560
17031SOL    HW162747   2.900   2.887   0.622
17031SOL    HW262748   2.901   2.828   0.470
17032SOL     OW62749   9.855   0.775   7.618
17032SOL    HW162750   9.787   0.709   7.650
17032SOL    HW262751   9.885   0.749   7.526
17033SOL     OW62752   1.664   9.002   5.346
17033SOL    HW162753   1.604   9.075   5.380
17033SOL    HW262754   1.635   8.915   5.385
17034SOL     OW62755   0.502   9.780   5.837
17034SOL    HW162756   0.549   9.692   5.826
17034SOL    HW262757   0.458   9.804   5.751
17035SOL     OW62758   5.422   9.672   4.882
17035SOL    HW162759   5.518   9.693   4.864
17035SOL    HW262760   5.416   9.599   4.951
17036SOL     OW62761   6.957   7.446   6.729
17036SOL    HW162762   7.008   7.413   6.649
17036SOL    HW262763   7.022   7.479   6.798
17037SOL     OW62764   4.648   9.392   4.268
17037SOL    HW162765   4.728   9.451   4.279
17037SOL    HW262766   4.678   9.297   4.257
17038SOL     OW62767   8.716   9.530   4.596
17038SOL    HW162768   8.632   9.490   4.632
17038SOL    HW262769   8.717   9.520   4.496
17039SOL     OW62770   2.121   6.062   5.997
17039SOL    HW162771   2.150   5.973   5.962
17039SOL    HW262772   2.178   6.088   6.075
17040SOL     OW62773   7.889   7.795   1.139
17040SOL    HW162774   7.900   7.832   1.232
17040SOL    HW262775   7.969   7.817   1.085
17041SOL     OW62776   9.589   4.687   1.066
17041SOL    HW162777   9.661   4.755   1.050
17041SOL    HW262778   9.505   4.717   1.020
17042SOL     OW62779   6.924   1.172   1.526
17042SOL    HW162780   6.968   1.117   1.454
17042SOL    HW262781   6.957   1.141   1.615
17043SOL     OW62782   7.798   5.836   4.260
17043SOL    HW162783   7.853   5.906   4.306
17043SOL    HW262784   7.857   5.763   4.228
17044SOL     OW62785   9.588   6.504   4.269
17044SOL    HW162786   9.609   6.554   4.185
17044SOL    HW262787   9.503   6.453   4.257
17045SOL     OW62788   6.102   3.541   1.651
17045SOL    HW162789   6.140   3.627   1.618
17045SOL    HW262790   6.176   3.484   1.688
17046SOL     OW62791   5.953   4.205   0.050
17046SOL    HW162792   5.988   4.279  10.074
17046SOL    HW262793   5.955   4.234   0.145
17047SOL     OW62794   3.293   8.498   2.422
17047SOL    HW162795   3.384   8.490   2.381
17047SOL    HW262796   3.297   8.559   2.501
17048SOL     OW62797   1.853   7.682   3.217
17048SOL    HW162798   1.924   7.752   3.216
17048SOL    HW262799   1.877   7.609   3.152
17049SOL     OW62800   0.497   9.079   3.756
17049SOL    HW162801   0.574   9.037   3.804
17049SOL    HW262802   0.502   9.056   3.659
17050SOL     OW62803   8.440   9.208   7.699
17050SOL    HW162804   8.376   9.174   7.630
17050SOL    HW262805   8.421   9.304   7.718
17051SOL     OW62806   2.828   8.548   6.139
17051SOL    HW162807   2.804   8.464   6.090
17051SOL    HW262808   2.871   8.613   6.075
17052SOL     OW62809   2.288   8.414   0.209
17052SOL    HW162810   2.384   8.441   0.202
17052SOL    HW262811   2.277   8.321   0.174
17053SOL     OW62812   0.406   0.524   0.812
17053SOL    HW162813   0.503   0.548   0.809
17053SOL    HW262814   0.356   0.594   0.863
17054SOL     OW62815   8.623   0.047   0.156
17054SOL    HW162816   8.707   0.025   0.206
17054SOL    HW262817   8.643   0.116   0.087
17055SOL     OW62818   4.665   7.080   3.402
17055SOL    HW162819   4.694   6.986   3.421
17055SOL    HW262820   4.572   7.095   3.436
17056SOL     OW62821   7.179   8.664   7.049
17056SOL    HW162822   7.235   8.694   6.972
17056SOL    HW262823   7.122   8.587   7.020
17057SOL     OW62824   1.523   3.889   4.207
17057SOL    HW162825   1.504   3.791   4.200
17057SOL    HW262826   1.444   3.936   4.246
17058SOL     OW62827   5.155   4.102   7.640
17058SOL    HW162828   5.088   4.052   7.695
17058SOL    HW262829   5.166   4.057   7.552
17059SOL     OW62830   0.232   6.017   7.237
17059SOL    HW162831   0.204   6.103   7.280
17059SOL    HW262832   0.162   5.987   7.172
17060SOL     OW62833   4.922   1.501   7.083
17060SOL    HW162834   4.917   1.401   7.083
17060SOL    HW262835   4.942   1.533   6.990
17061SOL     OW62836   5.165   8.993   7.590
17061SOL    HW162837   5.152   9.091   7.604
17061SOL    HW262838   5.258   8.976   7.558
17062SOL     OW62839   8.841   0.035   0.759
17062SOL    HW162840   8.817   0.005   0.667
17062SOL    HW262841   8.927   0.087   0.756
17063SOL     OW62842   7.110   7.034   1.908
17063SOL    HW162843   7.101   7.129   1.879
17063SOL    HW262844   7.201   7.019   1.946
17064SOL     OW62845   9.730   0.190   4.192
17064SOL    HW162846   9.825   0.215   4.214
17064SOL    HW262847   9.667   0.243   4.248
17065SOL     OW62848   9.107   6.285   3.598
17065SOL    HW162849   9.012   6.291   3.629
17065SOL    HW262850   9.142   6.192   3.616
17066SOL     OW62851   2.692   1.630   1.821
17066SOL    HW162852   2.708   1.532   1.829
17066SOL    HW262853   2.620   1.658   1.884
17067SOL     OW62854   9.058   5.717   1.957
17067SOL    HW162855   8.965   5.719   1.921
17067SOL    HW262856   9.112   5.791   1.917
17068SOL     OW62857   3.663   0.377   2.221
17068SOL    HW162858   3.571   0.404   2.250
17068SOL    HW262859   3.684   0.286   2.256
17069SOL     OW62860   3.654   4.384   1.721
17069SOL    HW162861   3.656   4.300   1.667
17069SOL    HW262862   3.594   4.451   1.676
17070SOL     OW62863   6.464   3.531   0.165
17070SOL    HW162864   6.428   3.607   0.112
17070SOL    HW262865   6.518   3.566   0.242
17071SOL     OW62866   5.489   1.692   0.783
17071SOL    HW162867   5.488   1.652   0.691
17071SOL    HW262868   5.461   1.623   0.850
17072SOL     OW62869   9.754   2.792   3.750
17072SOL    HW162870   9.852   2.786   3.729
17072SOL    HW262871   9.726   2.709   3.798
17073SOL     OW62872   3.201   6.347   3.467
17073SOL    HW162873   3.132   6.327   3.537
17073SOL    HW262874   3.222   6.264   3.416
17074SOL     OW62875   8.803   3.918   0.076
17074SOL    HW162876   8.742   3.850   0.117
17074SOL    HW262877   8.805   4.000   0.133
17075SOL     OW62878   4.050   3.916   1.190
17075SOL    HW162879   4.058   3.969   1.274
17075SOL    HW262880   4.009   3.827   1.210
17076SOL     OW62881   5.026   5.691   0.469
17076SOL    HW162882   5.125   5.696   0.459
17076SOL    HW262883   4.997   5.748   0.546
17077SOL     OW62884   9.190   7.645   5.634
17077SOL    HW162885   9.219   7.549   5.625
17077SOL    HW262886   9.242   7.701   5.570
17078SOL     OW62887   0.162   2.616   2.210
17078SOL    HW162888   0.161   2.649   2.115
17078SOL    HW262889   0.114   2.528   2.215
17079SOL     OW62890   9.460   2.968   6.463
17079SOL    HW162891   9.450   2.978   6.562
17079SOL    HW262892   9.371   2.951   6.423
17080SOL     OW62893   2.434   4.979   1.867
17080SOL    HW162894   2.364   4.948   1.932
17080SOL    HW262895   2.401   5.061   1.820
17081SOL     OW62896   7.059   8.267   2.016
17081SOL    HW162897   6.967   8.296   1.991
17081SOL    HW262898   7.066   8.167   2.009
17082SOL     OW62899   0.515   3.562   2.880
17082SOL    HW162900   0.418   3.563   2.858
17082SOL    HW262901   0.537   3.478   2.930
17083SOL     OW62902   2.813   8.285   2.614
17083SOL    HW162903   2.757   8.282   2.697
17083SOL    HW262904   2.773   8.351   2.550
17084SOL     OW62905   9.319   3.955   4.831
17084SOL    HW162906   9.415   3.958   4.859
17084SOL    HW262907   9.262   3.927   4.908
17085SOL     OW62908   4.431   1.049   3.184
17085SOL    HW162909   4.393   1.021   3.096
17085SOL    HW262910   4.503   0.985   3.211
17086SOL     OW62911   0.136   9.894   3.860
17086SOL    HW162912   0.106   9.899   3.765
17086SOL    HW262913   0.120   9.802   3.896
17087SOL     OW62914   2.802   7.109   1.845
17087SOL    HW162915   2.797   7.047   1.923
17087SOL    HW262916   2.741   7.187   1.862
17088SOL     OW62917   8.440   8.424   2.759
17088SOL    HW162918   8.508   8.352   2.746
17088SOL    HW262919   8.425   8.438   2.857
17089SOL     OW62920   2.923   4.667   0.079
17089SOL    HW162921   2.862   4.676   0.157
17089SOL    HW262922   3.004   4.724   0.093
17090SOL     OW62923   9.959   5.499   0.841
17090SOL    HW162924   9.899   5.420   0.854
17090SOL    HW262925   9.959   5.524   0.744
17091SOL     OW62926   8.027   5.631   7.104
17091SOL    HW162927   8.091   5.564   7.141
17091SOL    HW262928   8.066   5.673   7.022
17092SOL     OW62929   5.239   2.719   5.224
17092SOL    HW162930   5.276   2.636   5.266
17092SOL    HW262931   5.250   2.713   5.125
17093SOL     OW62932   3.457   2.713   1.073
17093SOL    HW162933   3.419   2.621   1.073
17093SOL    HW262934   3.391   2.777   1.033
17094SOL     OW62935   3.321   4.547   5.310
17094SOL    HW162936   3.283   4.636   5.283
17094SOL    HW262937   3.280   4.519   5.397
17095SOL     OW62938   3.984   9.450   6.951
17095SOL    HW162939   3.937   9.538   6.960
17095SOL    HW262940   3.942   9.397   6.877
17096SOL     OW62941   9.269   4.550   0.128
17096SOL    HW162942   9.313   4.460   0.124
17096SOL    HW262943   9.196   4.548   0.196
17097SOL     OW62944   2.102   2.636   4.535
17097SOL    HW162945   2.133   2.547   4.569
17097SOL    HW262946   2.178   2.701   4.538
17098SOL     OW62947   5.017   9.024   6.321
17098SOL    HW162948   4.964   9.096   6.276
17098SOL    HW262949   4.989   9.018   6.417
17099SOL     OW62950   1.496   6.519   5.265
17099SOL    HW162951   1.416   6.474   5.226
17099SOL    HW262952   1.572   6.454   5.270
17100SOL     OW62953   1.937   2.638   4.311
17100SOL    HW162954   1.988   2.598   4.234
17100SOL    HW262955   1.998   2.646   4.390
17101SOL     OW62956   0.207   6.621   2.388
17101SOL    HW162957   0.225   6.589   2.295
17101SOL    HW262958   0.120   6.669   2.390
17102SOL     OW62959   6.678   9.209   4.355
17102SOL    HW162960   6.654   9.304   4.338
17102SOL    HW262961   6.649   9.183   4.447
17103SOL     OW62962   2.613   9.527   5.985
17103SOL    HW162963   2.660   9.614   5.972
17103SOL    HW262964   2.679   9.459   6.018
17104SOL     OW62965   5.128   1.834   1.002
17104SOL    HW162966   5.192   1.866   0.933
17104SOL    HW262967   5.035   1.855   0.973
17105SOL     OW62968   3.231   2.380   5.806
17105SOL    HW162969   3.224   2.281   5.795
17105SOL    HW262970   3.204   2.405   5.899
17106SOL     OW62971   2.640   8.979   0.402
17106SOL    HW162972   2.564   8.922   0.373
17106SOL    HW262973   2.674   8.947   0.491
17107SOL     OW62974   1.563   8.547   6.215
17107SOL    HW162975   1.582   8.630   6.268
17107SOL    HW262976   1.464   8.539   6.202
17108SOL     OW62977   1.180   6.945   5.125
17108SOL    HW162978   1.182   6.875   5.197
17108SOL    HW262979   1.129   7.025   5.157
17109SOL     OW62980   8.270   4.055   6.274
17109SOL    HW162981   8.277   4.109   6.357
17109SOL    HW262982   8.236   4.112   6.199
17110SOL     OW62983   7.018   8.242   5.045
17110SOL    HW162984   6.932   8.293   5.037
17110SOL    HW262985   7.089   8.289   4.993
17111SOL     OW62986   0.024   0.243   6.008
17111SOL    HW162987   0.015   0.162   6.066
17111SOL    HW262988   0.108   0.292   6.031
17112SOL     OW62989   8.130   4.269   7.725
17112SOL    HW162990   8.067   4.238   7.654
17112SOL    HW262991   8.078   4.305   7.802
17113SOL     OW62992   9.645   9.360   1.667
17113SOL    HW162993   9.608   9.284   1.719
17113SOL    HW262994   9.600   9.445   1.695
17114SOL     OW62995   0.304   7.175   4.031
17114SOL    HW162996   0.272   7.168   4.125
17114SOL    HW262997   0.258   7.107   3.975
17115SOL     OW62998   4.335   8.869   4.401
17115SOL    HW162999   4.392   8.904   4.327
17115SOL    HW263000   4.266   8.806   4.364
17116SOL     OW63001   4.147   9.923   5.520
17116SOL    HW163002   4.123   9.999   5.580
17116SOL    HW263003   4.081   9.917   5.446
17117SOL     OW63004   2.648   3.834   1.468
17117SOL    HW163005   2.552   3.862   1.471
17117SOL    HW263006   2.676   3.801   1.558
17118SOL     OW63007   3.812   9.256   5.453
17118SOL    HW163008   3.803   9.171   5.401
17118SOL    HW263009   3.906   9.265   5.486
17119SOL     OW63010   3.214   9.687   2.550
17119SOL    HW163011   3.135   9.686   2.489
17119SOL    HW263012   3.250   9.780   2.557
17120SOL     OW63013   6.869   2.827   3.325
17120SOL    HW163014   6.836   2.874   3.243
17120SOL    HW263015   6.969   2.831   3.327
17121SOL     OW63016   5.400   0.640   3.955
17121SOL    HW163017   5.401   0.545   3.924
17121SOL    HW263018   5.485   0.685   3.927
17122SOL     OW63019   6.275   8.059   2.422
17122SOL    HW163020   6.360   8.054   2.474
17122SOL    HW263021   6.210   8.119   2.468
17123SOL     OW63022   1.632   0.106   4.168
17123SOL    HW163023   1.598   0.030   4.112
17123SOL    HW263024   1.702   0.157   4.117
17124SOL     OW63025   8.192   9.086   3.177
17124SOL    HW163026   8.251   9.105   3.255
17124SOL    HW263027   8.243   9.100   3.092
17125SOL     OW63028   9.424   9.817   6.817
17125SOL    HW163029   9.402   9.860   6.905
17125SOL    HW263030   9.523   9.817   6.805
17126SOL     OW63031   2.677   6.631   4.514
17126SOL    HW163032   2.720   6.542   4.526
17126SOL    HW263033   2.748   6.702   4.512
17127SOL     OW63034   7.758   2.326   4.128
17127SOL    HW163035   7.735   2.230   4.112
17127SOL    HW263036   7.700   2.384   4.071
17128SOL     OW63037   7.494   5.801   1.788
17128SOL    HW163038   7.532   5.823   1.698
17128SOL    HW263039   7.514   5.706   1.810
17129SOL     OW63040   2.684   5.303   0.948
17129SOL    HW163041   2.678   5.350   1.036
17129SOL    HW263042   2.597   5.313   0.900
17130SOL     OW63043   9.664   5.160   1.520
17130SOL    HW163044   9.651   5.090   1.590
17130SOL    HW263045   9.582   5.216   1.513
17131SOL     OW63046   9.520   7.180   0.401
17131SOL    HW163047   9.520   7.215   0.308
17131SOL    HW263048   9.614   7.175   0.435
17132SOL     OW63049   1.507   4.043   0.548
17132SOL    HW163050   1.498   3.964   0.609
17132SOL    HW263051   1.595   4.039   0.500
17133SOL     OW63052   3.250   6.205   1.046
17133SOL    HW163053   3.331   6.147   1.039
17133SOL    HW263054   3.177   6.153   1.091
17134SOL     OW63055   4.268   3.281   7.263
17134SOL    HW163056   4.181   3.251   7.223
17134SOL    HW263057   4.318   3.201   7.299
17135SOL     OW63058   9.147   0.175   4.980
17135SOL    HW163059   9.174   0.265   5.014
17135SOL    HW263060   9.073   0.139   5.037
17136SOL     OW63061   4.733   9.107   1.534
17136SOL    HW163062   4.696   9.193   1.499
17136SOL    HW263063   4.673   9.071   1.605
17137SOL     OW63064   9.703   6.240   5.789
17137SOL    HW163065   9.619   6.291   5.811
17137SOL    HW263066   9.679   6.146   5.766
17138SOL     OW63067   4.615   7.091  10.080
17138SOL    HW163068   4.534   7.070  10.026
17138SOL    HW263069   4.592   7.158   0.068
17139SOL     OW63070   2.380   1.007   6.311
17139SOL    HW163071   2.301   1.004   6.372
17139SOL    HW263072   2.459   1.046   6.360
17140SOL     OW63073   6.815   1.365   4.967
17140SOL    HW163074   6.909   1.391   4.946
17140SOL    HW263075   6.753   1.410   4.903
17141SOL     OW63076   8.294   6.408   7.281
17141SOL    HW163077   8.373   6.353   7.309
17141SOL    HW263078   8.218   6.392   7.344
17142SOL     OW63079   6.989   2.780   0.390
17142SOL    HW163080   7.020   2.785   0.295
17142SOL    HW263081   6.972   2.685   0.415
17143SOL     OW63082   3.716   2.644   5.289
17143SOL    HW163083   3.716   2.718   5.222
17143SOL    HW263084   3.740   2.558   5.244
17144SOL     OW63085   1.680   0.605   6.780
17144SOL    HW163086   1.657   0.694   6.820
17144SOL    HW263087   1.610   0.538   6.805
17145SOL     OW63088   1.567   6.824   2.559
17145SOL    HW163089   1.586   6.912   2.516
17145SOL    HW263090   1.592   6.826   2.655
17146SOL     OW63091   9.740   9.134   7.680
17146SOL    HW163092   9.714   9.068   7.751
17146SOL    HW263093   9.661   9.191   7.657
17147SOL     OW63094   4.460   3.126   1.413
17147SOL    HW163095   4.492   3.210   1.456
17147SOL    HW263096   4.465   3.135   1.314
17148SOL     OW63097   8.855   2.703   6.234
17148SOL    HW163098   8.828   2.756   6.315
17148SOL    HW263099   8.772   2.677   6.183
17149SOL     OW63100   4.347   8.126   2.505
17149SOL    HW163101   4.348   8.026   2.507
17149SOL    HW263102   4.360   8.158   2.411
17150SOL     OW63103   7.804   6.072   3.767
17150SOL    HW163104   7.887   6.065   3.711
17150SOL    HW263105   7.734   6.009   3.732
17151SOL     OW63106   4.797   4.282   2.156
17151SOL    HW163107   4.894   4.303   2.145
17151SOL    HW263108   4.783   4.229   2.239
17152SOL     OW63109   7.491   1.283   6.378
17152SOL    HW163110   7.395   1.275   6.407
17152SOL    HW263111   7.495   1.328   6.289
17153SOL     OW63112   9.831   9.626   1.415
17153SOL    HW163113   9.895   9.704   1.412
17153SOL    HW263114   9.873   9.548   1.369
17154SOL     OW63115   9.039   8.657   6.972
17154SOL    HW163116   9.071   8.573   7.016
17154SOL    HW263117   8.946   8.677   7.003
17155SOL     OW63118   4.989   0.374   5.833
17155SOL    HW163119   5.017   0.338   5.922
17155SOL    HW263120   4.908   0.325   5.801
17156SOL     OW63121   8.166   9.250   3.579
17156SOL    HW163122   8.089   9.297   3.538
17156SOL    HW263123   8.212   9.194   3.510
17157SOL     OW63124   3.227   5.678   1.827
17157SOL    HW163125   3.142   5.721   1.796
17157SOL    HW263126   3.272   5.738   1.893
17158SOL     OW63127   9.441   7.621   0.644
17158SOL    HW163128   9.434   7.650   0.739
17158SOL    HW263129   9.521   7.663   0.601
17159SOL     OW63130   8.961   2.358   1.468
17159SOL    HW163131   9.056   2.371   1.496
17159SOL    HW263132   8.957   2.296   1.390
17160SOL     OW63133   1.846   4.188   2.527
17160SOL    HW163134   1.912   4.207   2.455
17160SOL    HW263135   1.791   4.270   2.544
17161SOL     OW63136   7.698   7.295   2.693
17161SOL    HW163137   7.612   7.270   2.649
17161SOL    HW263138   7.690   7.387   2.733
17162SOL     OW63139   1.217   6.330   1.333
17162SOL    HW163140   1.196   6.416   1.378
17162SOL    HW263141   1.315   6.314   1.333
17163SOL     OW63142   3.212   0.522   5.197
17163SOL    HW163143   3.125   0.503   5.152
17163SOL    HW263144   3.196   0.557   5.289
17164SOL     OW63145   1.161   6.777   5.349
17164SOL    HW163146   1.135   6.843   5.419
17164SOL    HW263147   1.244   6.729   5.378
17165SOL     OW63148   1.548   4.768   4.940
17165SOL    HW163149   1.634   4.801   4.902
17165SOL    HW263150   1.562   4.682   4.988
17166SOL     OW63151   0.809   5.918   6.988
17166SOL    HW163152   0.882   5.955   6.930
17166SOL    HW263153   0.755   5.994   7.026
17167SOL     OW63154   7.778   7.964   3.591
17167SOL    HW163155   7.837   7.921   3.522
17167SOL    HW263156   7.682   7.957   3.563
17168SOL     OW63157   4.226   9.033   0.084
17168SOL    HW163158   4.166   9.086   0.025
17168SOL    HW263159   4.227   9.072   0.176
17169SOL     OW63160   2.994   9.097   4.476
17169SOL    HW163161   2.972   9.163   4.404
17169SOL    HW263162   3.093   9.089   4.484
17170SOL     OW63163   6.112   0.749   2.388
17170SOL    HW163164   6.034   0.688   2.397
17170SOL    HW263165   6.080   0.839   2.357
17171SOL     OW63166   1.061   0.068   2.597
17171SOL    HW163167   0.992   0.081   2.526
17171SOL    HW263168   1.138   0.016   2.560
17172SOL     OW63169   7.968   4.399   7.353
17172SOL    HW163170   7.917   4.475   7.394
17172SOL    HW263171   7.951   4.397   7.255
17173SOL     OW63172   2.262   7.857   0.658
17173SOL    HW163173   2.262   7.877   0.560
17173SOL    HW263174   2.317   7.775   0.676
17174SOL     OW63175   4.109   9.899   6.305
17174SOL    HW163176   4.091   9.869   6.211
17174SOL    HW263177   4.125   9.818   6.363
17175SOL     OW63178   5.863   0.396   4.140
17175SOL    HW163179   5.837   0.448   4.058
17175SOL    HW263180   5.780   0.360   4.184
17176SOL     OW63181   4.243   4.818   0.846
17176SOL    HW163182   4.189   4.898   0.871
17176SOL    HW263183   4.229   4.746   0.915
17177SOL     OW63184   5.471   5.081   7.748
17177SOL    HW163185   5.484   4.982   7.746
17177SOL    HW263186   5.373   5.102   7.750
17178SOL     OW63187   2.126   1.152   4.994
17178SOL    HW163188   2.063   1.117   4.925
17178SOL    HW263189   2.130   1.252   4.988
17179SOL     OW63190   6.927   2.032   1.442
17179SOL    HW163191   6.830   2.056   1.446
17179SOL    HW263192   6.964   2.028   1.535
17180SOL     OW63193   4.766   9.457   7.384
17180SOL    HW163194   4.694   9.433   7.450
17180SOL    HW263195   4.823   9.377   7.366
17181SOL     OW63196   0.550   7.868   0.452
17181SOL    HW163197   0.480   7.934   0.424
17181SOL    HW263198   0.559   7.869   0.552
17182SOL     OW63199   9.379   5.151   1.762
17182SOL    HW163200   9.461   5.096   1.744
17182SOL    HW263201   9.298   5.095   1.748
17183SOL     OW63202   7.549   6.171   2.054
17183SOL    HW163203   7.458   6.212   2.048
17183SOL    HW263204   7.613   6.224   2.000
17184SOL     OW63205   2.000   7.466   1.018
17184SOL    HW163206   2.051   7.543   0.979
17184SOL    HW263207   1.910   7.462   0.976
17185SOL     OW63208   0.792   5.177   2.635
17185SOL    HW163209   0.754   5.267   2.616
17185SOL    HW263210   0.892   5.184   2.645
17186SOL     OW63211   1.728   7.182   6.449
17186SOL    HW163212   1.680   7.161   6.364
17186SOL    HW263213   1.763   7.276   6.446
17187SOL     OW63214   8.994   3.589   3.636
17187SOL    HW163215   8.933   3.652   3.587
17187SOL    HW263216   9.035   3.637   3.713
17188SOL     OW63217   7.603   2.950   1.173
17188SOL    HW163218   7.674   2.962   1.104
17188SOL    HW263219   7.525   3.008   1.150
17189SOL     OW63220   2.886   2.187   5.417
17189SOL    HW163221   2.979   2.173   5.451
17189SOL    HW263222   2.822   2.192   5.493
17190SOL     OW63223   0.149   0.304   2.629
17190SOL    HW163224   0.132   0.205   2.624
17190SOL    HW263225   0.229   0.327   2.574
17191SOL     OW63226   7.563   0.900   3.375
17191SOL    HW163227   7.576   0.982   3.319
17191SOL    HW263228   7.575   0.818   3.318
17192SOL     OW63229   5.621   8.572   4.215
17192SOL    HW163230   5.617   8.601   4.120
17192SOL    HW263231   5.556   8.625   4.269
17193SOL     OW63232   9.807   4.264   1.619
17193SOL    HW163233   9.750   4.220   1.688
17193SOL    HW263234   9.899   4.226   1.621
17194SOL     OW63235   2.108   8.150   7.740
17194SOL    HW163236   2.116   8.143   7.640
17194SOL    HW263237   2.196   8.129   7.782
17195SOL     OW63238   7.826   2.807   4.136
17195SOL    HW163239   7.877   2.764   4.061
17195SOL    HW263240   7.728   2.792   4.123
17196SOL     OW63241   9.684   5.799   5.328
17196SOL    HW163242   9.673   5.763   5.420
17196SOL    HW263243   9.714   5.894   5.332
17197SOL     OW63244   5.297   8.480   1.757
17197SOL    HW163245   5.270   8.461   1.662
17197SOL    HW263246   5.267   8.404   1.815
17198SOL     OW63247   7.088   8.953   7.502
17198SOL    HW163248   7.010   8.941   7.563
17198SOL    HW263249   7.057   8.996   7.417
17199SOL     OW63250   0.057   7.735   3.554
17199SOL    HW163251   0.037   7.693   3.466
17199SOL    HW263252   0.155   7.732   3.572
17200SOL     OW63253   2.065   7.789   7.604
17200SOL    HW163254   1.998   7.855   7.639
17200SOL    HW263255   2.084   7.721   7.675
17201SOL     OW63256   6.935   5.157   7.276
17201SOL    HW163257   6.860   5.170   7.341
17201SOL    HW263258   6.912   5.198   7.189
17202SOL     OW63259   7.260   0.078   0.728
17202SOL    HW163260   7.195   0.130   0.783
17202SOL    HW263261   7.307   0.011   0.787
17203SOL     OW63262   7.286   9.745   3.872
17203SOL    HW163263   7.303   9.844   3.876
17203SOL    HW263264   7.348   9.703   3.805
17204SOL     OW63265   2.610   9.559   2.401
17204SOL    HW163266   2.623   9.480   2.462
17204SOL    HW263267   2.665   9.636   2.434
17205SOL     OW63268   8.780   9.240   1.364
17205SOL    HW163269   8.854   9.282   1.417
17205SOL    HW263270   8.763   9.147   1.397
17206SOL     OW63271   8.774   2.970   2.689
17206SOL    HW163272   8.846   2.998   2.625
17206SOL    HW263273   8.692   2.946   2.638
17207SOL     OW63274   8.232   8.146   4.350
17207SOL    HW163275   8.166   8.221   4.347
17207SOL    HW263276   8.191   8.067   4.395
17208SOL     OW63277   1.660   0.181   1.074
17208SOL    HW163278   1.754   0.184   1.039
17208SOL    HW263279   1.662   0.197   1.173
17209SOL     OW63280   5.211   9.865   7.389
17209SOL    HW163281   5.221   9.835   7.294
17209SOL    HW263282   5.240   9.961   7.396
17210SOL     OW63283   2.157   2.704   1.532
17210SOL    HW163284   2.189   2.644   1.605
17210SOL    HW263285   2.158   2.655   1.445
17211SOL     OW63286   8.907   0.210   0.060
17211SOL    HW163287   8.974   0.136   0.057
17211SOL    HW263288   8.898   0.251  10.051
17212SOL     OW63289   1.397   3.816   2.338
17212SOL    HW163290   1.389   3.796   2.436
17212SOL    HW263291   1.326   3.767   2.288
17213SOL     OW63292   1.827   2.771   0.026
17213SOL    HW163293   1.906   2.825   0.055
17213SOL    HW263294   1.785   2.727   0.106
17214SOL     OW63295   8.669   7.990   7.410
17214SOL    HW163296   8.581   7.951   7.437
17214SOL    HW263297   8.677   7.990   7.310
17215SOL     OW63298   0.702   9.793   0.132
17215SOL    HW163299   0.611   9.831   0.113
17215SOL    HW263300   0.751   9.852   0.195
17216SOL     OW63301   4.942   7.459   2.523
17216SOL    HW163302   4.950   7.556   2.544
17216SOL    HW263303   5.017   7.432   2.462
17217SOL     OW63304   2.547   9.364   4.925
17217SOL    HW163305   2.596   9.406   4.849
17217SOL    HW263306   2.478   9.427   4.961
17218SOL     OW63307   0.256   7.807   7.605
17218SOL    HW163308   0.212   7.858   7.679
17218SOL    HW263309   0.199   7.729   7.580
17219SOL     OW63310   6.690   0.305   6.505
17219SOL    HW163311   6.643   0.228   6.463
17219SOL    HW263312   6.776   0.323   6.457
17220SOL     OW63313   3.063   4.679   1.139
17220SOL    HW163314   2.985   4.671   1.077
17220SOL    HW263315   3.074   4.594   1.191
17221SOL     OW63316   5.908   1.315   0.905
17221SOL    HW163317   5.943   1.358   0.821
17221SOL    HW263318   5.818   1.353   0.927
17222SOL     OW63319   9.644   8.932   7.837
17222SOL    HW163320   9.667   8.838   7.812
17222SOL    HW263321   9.549   8.952   7.812
17223SOL     OW63322   3.986   3.220   5.538
17223SOL    HW163323   4.031   3.133   5.520
17223SOL    HW263324   4.019   3.289   5.474
17224SOL     OW63325   1.888   1.987   2.007
17224SOL    HW163326   1.907   1.925   2.083
17224SOL    HW263327   1.799   1.965   1.967
17225SOL     OW63328   1.776   6.592   4.286
17225SOL    HW163329   1.870   6.572   4.258
17225SOL    HW263330   1.746   6.523   4.352
17226SOL     OW63331   2.940   7.929   0.063
17226SOL    HW163332   2.981   7.906  10.057
17226SOL    HW263333   3.007   7.916   0.136
17227SOL     OW63334   1.308   1.492   6.294
17227SOL    HW163335   1.339   1.510   6.388
17227SOL    HW263336   1.214   1.459   6.296
17228SOL     OW63337   1.238   5.014   2.442
17228SOL    HW163338   1.260   4.916   2.438
17228SOL    HW263339   1.149   5.030   2.398
17229SOL     OW63340   2.760   4.140   6.863
17229SOL    HW163341   2.715   4.130   6.952
17229SOL    HW263342   2.837   4.077   6.857
17230SOL     OW63343   2.429   1.821   1.510
17230SOL    HW163344   2.516   1.780   1.484
17230SOL    HW263345   2.354   1.762   1.479
17231SOL     OW63346   3.462   3.295   3.612
17231SOL    HW163347   3.445   3.293   3.513
17231SOL    HW263348   3.474   3.390   3.641
17232SOL     OW63349   9.909   2.175   7.028
17232SOL    HW163350   9.998   2.217   7.043
17232SOL    HW263351   9.885   2.180   6.931
17233SOL     OW63352   8.700   8.868   4.455
17233SOL    HW163353   8.606   8.901   4.451
17233SOL    HW263354   8.700   8.769   4.463
17234SOL     OW63355   8.750   3.981   0.466
17234SOL    HW163356   8.729   3.986   0.564
17234SOL    HW263357   8.669   3.950   0.416
17235SOL     OW63358   7.361   1.355   0.535
17235SOL    HW163359   7.262   1.367   0.542
17235SOL    HW263360   7.399   1.337   0.625
17236SOL     OW63361   1.322   6.713   6.878
17236SOL    HW163362   1.302   6.615   6.881
17236SOL    HW263363   1.279   6.759   6.956
17237SOL     OW63364   0.719   1.228   1.690
17237SOL    HW163365   0.737   1.157   1.622
17237SOL    HW263366   0.673   1.187   1.769
17238SOL     OW63367   1.849   8.852   2.132
17238SOL    HW163368   1.860   8.763   2.177
17238SOL    HW263369   1.752   8.875   2.124
17239SOL     OW63370   2.591   4.466   6.142
17239SOL    HW163371   2.547   4.548   6.179
17239SOL    HW263372   2.570   4.459   6.044
17240SOL     OW63373   0.640   4.238   5.730
17240SOL    HW163374   0.731   4.269   5.757
17240SOL    HW263375   0.647   4.159   5.669
17241SOL     OW63376   7.777   4.631   1.588
17241SOL    HW163377   7.802   4.563   1.656
17241SOL    HW263378   7.858   4.658   1.536
17242SOL     OW63379   3.806   7.988   1.548
17242SOL    HW163380   3.799   7.954   1.642
17242SOL    HW263381   3.767   7.921   1.485
17243SOL     OW63382   1.155   1.918   4.543
17243SOL    HW163383   1.067   1.913   4.495
17243SOL    HW263384   1.143   1.966   4.630
17244SOL     OW63385   0.480   2.022   6.922
17244SOL    HW163386   0.394   1.975   6.903
17244SOL    HW263387   0.544   1.958   6.965
17245SOL     OW63388   1.587   4.220   3.458
17245SOL    HW163389   1.574   4.257   3.366
17245SOL    HW263390   1.589   4.294   3.525
17246SOL     OW63391   9.565   0.421   3.484
17246SOL    HW163392   9.587   0.491   3.551
17246SOL    HW263393   9.539   0.464   3.398
17247SOL     OW63394   0.044   6.073   2.608
17247SOL    HW163395   0.131   6.024   2.593
17247SOL    HW263396   0.047   6.120   2.696
17248SOL     OW63397   2.229   5.837   4.426
17248SOL    HW163398   2.227   5.886   4.514
17248SOL    HW263399   2.218   5.739   4.442
17249SOL     OW63400   5.263   7.963   6.126
17249SOL    HW163401   5.248   7.903   6.204
17249SOL    HW263402   5.201   8.041   6.131
17250SOL     OW63403   1.457   5.747   0.394
17250SOL    HW163404   1.426   5.652   0.399
17250SOL    HW263405   1.480   5.770   0.299
17251SOL     OW63406   2.609   1.807   4.072
17251SOL    HW163407   2.610   1.880   4.004
17251SOL    HW263408   2.523   1.757   4.066
17252SOL     OW63409   1.663   3.644   2.895
17252SOL    HW163410   1.731   3.679   2.960
17252SOL    HW263411   1.708   3.581   2.831
17253SOL     OW63412   9.655   6.660   2.493
17253SOL    HW163413   9.633   6.632   2.399
17253SOL    HW263414   9.741   6.618   2.520
17254SOL     OW63415   8.419   5.862   2.488
17254SOL    HW163416   8.393   5.950   2.528
17254SOL    HW263417   8.357   5.840   2.412
17255SOL     OW63418   6.295   5.575   7.897
17255SOL    HW163419   6.364   5.516   7.854
17255SOL    HW263420   6.340   5.657   7.933
17256SOL     OW63421   5.896   0.425   7.451
17256SOL    HW163422   5.843   0.437   7.535
17256SOL    HW263423   5.835   0.395   7.377
17257SOL     OW63424   0.073   3.634   7.826
17257SOL    HW163425   9.979   3.654   7.800
17257SOL    HW263426   0.121   3.719   7.848
17258SOL     OW63427   9.541   9.417   5.703
17258SOL    HW163428   9.446   9.444   5.687
17258SOL    HW263429   9.547   9.317   5.701
17259SOL     OW63430   3.868   0.791   3.733
17259SOL    HW163431   3.964   0.775   3.713
17259SOL    HW263432   3.823   0.703   3.750
17260SOL     OW63433   9.925   0.312   3.092
17260SOL    HW163434   9.826   0.328   3.092
17260SOL    HW263435   9.953   0.278   3.002
17261SOL     OW63436   9.623   0.862   3.794
17261SOL    HW163437   9.658   0.923   3.722
17261SOL    HW263438   9.561   0.913   3.853
17262SOL     OW63439   6.947   6.164   4.744
17262SOL    HW163440   6.977   6.258   4.759
17262SOL    HW263441   6.847   6.161   4.747
17263SOL     OW63442   7.863   8.618   2.483
17263SOL    HW163443   7.932   8.548   2.460
17263SOL    HW263444   7.902   8.709   2.469
17264SOL     OW63445   7.901   3.059   4.247
17264SOL    HW163446   7.967   3.045   4.320
17264SOL    HW263447   7.879   2.972   4.204
17265SOL     OW63448   6.395   2.589   3.333
17265SOL    HW163449   6.416   2.559   3.240
17265SOL    HW263450   6.296   2.585   3.348
17266SOL     OW63451   4.354   4.308   2.544
17266SOL    HW163452   4.281   4.302   2.476
17266SOL    HW263453   4.342   4.235   2.612
17267SOL     OW63454   8.874   9.897   7.103
17267SOL    HW163455   8.911   9.893   7.010
17267SOL    HW263456   8.821   9.981   7.114
17268SOL     OW63457   3.004   0.157   1.355
17268SOL    HW163458   3.000   0.062   1.385
17268SOL    HW263459   2.979   0.162   1.258
17269SOL     OW63460   3.988   9.051   1.513
17269SOL    HW163461   3.898   9.071   1.553
17269SOL    HW263462   4.034   9.137   1.491
17270SOL     OW63463   0.866   3.055   6.020
17270SOL    HW163464   0.812   3.122   6.071
17270SOL    HW263465   0.950   3.035   6.071
17271SOL     OW63466   2.982   1.389   6.279
17271SOL    HW163467   3.006   1.299   6.314
17271SOL    HW263468   3.033   1.408   6.195
17272SOL     OW63469   2.859   9.982   3.125
17272SOL    HW163470   2.774   0.016   3.165
17272SOL    HW263471   2.912   0.058   3.088
17273SOL     OW63472   3.196   3.183   2.239
17273SOL    HW163473   3.113   3.238   2.253
17273SOL    HW263474   3.273   3.229   2.283
17274SOL     OW63475   0.924   0.350   2.968
17274SOL    HW163476   0.988   0.308   3.034
17274SOL    HW263477   0.836   0.365   3.013
17275SOL     OW63478   2.651   4.150   0.714
17275SOL    HW163479   2.734   4.111   0.674
17275SOL    HW263480   2.595   4.077   0.752
17276SOL     OW63481   3.066   2.733   2.007
17276SOL    HW163482   3.117   2.819   1.997
17276SOL    HW263483   2.993   2.746   2.074
17277SOL     OW63484   2.101   8.731   2.431
17277SOL    HW163485   2.101   8.717   2.530
17277SOL    HW263486   2.075   8.825   2.411
17278SOL     OW63487   3.308   8.507   0.102
17278SOL    HW163488   3.209   8.505   0.088
17278SOL    HW263489   3.345   8.415   0.095
17279SOL     OW63490   2.075   7.944   3.784
17279SOL    HW163491   2.101   8.016   3.720
17279SOL    HW263492   2.041   7.865   3.733
17280SOL     OW63493   5.383   0.614   4.411
17280SOL    HW163494   5.475   0.632   4.445
17280SOL    HW263495   5.373   0.516   4.394
17281SOL     OW63496   9.780   7.278   1.619
17281SOL    HW163497   9.772   7.230   1.532
17281SOL    HW263498   9.736   7.368   1.611
17282SOL     OW63499   5.197   6.222   1.555
17282SOL    HW163500   5.255   6.188   1.629
17282SOL    HW263501   5.218   6.173   1.470
17283SOL     OW63502   5.531   8.167   2.821
17283SOL    HW163503   5.620   8.212   2.827
17283SOL    HW263504   5.539   8.082   2.769
17284SOL     OW63505   9.022   0.947   2.298
17284SOL    HW163506   9.115   0.912   2.293
17284SOL    HW263507   8.959   0.879   2.261
17285SOL     OW63508   7.341   1.778   1.171
17285SOL    HW163509   7.370   1.761   1.265
17285SOL    HW263510   7.410   1.833   1.124
17286SOL     OW63511   9.993   7.584   3.325
17286SOL    HW163512   9.998   7.493   3.367
17286SOL    HW263513   9.974   7.575   3.228
17287SOL     OW63514   2.354   9.987   2.315
17287SOL    HW163515   2.319   9.964   2.224
17287SOL    HW263516   2.308   9.929   2.383
17288SOL     OW63517   8.757   7.949   5.803
17288SOL    HW163518   8.690   7.892   5.849
17288SOL    HW263519   8.823   7.891   5.755
17289SOL     OW63520   7.859   3.324   0.688
17289SOL    HW163521   7.821   3.409   0.653
17289SOL    HW263522   7.877   3.332   0.786
17290SOL     OW63523   6.148   9.507   1.844
17290SOL    HW163524   6.185   9.421   1.879
17290SOL    HW263525   6.072   9.488   1.783
17291SOL     OW63526   0.137   0.108   1.813
17291SOL    HW163527   0.127   0.206   1.833
17291SOL    HW263528   0.129   0.055   1.897
17292SOL     OW63529   5.032   1.288   1.201
17292SOL    HW163530   4.967   1.299   1.277
17292SOL    HW263531   5.080   1.374   1.185
17293SOL     OW63532   5.203   6.894   2.929
17293SOL    HW163533   5.158   6.805   2.932
17293SOL    HW263534   5.231   6.921   3.021
17294SOL     OW63535   2.414   1.438   1.268
17294SOL    HW163536   2.469   1.382   1.330
17294SOL    HW263537   2.355   1.378   1.214
17295SOL     OW63538   2.618   8.623   1.800
17295SOL    HW163539   2.652   8.651   1.891
17295SOL    HW263540   2.584   8.703   1.751
17296SOL     OW63541   1.654   5.807   2.337
17296SOL    HW163542   1.662   5.714   2.301
17296SOL    HW263543   1.744   5.838   2.369
17297SOL     OW63544   2.318   4.495   4.228
17297SOL    HW163545   2.237   4.553   4.230
17297SOL    HW263546   2.316   4.431   4.304
17298SOL     OW63547   7.449   2.935   2.525
17298SOL    HW163548   7.538   2.893   2.507
17298SOL    HW263549   7.452   3.032   2.498
17299SOL     OW63550   4.122   9.132   4.066
17299SOL    HW163551   4.194   9.063   4.053
17299SOL    HW263552   4.158   9.207   4.120
17300SOL     OW63553   5.194   1.064   6.796
17300SOL    HW163554   5.268   1.110   6.846
17300SOL    HW263555   5.125   1.032   6.861
17301SOL     OW63556   9.653   5.394   6.587
17301SOL    HW163557   9.750   5.373   6.575
17301SOL    HW263558   9.623   5.361   6.677
17302SOL     OW63559   9.334   9.101   5.783
17302SOL    HW163560   9.429   9.116   5.756
17302SOL    HW263561   9.273   9.143   5.717
17303SOL     OW63562   7.578   7.574   4.403
17303SOL    HW163563   7.676   7.584   4.419
17303SOL    HW263564   7.529   7.650   4.444
17304SOL     OW63565   5.736   7.959   3.575
17304SOL    HW163566   5.722   7.952   3.476
17304SOL    HW263567   5.753   7.867   3.612
17305SOL     OW63568   4.273   9.182   3.425
17305SOL    HW163569   4.268   9.171   3.524
17305SOL    HW263570   4.205   9.123   3.381
17306SOL     OW63571   8.101   1.259   3.102
17306SOL    HW163572   8.128   1.319   3.027
17306SOL    HW263573   8.149   1.286   3.185
17307SOL     OW63574   5.554   2.671   1.623
17307SOL    HW163575   5.652   2.671   1.640
17307SOL    HW263576   5.507   2.616   1.692
17308SOL     OW63577   9.367   5.956   5.593
17308SOL    HW163578   9.354   5.861   5.566
17308SOL    HW263579   9.463   5.973   5.612
17309SOL     OW63580   9.219   7.311   3.673
17309SOL    HW163581   9.169   7.386   3.630
17309SOL    HW263582   9.297   7.348   3.723
17310SOL     OW63583   6.640   1.315   0.973
17310SOL    HW163584   6.594   1.403   0.959
17310SOL    HW263585   6.664   1.276   0.884
17311SOL     OW63586   8.888   4.971   4.310
17311SOL    HW163587   8.861   5.064   4.285
17311SOL    HW263588   8.907   4.967   4.408
17312SOL     OW63589   1.086   9.404   1.173
17312SOL    HW163590   1.030   9.425   1.252
17312SOL    HW263591   1.149   9.479   1.155
17313SOL     OW63592   8.652   9.469   7.790
17313SOL    HW163593   8.688   9.376   7.780
17313SOL    HW263594   8.558   9.465   7.822
17314SOL     OW63595   0.232   3.578   3.718
17314SOL    HW163596   0.302   3.619   3.777
17314SOL    HW263597   0.260   3.585   3.623
17315SOL     OW63598   7.782   8.681   1.122
17315SOL    HW163599   7.733   8.739   1.187
17315SOL    HW263600   7.825   8.738   1.052
17316SOL     OW63601   1.958   4.778   7.242
17316SOL    HW163602   2.024   4.829   7.297
17316SOL    HW263603   1.916   4.707   7.299
17317SOL     OW63604   2.433   9.749   7.839
17317SOL    HW163605   2.518   9.766   7.790
17317SOL    HW263606   2.441   9.665   7.893
17318SOL     OW63607   7.383   5.833   5.224
17318SOL    HW163608   7.325   5.896   5.173
17318SOL    HW263609   7.381   5.857   5.321
17319SOL     OW63610   9.290   3.559   4.148
17319SOL    HW163611   9.353   3.587   4.076
17319SOL    HW263612   9.341   3.537   4.231
17320SOL     OW63613   6.540   9.583   6.570
17320SOL    HW163614   6.537   9.592   6.470
17320SOL    HW263615   6.635   9.586   6.601
17321SOL     OW63616   7.090   1.240   5.753
17321SOL    HW163617   7.096   1.172   5.827
17321SOL    HW263618   7.140   1.322   5.779
17322SOL     OW63619   3.105   2.613   4.357
17322SOL    HW163620   3.189   2.570   4.390
17322SOL    HW263621   3.034   2.606   4.427
17323SOL     OW63622   9.986   4.447   7.832
17323SOL    HW163623   9.901   4.476   7.788
17323SOL    HW263624   0.063   4.463   7.769
17324SOL     OW63625   1.274   1.688   3.197
17324SOL    HW163626   1.273   1.750   3.275
17324SOL    HW263627   1.318   1.732   3.119
17325SOL     OW63628   9.787   0.012   4.767
17325SOL    HW163629   9.796   0.107   4.795
17325SOL    HW263630   9.799   9.953   4.847
17326SOL     OW63631   3.434   4.989   4.983
17326SOL    HW163632   3.409   5.012   5.077
17326SOL    HW263633   3.508   4.921   4.985
17327SOL     OW63634   2.379   6.131   1.714
17327SOL    HW163635   2.385   6.199   1.641
17327SOL    HW263636   2.471   6.099   1.738
17328SOL     OW63637   7.281   3.413   4.123
17328SOL    HW163638   7.361   3.391   4.178
17328SOL    HW263639   7.200   3.369   4.163
17329SOL     OW63640   1.535   1.722   0.216
17329SOL    HW163641   1.527   1.623   0.228
17329SOL    HW263642   1.444   1.762   0.206
17330SOL     OW63643   8.955   4.685   3.073
17330SOL    HW163644   8.888   4.613   3.053
17330SOL    HW263645   8.990   4.723   2.988
17331SOL     OW63646   8.766   5.171   1.656
17331SOL    HW163647   8.738   5.201   1.564
17331SOL    HW263648   8.689   5.181   1.719
17332SOL     OW63649   7.782   7.233   1.758
17332SOL    HW163650   7.743   7.170   1.691
17332SOL    HW263651   7.711   7.297   1.789
17333SOL     OW63652   5.702   1.865   0.830
17333SOL    HW163653   5.709   1.890   0.926
17333SOL    HW263654   5.626   1.802   0.818
17334SOL     OW63655   8.617   2.263   6.975
17334SOL    HW163656   8.651   2.184   6.925
17334SOL    HW263657   8.649   2.258   7.070
17335SOL     OW63658   2.793   9.212   4.063
17335SOL    HW163659   2.696   9.224   4.082
17335SOL    HW263660   2.821   9.276   3.991
17336SOL     OW63661   0.140   9.682   1.992
17336SOL    HW163662   0.221   9.737   1.973
17336SOL    HW263663   0.120   9.685   2.090
17337SOL     OW63664   1.670   3.495   4.090
17337SOL    HW163665   1.683   3.396   4.077
17337SOL    HW263666   1.737   3.528   4.156
17338SOL     OW63667   2.023   2.320   3.029
17338SOL    HW163668   2.099   2.257   3.043
17338SOL    HW263669   2.055   2.414   3.040
17339SOL     OW63670   9.082   0.002   0.063
17339SOL    HW163671   9.062   9.929   0.128
17339SOL    HW263672   9.175   9.990   0.028
17340SOL     OW63673   1.227   9.504   1.979
17340SOL    HW163674   1.137   9.488   1.938
17340SOL    HW263675   1.216   9.539   2.072
17341SOL     OW63676   5.553   6.459   0.464
17341SOL    HW163677   5.519   6.543   0.506
17341SOL    HW263678   5.526   6.455   0.368
17342SOL     OW63679   1.909   9.481   4.385
17342SOL    HW163680   1.812   9.499   4.401
17342SOL    HW263681   1.956   9.470   4.472
17343SOL     OW63682   3.448   6.816   5.313
17343SOL    HW163683   3.521   6.879   5.337
17343SOL    HW263684   3.363   6.867   5.300
17344SOL     OW63685   7.786   7.394   5.637
17344SOL    HW163686   7.864   7.435   5.685
17344SOL    HW263687   7.726   7.351   5.704
17345SOL     OW63688   3.289   3.544   4.656
17345SOL    HW163689   3.348   3.569   4.579
17345SOL    HW263690   3.308   3.604   4.734
17346SOL     OW63691   6.702   8.222   7.484
17346SOL    HW163692   6.614   8.261   7.511
17346SOL    HW263693   6.688   8.152   7.415
17347SOL     OW63694   9.154   4.710   6.305
17347SOL    HW163695   9.091   4.780   6.340
17347SOL    HW263696   9.177   4.730   6.210
17348SOL     OW63697   9.504   7.215   5.961
17348SOL    HW163698   9.599   7.184   5.952
17348SOL    HW263699   9.486   7.242   6.056
17349SOL     OW63700   9.436   2.326   2.460
17349SOL    HW163701   9.518   2.340   2.405
17349SOL    HW263702   9.373   2.265   2.412
17350SOL     OW63703   6.671   0.019   1.491
17350SOL    HW163704   6.683   0.080   1.412
17350SOL    HW263705   6.660   9.925   1.458
17351SOL     OW63706   6.302   9.018   5.833
17351SOL    HW163707   6.253   9.101   5.858
17351SOL    HW263708   6.328   8.968   5.915
17352SOL     OW63709   6.943   2.452   2.518
17352SOL    HW163710   6.942   2.549   2.543
17352SOL    HW263711   7.014   2.404   2.569
17353SOL     OW63712   3.116   8.684   3.339
17353SOL    HW163713   3.154   8.730   3.420
17353SOL    HW263714   3.161   8.718   3.257
17354SOL     OW63715   5.738   0.722   2.521
17354SOL    HW163716   5.665   0.664   2.557
17354SOL    HW263717   5.802   0.666   2.469
17355SOL     OW63718   2.118   6.551   1.093
17355SOL    HW163719   2.028   6.510   1.106
17355SOL    HW263720   2.171   6.496   1.030
17356SOL     OW63721   5.704   1.813   5.717
17356SOL    HW163722   5.621   1.842   5.765
17356SOL    HW263723   5.692   1.720   5.684
17357SOL     OW63724   0.030   2.776   3.683
17357SOL    HW163725   0.032   2.712   3.605
17357SOL    HW263726   0.067   2.864   3.654
17358SOL     OW63727   7.723   4.502   0.052
17358SOL    HW163728   7.625   4.505   0.035
17358SOL    HW263729   7.772   4.507  10.047
17359SOL     OW63730   7.298   0.586   0.498
17359SOL    HW163731   7.211   0.597   0.451
17359SOL    HW263732   7.333   0.677   0.523
17360SOL     OW63733   1.822   4.683   7.757
17360SOL    HW163734   1.912   4.642   7.773
17360SOL    HW263735   1.832   4.781   7.745
17361SOL     OW63736   1.955   0.587   6.762
17361SOL    HW163737   1.856   0.594   6.778
17361SOL    HW263738   1.990   0.503   6.804
17362SOL     OW63739   3.305   9.556   6.505
17362SOL    HW163740   3.360   9.473   6.515
17362SOL    HW263741   3.242   9.564   6.582
17363SOL     OW63742   3.488   0.718   6.750
17363SOL    HW163743   3.496   0.666   6.835
17363SOL    HW263744   3.559   0.787   6.747
17364SOL     OW63745   5.007   4.777   7.520
17364SOL    HW163746   5.017   4.722   7.437
17364SOL    HW263747   4.974   4.868   7.495
17365SOL     OW63748   5.579   7.788   6.218
17365SOL    HW163749   5.666   7.758   6.258
17365SOL    HW263750   5.554   7.726   6.144
17366SOL     OW63751   8.211   1.691   2.948
17366SOL    HW163752   8.300   1.726   2.978
17366SOL    HW263753   8.173   1.752   2.879
17367SOL     OW63754   8.493   1.658   4.518
17367SOL    HW163755   8.523   1.585   4.457
17367SOL    HW263756   8.530   1.746   4.488
17368SOL     OW63757   0.168   4.628   3.641
17368SOL    HW163758   0.146   4.653   3.547
17368SOL    HW263759   0.267   4.621   3.652
17369SOL     OW63760   7.667   0.590   3.981
17369SOL    HW163761   7.616   0.660   4.031
17369SOL    HW263762   7.611   0.556   3.905
17370SOL     OW63763   7.157   6.295   3.104
17370SOL    HW163764   7.216   6.299   3.024
17370SOL    HW263765   7.199   6.238   3.175
17371SOL     OW63766   6.186   3.143   0.561
17371SOL    HW163767   6.232   3.131   0.473
17371SOL    HW263768   6.141   3.233   0.563
17372SOL     OW63769   2.577   6.732   6.483
17372SOL    HW163770   2.559   6.823   6.446
17372SOL    HW263771   2.490   6.687   6.503
17373SOL     OW63772   5.794   2.601   5.257
17373SOL    HW163773   5.823   2.562   5.344
17373SOL    HW263774   5.832   2.546   5.182
17374SOL     OW63775   1.232   2.786   5.436
17374SOL    HW163776   1.165   2.834   5.492
17374SOL    HW263777   1.248   2.838   5.352
17375SOL     OW63778   5.510   5.987   1.671
17375SOL    HW163779   5.538   5.966   1.765
17375SOL    HW263780   5.581   6.042   1.627
17376SOL     OW63781   7.414   6.313   2.639
17376SOL    HW163782   7.404   6.399   2.589
17376SOL    HW263783   7.504   6.312   2.685
17377SOL     OW63784   0.735   2.946   0.792
17377SOL    HW163785   0.677   2.988   0.723
17377SOL    HW263786   0.772   2.860   0.758
17378SOL     OW63787   7.324   2.100   1.465
17378SOL    HW163788   7.264   2.084   1.543
17378SOL    HW263789   7.279   2.068   1.382
17379SOL     OW63790   3.226   5.305   1.070
17379SOL    HW163791   3.197   5.223   1.021
17379SOL    HW263792   3.223   5.383   1.008
17380SOL     OW63793   2.613   7.257   6.199
17380SOL    HW163794   2.590   7.180   6.259
17380SOL    HW263795   2.564   7.246   6.112
17381SOL     OW63796   9.237   6.756   3.596
17381SOL    HW163797   9.280   6.670   3.569
17381SOL    HW263798   9.285   6.832   3.552
17382SOL     OW63799   8.776   4.296   1.690
17382SOL    HW163800   8.717   4.301   1.770
17382SOL    HW263801   8.783   4.201   1.659
17383SOL     OW63802   3.356   3.286   0.212
17383SOL    HW163803   3.307   3.203   0.239
17383SOL    HW263804   3.444   3.262   0.171
17384SOL     OW63805   8.885   7.956   6.865
17384SOL    HW163806   8.967   8.001   6.899
17384SOL    HW263807   8.834   8.018   6.806
17385SOL     OW63808   6.286   7.351   3.495
17385SOL    HW163809   6.213   7.283   3.485
17385SOL    HW263810   6.252   7.441   3.472
17386SOL     OW63811   0.812   9.693   7.127
17386SOL    HW163812   0.825   9.699   7.028
17386SOL    HW263813   0.730   9.639   7.146
17387SOL     OW63814   0.345   6.181   1.191
17387SOL    HW163815   0.309   6.193   1.284
17387SOL    HW263816   0.277   6.211   1.124
17388SOL     OW63817   5.282   7.702   4.150
17388SOL    HW163818   5.209   7.653   4.199
17388SOL    HW263819   5.290   7.666   4.057
17389SOL     OW63820   8.878   3.308   0.140
17389SOL    HW163821   8.962   3.262   0.110
17389SOL    HW263822   8.897   3.405   0.154
17390SOL     OW63823   9.586   9.427   4.021
17390SOL    HW163824   9.547   9.335   4.017
17390SOL    HW263825   9.515   9.495   4.003
17391SOL     OW63826   3.747   8.482   3.877
17391SOL    HW163827   3.661   8.531   3.867
17391SOL    HW263828   3.731   8.383   3.872
17392SOL     OW63829   2.813   1.265   1.032
17392SOL    HW163830   2.734   1.269   0.972
17392SOL    HW263831   2.804   1.188   1.095
17393SOL     OW63832   3.795   6.970   3.852
17393SOL    HW163833   3.785   7.005   3.945
17393SOL    HW263834   3.812   6.871   3.855
17394SOL     OW63835   7.110   2.300   5.308
17394SOL    HW163836   7.072   2.229   5.249
17394SOL    HW263837   7.091   2.390   5.269
17395SOL     OW63838   3.845   0.689   1.614
17395SOL    HW163839   3.841   0.608   1.673
17395SOL    HW263840   3.937   0.697   1.575
17396SOL     OW63841   5.888   1.889   5.907
17396SOL    HW163842   5.950   1.815   5.933
17396SOL    HW263843   5.818   1.853   5.845
17397SOL     OW63844   3.660   6.062   2.295
17397SOL    HW163845   3.700   6.133   2.353
17397SOL    HW263846   3.686   5.972   2.329
17398SOL     OW63847   0.351   5.389   4.216
17398SOL    HW163848   0.260   5.354   4.240
17398SOL    HW263849   0.409   5.313   4.187
17399SOL     OW63850   1.523   1.976   3.362
17399SOL    HW163851   1.474   1.996   3.447
17399SOL    HW263852   1.546   2.063   3.317
17400SOL     OW63853   8.536   1.455   4.337
17400SOL    HW163854   8.493   1.491   4.255
17400SOL    HW263855   8.631   1.431   4.318
17401SOL     OW63856   3.288   9.705   3.860
17401SOL    HW163857   3.388   9.700   3.857
17401SOL    HW263858   3.259   9.745   3.947
17402SOL     OW63859   0.025   5.569   3.484
17402SOL    HW163860   0.071   5.640   3.538
17402SOL    HW263861   9.985   5.610   3.402
17403SOL     OW63862   7.351   6.872   2.238
17403SOL    HW163863   7.431   6.822   2.206
17403SOL    HW263864   7.365   6.900   2.333
17404SOL     OW63865   3.183   6.793   0.476
17404SOL    HW163866   3.110   6.732   0.444
17404SOL    HW263867   3.165   6.886   0.443
17405SOL     OW63868   3.832   4.609   2.495
17405SOL    HW163869   3.772   4.684   2.522
17405SOL    HW263870   3.906   4.599   2.562
17406SOL     OW63871   3.587   5.026   4.204
17406SOL    HW163872   3.640   4.988   4.279
17406SOL    HW263873   3.592   5.126   4.207
17407SOL     OW63874   4.279   3.866   6.737
17407SOL    HW163875   4.268   3.773   6.773
17407SOL    HW263876   4.229   3.875   6.651
17408SOL     OW63877   7.838   4.583   3.677
17408SOL    HW163878   7.808   4.553   3.767
17408SOL    HW263879   7.784   4.663   3.649
17409SOL     OW63880   1.050   3.527   5.325
17409SOL    HW163881   1.138   3.482   5.307
17409SOL    HW263882   1.060   3.625   5.312
17410SOL     OW63883   9.178   1.289   2.883
17410SOL    HW163884   9.156   1.210   2.939
17410SOL    HW263885   9.131   1.282   2.795
17411SOL     OW63886   8.652   8.413   0.415
17411SOL    HW163887   8.681   8.464   0.334
17411SOL    HW263888   8.732   8.382   0.465
17412SOL     OW63889   7.252   3.436   3.026
17412SOL    HW163890   7.160   3.454   2.992
17412SOL    HW263891   7.277   3.341   3.008
17413SOL     OW63892   0.736   1.412   5.401
17413SOL    HW163893   0.655   1.358   5.420
17413SOL    HW263894   0.806   1.394   5.470
17414SOL     OW63895   3.984   0.155   7.404
17414SOL    HW163896   3.993   0.150   7.305
17414SOL    HW263897   3.898   0.113   7.432
17415SOL     OW63898   9.626   1.175   0.334
17415SOL    HW163899   9.630   1.250   0.400
17415SOL    HW263900   9.659   1.091   0.376
17416SOL     OW63901   4.254   4.644   6.120
17416SOL    HW163902   4.267   4.630   6.022
17416SOL    HW263903   4.272   4.558   6.169
17417SOL     OW63904   9.701   6.725   1.419
17417SOL    HW163905   9.679   6.663   1.495
17417SOL    HW263906   9.639   6.707   1.343
17418SOL     OW63907   2.064   9.737   3.923
17418SOL    HW163908   2.021   9.654   3.957
17418SOL    HW263909   2.030   9.816   3.976
17419SOL     OW63910   3.037   8.029   2.115
17419SOL    HW163911   3.047   7.938   2.074
17419SOL    HW263912   3.125   8.058   2.152
17420SOL     OW63913   8.675   2.346   1.397
17420SOL    HW163914   8.684   2.286   1.317
17420SOL    HW263915   8.764   2.356   1.441
17421SOL     OW63916   1.595   4.951   7.622
17421SOL    HW163917   1.690   4.952   7.655
17421SOL    HW263918   1.538   4.901   7.688
17422SOL     OW63919   6.708   9.183   5.406
17422SOL    HW163920   6.631   9.224   5.455
17422SOL    HW263921   6.675   9.134   5.326
17423SOL     OW63922   8.877   6.381   7.828
17423SOL    HW163923   8.900   6.294   7.873
17423SOL    HW263924   8.934   6.392   7.746
17424SOL     OW63925   1.448   0.300   4.241
17424SOL    HW163926   1.482   0.341   4.325
17424SOL    HW263927   1.510   0.227   4.211
17425SOL     OW63928   0.505   5.641   5.745
17425SOL    HW163929   0.593   5.686   5.731
17425SOL    HW263930   0.518   5.560   5.803
17426SOL     OW63931   0.850   5.672   7.278
17426SOL    HW163932   0.787   5.745   7.305
17426SOL    HW263933   0.939   5.688   7.321
17427SOL     OW63934   1.134   3.034   7.211
17427SOL    HW163935   1.101   2.950   7.255
17427SOL    HW263936   1.121   3.027   7.112
17428SOL     OW63937   6.159   8.259   3.290
17428SOL    HW163938   6.250   8.299   3.298
17428SOL    HW263939   6.148   8.187   3.358
17429SOL     OW63940   8.455   5.610   7.085
17429SOL    HW163941   8.499   5.602   6.996
17429SOL    HW263942   8.413   5.701   7.094
17430SOL     OW63943   2.174   1.683   7.270
17430SOL    HW163944   2.230   1.637   7.200
17430SOL    HW263945   2.206   1.658   7.361
17431SOL     OW63946   4.329   3.380   0.372
17431SOL    HW163947   4.411   3.428   0.404
17431SOL    HW263948   4.304   3.310   0.439
17432SOL     OW63949   8.388   0.703   5.899
17432SOL    HW163950   8.315   0.746   5.951
17432SOL    HW263951   8.473   0.706   5.952
17433SOL     OW63952   5.302   3.320   1.275
17433SOL    HW163953   5.295   3.390   1.346
17433SOL    HW263954   5.277   3.231   1.314
17434SOL     OW63955   8.199   0.930   0.309
17434SOL    HW163956   8.140   0.906   0.386
17434SOL    HW263957   8.278   0.869   0.308
17435SOL     OW63958   2.041   7.178   4.927
17435SOL    HW163959   1.983   7.110   4.972
17435SOL    HW263960   1.988   7.225   4.856
17436SOL     OW63961   8.400   3.556   5.422
17436SOL    HW163962   8.309   3.519   5.405
17436SOL    HW263963   8.421   3.548   5.520
17437SOL     OW63964   9.185   8.973   6.299
17437SOL    HW163965   9.258   9.040   6.286
17437SOL    HW263966   9.144   8.987   6.390
17438SOL     OW63967   3.402   4.361   5.729
17438SOL    HW163968   3.442   4.452   5.717
17438SOL    HW263969   3.401   4.338   5.827
17439SOL     OW63970   7.899   0.309   5.114
17439SOL    HW163971   7.828   0.246   5.081
17439SOL    HW263972   7.968   0.321   5.043
17440SOL     OW63973   6.931   8.092   7.155
17440SOL    HW163974   6.880   8.139   7.083
17440SOL    HW263975   6.985   8.018   7.114
17441SOL     OW63976   0.670   8.383   4.312
17441SOL    HW163977   0.769   8.374   4.309
17441SOL    HW263978   0.640   8.399   4.406
17442SOL     OW63979   2.077   0.303   3.438
17442SOL    HW163980   2.084   0.227   3.503
17442SOL    HW263981   2.164   0.351   3.433
17443SOL     OW63982   6.358   9.006   4.106
17443SOL    HW163983   6.307   9.013   4.020
17443SOL    HW263984   6.309   8.946   4.169
17444SOL     OW63985   4.083   3.263   5.082
17444SOL    HW163986   4.142   3.216   5.147
17444SOL    HW263987   3.987   3.241   5.102
17445SOL     OW63988   1.060   4.705   3.135
17445SOL    HW163989   0.977   4.701   3.190
17445SOL    HW263990   1.074   4.618   3.088
17446SOL     OW63991   6.432   7.744   5.347
17446SOL    HW163992   6.368   7.674   5.313
17446SOL    HW263993   6.446   7.730   5.445
17447SOL     OW63994   3.271   7.826   2.329
17447SOL    HW163995   3.351   7.886   2.324
17447SOL    HW263996   3.296   7.742   2.377
17448SOL     OW63997   4.840   8.090   5.743
17448SOL    HW163998   4.878   8.157   5.806
17448SOL    HW263999   4.741   8.102   5.736
17449SOL     OW64000   2.599   0.504   7.196
17449SOL    HW164001   2.681   0.478   7.146
17449SOL    HW264002   2.620   0.510   7.294
17450SOL     OW64003   1.536   0.279   2.706
17450SOL    HW164004   1.558   0.348   2.774
17450SOL    HW264005   1.442   0.247   2.720
17451SOL     OW64006   3.527   7.318   2.131
17451SOL    HW164007   3.615   7.361   2.148
17451SOL    HW264008   3.536   7.219   2.137
17452SOL     OW64009   6.284   4.535   1.760
17452SOL    HW164010   6.254   4.611   1.818
17452SOL    HW264011   6.383   4.541   1.746
17453SOL     OW64012   4.286   7.548   3.824
17453SOL    HW164013   4.356   7.574   3.891
17453SOL    HW264014   4.296   7.452   3.800
17454SOL     OW64015   4.157   2.979   2.073
17454SOL    HW164016   4.152   3.078   2.059
17454SOL    HW264017   4.064   2.940   2.072
17455SOL     OW64018   4.218   1.552   6.971
17455SOL    HW164019   4.170   1.466   6.956
17455SOL    HW264020   4.287   1.566   6.900
17456SOL     OW64021   5.707   0.480   7.009
17456SOL    HW164022   5.716   0.468   7.107
17456SOL    HW264023   5.612   0.503   6.986
17457SOL     OW64024   7.798   7.582   3.720
17457SOL    HW164025   7.896   7.590   3.705
17457SOL    HW264026   7.763   7.668   3.757
17458SOL     OW64027   2.114   0.332   5.409
17458SOL    HW164028   2.081   0.297   5.321
17458SOL    HW264029   2.213   0.323   5.413
17459SOL     OW64030   4.919   1.125   4.222
17459SOL    HW164031   5.012   1.088   4.222
17459SOL    HW264032   4.915   1.204   4.161
17460SOL     OW64033   0.895   7.083   4.891
17460SOL    HW164034   0.990   7.105   4.873
17460SOL    HW264035   0.888   7.028   4.975
17461SOL     OW64036   2.745   8.307   0.305
17461SOL    HW164037   2.795   8.302   0.391
17461SOL    HW264038   2.803   8.274   0.230
17462SOL     OW64039   3.148   0.097   5.554
17462SOL    HW164040   3.139   0.158   5.633
17462SOL    HW264041   3.061   0.095   5.504
17463SOL     OW64042   2.532   7.476   0.481
17463SOL    HW164043   2.501   7.386   0.512
17463SOL    HW264044   2.592   7.516   0.550
17464SOL     OW64045   1.440   2.961   3.874
17464SOL    HW164046   1.509   2.910   3.824
17464SOL    HW264047   1.361   2.977   3.815
17465SOL     OW64048   7.316   8.338   6.164
17465SOL    HW164049   7.403   8.295   6.191
17465SOL    HW264050   7.269   8.279   6.098
17466SOL     OW64051   7.284   0.919   4.402
17466SOL    HW164052   7.202   0.876   4.365
17466SOL    HW264053   7.346   0.942   4.328
17467SOL     OW64054   9.880   6.311   4.056
17467SOL    HW164055   9.971   6.278   4.029
17467SOL    HW264056   9.879   6.330   4.154
17468SOL     OW64057   3.894   9.899   3.541
17468SOL    HW164058   3.924   9.836   3.614
17468SOL    HW264059   3.871   9.846   3.460
17469SOL     OW64060   1.259   1.773   0.225
17469SOL    HW164061   1.232   1.855   0.275
17469SOL    HW264062   1.194   1.700   0.243
17470SOL     OW64063   9.522   4.396   1.198
17470SOL    HW164064   9.512   4.492   1.172
17470SOL    HW264065   9.432   4.352   1.194
17471SOL     OW64066   9.829   4.589   4.639
17471SOL    HW164067   9.821   4.669   4.699
17471SOL    HW264068   9.801   4.507   4.690
17472SOL     OW64069   9.863   0.025   6.780
17472SOL    HW164070   9.794   9.952   6.776
17472SOL    HW264071   9.895   0.045   6.687
17473SOL     OW64072   4.499   6.229   7.495
17473SOL    HW164073   4.460   6.294   7.430
17473SOL    HW264074   4.473   6.254   7.588
17474SOL     OW64075   7.568   1.458   3.508
17474SOL    HW164076   7.622   1.537   3.479
17474SOL    HW264077   7.475   1.488   3.532
17475SOL     OW64078   2.232   5.453   0.688
17475SOL    HW164079   2.154   5.492   0.737
17475SOL    HW264080   2.199   5.391   0.617
17476SOL     OW64081   8.032   9.904   6.895
17476SOL    HW164082   8.021   9.853   6.980
17476SOL    HW264083   7.960   9.878   6.831
17477SOL     OW64084   7.879   9.486   7.103
17477SOL    HW164085   7.923   9.437   7.178
17477SOL    HW264086   7.784   9.455   7.094
17478SOL     OW64087   0.770   9.781   3.194
17478SOL    HW164088   0.782   9.797   3.292
17478SOL    HW264089   0.674   9.796   3.170
17479SOL     OW64090   3.001   9.699   7.869
17479SOL    HW164091   3.070   9.626   7.866
17479SOL    HW264092   2.913   9.660   7.893
17480SOL     OW64093   1.253   5.649   2.210
17480SOL    HW164094   1.330   5.610   2.261
17480SOL    HW264095   1.198   5.576   2.170
17481SOL     OW64096   1.947   4.924   1.726
17481SOL    HW164097   1.934   4.836   1.771
17481SOL    HW264098   1.934   4.998   1.793
17482SOL     OW64099   0.646   3.689   4.031
17482SOL    HW164100   0.670   3.770   4.084
17482SOL    HW264101   0.720   3.666   3.968
17483SOL     OW64102   4.572   0.070   3.475
17483SOL    HW164103   4.620   9.984   3.459
17483SOL    HW264104   4.611   0.116   3.554
17484SOL     OW64105   6.866   5.022   1.130
17484SOL    HW164106   6.800   5.039   1.204
17484SOL    HW264107   6.853   5.090   1.058
17485SOL     OW64108   3.678   4.773   1.981
17485SOL    HW164109   3.687   4.858   2.034
17485SOL    HW264110   3.625   4.707   2.034
17486SOL     OW64111   7.456   8.732   6.246
17486SOL    HW164112   7.533   8.687   6.202
17486SOL    HW264113   7.406   8.665   6.301
17487SOL     OW64114   7.106   9.715   1.598
17487SOL    HW164115   7.055   9.801   1.596
17487SOL    HW264116   7.145   9.702   1.689
17488SOL     OW64117   7.964   5.163   1.998
17488SOL    HW164118   7.927   5.079   1.959
17488SOL    HW264119   8.061   5.172   1.972
17489SOL     OW64120   3.216   9.380   1.480
17489SOL    HW164121   3.274   9.416   1.407
17489SOL    HW264122   3.123   9.414   1.467
17490SOL     OW64123   3.118   5.230   3.941
17490SOL    HW164124   3.138   5.313   3.890
17490SOL    HW264125   3.190   5.214   4.009
17491SOL     OW64126   1.773   2.719   6.683
17491SOL    HW164127   1.686   2.672   6.670
17491SOL    HW264128   1.764   2.815   6.654
17492SOL     OW64129   1.872   1.227   2.988
17492SOL    HW164130   1.805   1.227   2.915
17492SOL    HW264131   1.898   1.133   3.010
17493SOL     OW64132   1.889   0.519   1.924
17493SOL    HW164133   1.954   0.442   1.923
17493SOL    HW264134   1.799   0.486   1.896
17494SOL     OW64135   3.568   7.974   5.511
17494SOL    HW164136   3.580   8.071   5.492
17494SOL    HW264137   3.552   7.925   5.424
17495SOL     OW64138   4.016   8.959   4.425
17495SOL    HW164139   3.982   8.961   4.331
17495SOL    HW264140   4.116   8.961   4.425
17496SOL     OW64141   8.018   8.347   5.331
17496SOL    HW164142   8.025   8.365   5.232
17496SOL    HW264143   7.925   8.321   5.354
17497SOL     OW64144   5.895   2.871   5.056
17497SOL    HW164145   5.820   2.846   4.995
17497SOL    HW264146   5.859   2.894   5.146
17498SOL     OW64147   5.128   1.592   1.127
17498SOL    HW164148   5.134   1.525   1.053
17498SOL    HW264149   5.130   1.684   1.088
17499SOL     OW64150   0.633   0.712   1.267
17499SOL    HW164151   0.609   0.807   1.286
17499SOL    HW264152   0.668   0.704   1.174
17500SOL     OW64153   6.377   1.793   6.279
17500SOL    HW164154   6.448   1.856   6.312
17500SOL    HW264155   6.351   1.817   6.185
17501SOL     OW64156   0.583   6.036   7.618
17501SOL    HW164157   0.594   6.125   7.663
17501SOL    HW264158   0.490   6.004   7.630
17502SOL     OW64159   1.368   3.481   7.254
17502SOL    HW164160   1.423   3.462   7.173
17502SOL    HW264161   1.309   3.402   7.274
17503SOL     OW64162   8.937   1.494   0.793
17503SOL    HW164163   8.901   1.571   0.740
17503SOL    HW264164   9.024   1.520   0.834
17504SOL     OW64165   9.644   9.867   1.156
17504SOL    HW164166   9.741   9.880   1.176
17504SOL    HW264167   9.602   9.813   1.229
17505SOL     OW64168   9.238   1.389   1.834
17505SOL    HW164169   9.173   1.465   1.842
17505SOL    HW264170   9.331   1.425   1.827
17506SOL     OW64171   3.030   2.827   7.055
17506SOL    HW164172   2.986   2.881   6.983
17506SOL    HW264173   3.106   2.879   7.094
17507SOL     OW64174   4.549   6.226   1.656
17507SOL    HW164175   4.514   6.149   1.602
17507SOL    HW264176   4.631   6.198   1.705
17508SOL     OW64177   8.023   0.154   5.566
17508SOL    HW164178   7.981   0.230   5.516
17508SOL    HW264179   8.122   0.159   5.558
17509SOL     OW64180   4.075   9.547   7.637
17509SOL    HW164181   4.090   9.644   7.659
17509SOL    HW264182   4.123   9.524   7.553
17510SOL     OW64183   5.782   0.288   6.836
17510SOL    HW164184   5.863   0.314   6.783
17510SOL    HW264185   5.755   0.365   6.894
17511SOL     OW64186   0.923   1.835   0.389
17511SOL    HW164187   0.949   1.932   0.383
17511SOL    HW264188   0.835   1.821   0.344
17512SOL     OW64189   8.094   3.026   4.441
17512SOL    HW164190   8.099   3.083   4.523
17512SOL    HW264191   8.181   3.033   4.391
17513SOL     OW64192   0.684   1.825   0.233
17513SOL    HW164193   0.717   1.916   0.208
17513SOL    HW264194   0.605   1.801   0.176
17514SOL     OW64195   8.210   4.222   5.593
17514SOL    HW164196   8.156   4.273   5.526
17514SOL    HW264197   8.153   4.154   5.638
17515SOL     OW64198   2.075   2.512   4.104
17515SOL    HW164199   2.174   2.521   4.096
17515SOL    HW264200   2.048   2.417   4.087
17516SOL     OW64201   7.888   2.607   2.562
17516SOL    HW164202   7.961   2.610   2.493
17516SOL    HW264203   7.927   2.589   2.652
17517SOL     OW64204   2.584   3.182   0.655
17517SOL    HW164205   2.683   3.180   0.652
17517SOL    HW264206   2.549   3.231   0.575
17518SOL     OW64207   0.631   8.962   0.120
17518SOL    HW164208   0.712   8.923   0.164
17518SOL    HW264209   0.563   8.984   0.190
17519SOL     OW64210   7.760   2.103   5.162
17519SOL    HW164211   7.674   2.130   5.120
17519SOL    HW264212   7.788   2.172   5.229
17520SOL     OW64213   4.150   3.343   4.828
17520SOL    HW164214   4.111   3.280   4.762
17520SOL    HW264215   4.128   3.313   4.921
17521SOL     OW64216   3.560   7.331   7.766
17521SOL    HW164217   3.594   7.270   7.838
17521SOL    HW264218   3.542   7.421   7.805
17522SOL     OW64219   6.658   8.755   6.826
17522SOL    HW164220   6.671   8.810   6.743
17522SOL    HW264221   6.713   8.672   6.820
17523SOL     OW64222   4.717   4.308   7.148
17523SOL    HW164223   4.673   4.365   7.079
17523SOL    HW264224   4.649   4.245   7.187
17524SOL     OW64225   9.324   6.161   0.424
17524SOL    HW164226   9.377   6.157   0.508
17524SOL    HW264227   9.319   6.256   0.392
17525SOL     OW64228   5.196   2.448   0.342
17525SOL    HW164229   5.184   2.435   0.440
17525SOL    HW264230   5.161   2.538   0.315
17526SOL     OW64231   2.127   4.439   7.075
17526SOL    HW164232   2.052   4.389   7.119
17526SOL    HW264233   2.177   4.378   7.013
17527SOL     OW64234   2.884   1.098   2.551
17527SOL    HW164235   2.887   1.056   2.461
17527SOL    HW264236   2.889   1.198   2.541
17528SOL     OW64237   1.400   8.726   6.693
17528SOL    HW164238   1.497   8.716   6.669
17528SOL    HW264239   1.360   8.636   6.708
17529SOL     OW64240   2.312   8.433   4.160
17529SOL    HW164241   2.391   8.492   4.146
17529SOL    HW264242   2.341   8.347   4.201
17530SOL     OW64243   7.940   1.450   7.760
17530SOL    HW164244   8.011   1.489   7.701
17530SOL    HW264245   7.895   1.524   7.811
17531SOL     OW64246   5.959   0.808   2.667
17531SOL    HW164247   5.875   0.800   2.614
17531SOL    HW264248   6.002   0.897   2.648
17532SOL     OW64249   2.269   9.699   1.121
17532SOL    HW164250   2.288   9.600   1.121
17532SOL    HW264251   2.320   9.742   1.046
17533SOL     OW64252   2.445   9.232   5.608
17533SOL    HW164253   2.370   9.166   5.605
17533SOL    HW264254   2.456   9.267   5.701
17534SOL     OW64255   9.574   8.165   0.881
17534SOL    HW164256   9.583   8.104   0.959
17534SOL    HW264257   9.664   8.185   0.842
17535SOL     OW64258   0.278   4.231   7.693
17535SOL    HW164259   0.310   4.158   7.632
17535SOL    HW264260   0.251   4.192   7.781
17536SOL     OW64261   7.535   3.893   1.903
17536SOL    HW164262   7.511   3.796   1.915
17536SOL    HW264263   7.634   3.901   1.890
17537SOL     OW64264   5.296   3.755   7.444
17537SOL    HW164265   5.239   3.693   7.389
17537SOL    HW264266   5.265   3.849   7.430
17538SOL     OW64267   9.845   8.354   4.562
17538SOL    HW164268   9.842   8.383   4.658
17538SOL    HW264269   9.765   8.297   4.542
17539SOL     OW64270   4.572   7.902   2.035
17539SOL    HW164271   4.589   7.947   2.123
17539SOL    HW264272   4.534   7.968   1.971
17540SOL     OW64273   7.577   5.891   0.469
17540SOL    HW164274   7.671   5.881   0.502
17540SOL    HW264275   7.537   5.974   0.507
17541SOL     OW64276   1.873   0.995   0.690
17541SOL    HW164277   1.891   0.907   0.647
17541SOL    HW264278   1.885   0.988   0.789
17542SOL     OW64279   1.994   3.816   6.967
17542SOL    HW164280   1.937   3.817   6.886
17542SOL    HW264281   2.054   3.736   6.965
17543SOL     OW64282   4.618   8.526   4.870
17543SOL    HW164283   4.670   8.582   4.805
17543SOL    HW264284   4.676   8.504   4.949
17544SOL     OW64285   0.692   6.209   2.565
17544SOL    HW164286   0.730   6.262   2.641
17544SOL    HW264287   0.604   6.249   2.538
17545SOL     OW64288   4.274   6.337   1.375
17545SOL    HW164289   4.240   6.288   1.455
17545SOL    HW264290   4.225   6.424   1.367
17546SOL     OW64291   4.648   4.074   0.901
17546SOL    HW164292   4.646   4.172   0.880
17546SOL    HW264293   4.725   4.054   0.961
17547SOL     OW64294   9.114   0.082   4.084
17547SOL    HW164295   9.174   0.014   4.126
17547SOL    HW264296   9.043   0.108   4.149
17548SOL     OW64297   3.135   7.934   5.508
17548SOL    HW164298   3.175   7.986   5.583
17548SOL    HW264299   3.134   7.990   5.425
17549SOL     OW64300   1.306   8.755   6.026
17549SOL    HW164301   1.299   8.663   6.064
17549SOL    HW264302   1.215   8.796   6.020
17550SOL     OW64303   2.493   8.358   4.485
17550SOL    HW164304   2.443   8.301   4.420
17550SOL    HW264305   2.528   8.301   4.559
17551SOL     OW64306   8.184   0.197   3.776
17551SOL    HW164307   8.165   0.166   3.682
17551SOL    HW264308   8.100   0.194   3.829
17552SOL     OW64309   1.922   2.593   2.182
17552SOL    HW164310   1.897   2.666   2.119
17552SOL    HW264311   1.946   2.632   2.271
17553SOL     OW64312   6.050   6.089   0.217
17553SOL    HW164313   6.054   5.996   0.180
17553SOL    HW264314   6.142   6.128   0.222
17554SOL     OW64315   1.241   2.451   1.680
17554SOL    HW164316   1.153   2.497   1.665
17554SOL    HW264317   1.240   2.405   1.769
17555SOL     OW64318   3.480   8.367   4.154
17555SOL    HW164319   3.440   8.305   4.086
17555SOL    HW264320   3.456   8.461   4.132
17556SOL     OW64321   0.712   3.307   0.133
17556SOL    HW164322   0.725   3.406   0.143
17556SOL    HW264323   0.737   3.261   0.219
17557SOL     OW64324   0.688   6.687   4.880
17557SOL    HW164325   0.657   6.680   4.974
17557SOL    HW264326   0.695   6.784   4.853
17558SOL     OW64327   6.932   9.444   1.845
17558SOL    HW164328   6.978   9.441   1.756
17558SOL    HW264329   6.999   9.434   1.918
17559SOL     OW64330   3.495   2.515   7.452
17559SOL    HW164331   3.553   2.595   7.465
17559SOL    HW264332   3.400   2.538   7.473
17560SOL     OW64333   7.401   8.349   5.209
17560SOL    HW164334   7.360   8.274   5.261
17560SOL    HW264335   7.459   8.311   5.137
17561SOL     OW64336   9.363   4.953   2.391
17561SOL    HW164337   9.276   4.931   2.346
17561SOL    HW264338   9.394   4.875   2.445
17562SOL     OW64339   9.392   5.450   3.950
17562SOL    HW164340   9.436   5.526   3.901
17562SOL    HW264341   9.398   5.466   4.048
17563SOL     OW64342   1.968   0.428   4.087
17563SOL    HW164343   1.990   0.508   4.143
17563SOL    HW264344   1.958   0.348   4.146
17564SOL     OW64345   8.385   5.522   4.255
17564SOL    HW164346   8.409   5.425   4.261
17564SOL    HW264347   8.469   5.577   4.255
17565SOL     OW64348   5.095   0.089   4.600
17565SOL    HW164349   5.176   0.097   4.541
17565SOL    HW264350   5.119   0.116   4.693
17566SOL     OW64351   1.659   7.133   4.927
17566SOL    HW164352   1.575   7.099   4.970
17566SOL    HW264353   1.738   7.104   4.981
17567SOL     OW64354   7.323   5.983   2.968
17567SOL    HW164355   7.243   5.941   2.925
17567SOL    HW264356   7.393   5.914   2.983
17568SOL     OW64357   5.183   0.566   4.759
17568SOL    HW164358   5.175   0.629   4.682
17568SOL    HW264359   5.274   0.526   4.760
17569SOL     OW64360   5.152   9.542   4.296
17569SOL    HW164361   5.180   9.637   4.308
17569SOL    HW264362   5.215   9.496   4.233
17570SOL     OW64363   8.473   6.373   0.851
17570SOL    HW164364   8.518   6.438   0.790
17570SOL    HW264365   8.433   6.299   0.797
17571SOL     OW64366   6.744   8.269   5.705
17571SOL    HW164367   6.737   8.334   5.781
17571SOL    HW264368   6.790   8.186   5.736
17572SOL     OW64369   2.025   8.481   3.704
17572SOL    HW164370   2.048   8.574   3.674
17572SOL    HW264371   2.068   8.464   3.793
17573SOL     OW64372   5.695   8.872   6.096
17573SOL    HW164373   5.643   8.812   6.158
17573SOL    HW264374   5.634   8.908   6.026
17574SOL     OW64375   4.119   3.704   7.065
17574SOL    HW164376   4.133   3.666   6.974
17574SOL    HW264377   4.200   3.754   7.094
17575SOL     OW64378   9.354   1.604   7.737
17575SOL    HW164379   9.317   1.659   7.662
17575SOL    HW264380   9.298   1.522   7.749
17576SOL     OW64381   4.426   9.039   6.188
17576SOL    HW164382   4.407   9.071   6.281
17576SOL    HW264383   4.500   8.971   6.191
17577SOL     OW64384   2.205   2.237   3.879
17577SOL    HW164385   2.281   2.302   3.888
17577SOL    HW264386   2.151   2.260   3.798
17578SOL     OW64387   1.966   6.153   6.771
17578SOL    HW164388   2.001   6.222   6.707
17578SOL    HW264389   2.030   6.144   6.847
17579SOL     OW64390   8.945   1.414   0.277
17579SOL    HW164391   8.873   1.477   0.250
17579SOL    HW264392   8.975   1.361   0.198
17580SOL     OW64393   0.670   8.729   7.648
17580SOL    HW164394   0.735   8.657   7.671
17580SOL    HW264395   0.648   8.723   7.550
17581SOL     OW64396   9.196   7.506   2.645
17581SOL    HW164397   9.294   7.527   2.647
17581SOL    HW264398   9.167   7.493   2.551
17582SOL     OW64399   4.919   2.483   5.460
17582SOL    HW164400   4.934   2.423   5.539
17582SOL    HW264401   4.899   2.576   5.491
17583SOL     OW64402   3.230   1.944   5.354
17583SOL    HW164403   3.214   2.023   5.412
17583SOL    HW264404   3.151   1.929   5.295
17584SOL     OW64405   5.839   8.956   7.266
17584SOL    HW164406   5.787   8.911   7.339
17584SOL    HW264407   5.815   8.915   7.178
17585SOL     OW64408   4.751   6.944   1.281
17585SOL    HW164409   4.839   6.920   1.322
17585SOL    HW264410   4.682   6.948   1.353
17586SOL     OW64411   7.002   8.719   1.753
17586SOL    HW164412   7.052   8.741   1.837
17586SOL    HW264413   7.064   8.720   1.675
17587SOL     OW64414   6.616   6.945   5.146
17587SOL    HW164415   6.595   7.035   5.108
17587SOL    HW264416   6.599   6.946   5.245
17588SOL     OW64417   8.636   3.300   7.537
17588SOL    HW164418   8.718   3.308   7.594
17588SOL    HW264419   8.624   3.383   7.483
17589SOL     OW64420   3.608   3.156   4.279
17589SOL    HW164421   3.564   3.239   4.245
17589SOL    HW264422   3.676   3.181   4.348
17590SOL     OW64423   0.322   4.256   1.070
17590SOL    HW164424   0.295   4.164   1.096
17590SOL    HW264425   0.421   4.267   1.079
17591SOL     OW64426   0.449   0.194   7.484
17591SOL    HW164427   0.352   0.174   7.471
17591SOL    HW264428   0.501   0.109   7.482
17592SOL     OW64429   0.816   0.026   0.898
17592SOL    HW164430   0.879   0.034   0.820
17592SOL    HW264431   0.868   0.037   0.983
17593SOL     OW64432   8.465   5.381   7.798
17593SOL    HW164433   8.372   5.343   7.804
17593SOL    HW264434   8.459   5.480   7.790
17594SOL     OW64435   2.499   7.886   5.295
17594SOL    HW164436   2.561   7.808   5.300
17594SOL    HW264437   2.431   7.870   5.223
17595SOL     OW64438   7.585   4.664   1.388
17595SOL    HW164439   7.637   4.639   1.469
17595SOL    HW264440   7.639   4.725   1.330
17596SOL     OW64441   1.168   8.348   5.509
17596SOL    HW164442   1.188   8.253   5.485
17596SOL    HW264443   1.235   8.379   5.577
17597SOL     OW64444   3.564   1.715   1.415
17597SOL    HW164445   3.624   1.715   1.335
17597SOL    HW264446   3.563   1.806   1.456
17598SOL     OW64447   1.102   9.049   4.095
17598SOL    HW164448   1.177   8.984   4.085
17598SOL    HW264449   1.047   9.049   4.012
17599SOL     OW64450   4.883   5.736   1.737
17599SOL    HW164451   4.830   5.787   1.805
17599SOL    HW264452   4.844   5.752   1.646
17600SOL     OW64453   0.126   0.423   5.705
17600SOL    HW164454   0.214   0.385   5.736
17600SOL    HW264455   0.058   0.350   5.703
17601SOL     OW64456   7.891   0.177   7.400
17601SOL    HW164457   7.798   0.176   7.436
17601SOL    HW264458   7.916   0.085   7.368
17602SOL     OW64459   1.404   0.773   0.586
17602SOL    HW164460   1.503   0.771   0.597
17602SOL    HW264461   1.360   0.761   0.675
17603SOL     OW64462   6.063   3.948   0.085
17603SOL    HW164463   5.984   3.888   0.092
17603SOL    HW264464   6.034   4.038   0.052
17604SOL     OW64465   7.643   9.519   1.908
17604SOL    HW164466   7.733   9.479   1.891
17604SOL    HW264467   7.584   9.504   1.829
17605SOL     OW64468   7.506   3.443   0.331
17605SOL    HW164469   7.488   3.496   0.414
17605SOL    HW264470   7.456   3.483   0.255
17606SOL     OW64471   8.475   3.296   6.914
17606SOL    HW164472   8.430   3.367   6.968
17606SOL    HW264473   8.474   3.210   6.965
17607SOL     OW64474   3.505   6.997   0.235
17607SOL    HW164475   3.463   6.926   0.291
17607SOL    HW264476   3.597   6.969   0.208
17608SOL     OW64477   2.400   3.025   6.598
17608SOL    HW164478   2.415   2.994   6.504
17608SOL    HW264479   2.306   3.004   6.625
17609SOL     OW64480   5.391   8.736   7.224
17609SOL    HW164481   5.370   8.831   7.244
17609SOL    HW264482   5.490   8.721   7.235
17610SOL     OW64483   7.400   6.537   2.477
17610SOL    HW164484   7.303   6.551   2.499
17610SOL    HW264485   7.411   6.528   2.378
17611SOL     OW64486   8.803   2.015   6.021
17611SOL    HW164487   8.796   2.113   6.043
17611SOL    HW264488   8.888   1.978   6.059
17612SOL     OW64489   1.098   4.595   5.724
17612SOL    HW164490   1.021   4.583   5.787
17612SOL    HW264491   1.133   4.688   5.732
17613SOL     OW64492   6.390   9.115   7.560
17613SOL    HW164493   6.291   9.097   7.561
17613SOL    HW264494   6.428   9.097   7.650
17614SOL     OW64495   4.172   6.015   0.830
17614SOL    HW164496   4.234   6.090   0.857
17614SOL    HW264497   4.079   6.037   0.861
17615SOL     OW64498   1.917   2.160   0.795
17615SOL    HW164499   1.994   2.223   0.783
17615SOL    HW264500   1.942   2.087   0.859
17616SOL     OW64501   1.867   7.315   4.766
17616SOL    HW164502   1.886   7.398   4.712
17616SOL    HW264503   1.768   7.304   4.776
17617SOL     OW64504   6.222   9.360   6.293
17617SOL    HW164505   6.234   9.440   6.234
17617SOL    HW264506   6.161   9.295   6.249
17618SOL     OW64507   9.181   6.983   2.139
17618SOL    HW164508   9.090   6.972   2.181
17618SOL    HW264509   9.251   6.948   2.202
17619SOL     OW64510   8.630   6.137   1.803
17619SOL    HW164511   8.619   6.235   1.820
17619SOL    HW264512   8.674   6.094   1.882
17620SOL     OW64513   0.627   5.190   3.628
17620SOL    HW164514   0.578   5.275   3.607
17620SOL    HW264515   0.683   5.203   3.710
17621SOL     OW64516   9.265   3.220   1.090
17621SOL    HW164517   9.210   3.301   1.110
17621SOL    HW264518   9.351   3.248   1.049
17622SOL     OW64519   3.842   3.373   1.995
17622SOL    HW164520   3.908   3.395   2.066
17622SOL    HW264521   3.890   3.338   1.914
17623SOL     OW64522   0.476   9.518   4.573
17623SOL    HW164523   0.570   9.537   4.544
17623SOL    HW264524   0.461   9.419   4.577
17624SOL     OW64525   1.790   5.957   6.518
17624SOL    HW164526   1.853   5.988   6.447
17624SOL    HW264527   1.842   5.928   6.598
17625SOL     OW64528   7.502   2.607   0.459
17625SOL    HW164529   7.432   2.547   0.422
17625SOL    HW264530   7.570   2.627   0.388
17626SOL     OW64531   4.286   6.730   4.262
17626SOL    HW164532   4.283   6.645   4.209
17626SOL    HW264533   4.379   6.766   4.262
17627SOL     OW64534   4.441   4.096   5.576
17627SOL    HW164535   4.416   4.002   5.600
17627SOL    HW264536   4.433   4.154   5.657
17628SOL     OW64537   3.049   1.835   6.861
17628SOL    HW164538   3.023   1.833   6.765
17628SOL    HW264539   3.007   1.914   6.905
17629SOL     OW64540   1.669   4.439   4.849
17629SOL    HW164541   1.687   4.479   4.939
17629SOL    HW264542   1.755   4.410   4.807
17630SOL     OW64543   2.991   5.819   7.351
17630SOL    HW164544   3.008   5.757   7.427
17630SOL    HW264545   3.022   5.777   7.266
17631SOL     OW64546   9.438   6.343   7.137
17631SOL    HW164547   9.455   6.317   7.232
17631SOL    HW264548   9.429   6.442   7.131
17632SOL     OW64549   3.272   7.960   7.046
17632SOL    HW164550   3.277   7.911   6.959
17632SOL    HW264551   3.348   8.025   7.051
17633SOL     OW64552   2.937   1.860   7.470
17633SOL    HW164553   2.936   1.931   7.540
17633SOL    HW264554   2.892   1.895   7.387
17634SOL     OW64555   6.913   4.382   7.641
17634SOL    HW164556   6.931   4.289   7.671
17634SOL    HW264557   6.847   4.426   7.703
17635SOL     OW64558   8.865   9.943   2.732
17635SOL    HW164559   8.792   9.968   2.796
17635SOL    HW264560   8.860   0.002   2.651
17636SOL     OW64561   8.625   2.154   4.016
17636SOL    HW164562   8.617   2.252   4.035
17636SOL    HW264563   8.596   2.136   3.922
17637SOL     OW64564   0.673   8.859   2.137
17637SOL    HW164565   0.585   8.843   2.182
17637SOL    HW264566   0.729   8.776   2.142
17638SOL     OW64567   7.761   4.884   7.454
17638SOL    HW164568   7.770   4.983   7.442
17638SOL    HW264569   7.676   4.853   7.412
17639SOL     OW64570   1.863   1.842   4.433
17639SOL    HW164571   1.799   1.842   4.356
17639SOL    HW264572   1.854   1.756   4.484
17640SOL     OW64573   9.192   0.197   2.063
17640SOL    HW164574   9.096   0.200   2.093
17640SOL    HW264575   9.216   0.105   2.035
17641SOL     OW64576   7.462   0.794   7.323
17641SOL    HW164577   7.526   0.772   7.397
17641SOL    HW264578   7.487   0.881   7.282
17642SOL     OW64579   4.462   4.154   3.945
17642SOL    HW164580   4.536   4.089   3.930
17642SOL    HW264581   4.415   4.132   4.031
17643SOL     OW64582   7.373   1.204   5.945
17643SOL    HW164583   7.446   1.150   5.903
17643SOL    HW264584   7.293   1.146   5.959
17644SOL     OW64585   2.859   7.410   7.574
17644SOL    HW164586   2.863   7.378   7.669
17644SOL    HW264587   2.803   7.494   7.570
17645SOL     OW64588   8.657   8.511   1.874
17645SOL    HW164589   8.731   8.554   1.823
17645SOL    HW264590   8.569   8.534   1.831
17646SOL     OW64591   5.664   5.671   0.538
17646SOL    HW164592   5.637   5.766   0.556
17646SOL    HW264593   5.736   5.668   0.469
17647SOL     OW64594   2.983   0.385   7.298
17647SOL    HW164595   2.910   0.317   7.313
17647SOL    HW264596   3.072   0.341   7.313
17648SOL     OW64597   1.373   7.133   3.855
17648SOL    HW164598   1.407   7.053   3.904
17648SOL    HW264599   1.273   7.134   3.856
17649SOL     OW64600   0.768   6.492   5.275
17649SOL    HW164601   0.780   6.404   5.229
17649SOL    HW264602   0.699   6.545   5.228
17650SOL     OW64603   3.126   9.723   5.324
17650SOL    HW164604   3.221   9.719   5.294
17650SOL    HW264605   3.122   9.761   5.416
17651SOL     OW64606   3.110   8.867   7.638
17651SOL    HW164607   3.147   8.927   7.709
17651SOL    HW264608   3.075   8.923   7.563
17652SOL     OW64609   5.768   1.281   1.611
17652SOL    HW164610   5.808   1.276   1.519
17652SOL    HW264611   5.713   1.199   1.627
17653SOL     OW64612   2.225   5.179   7.223
17653SOL    HW164613   2.171   5.263   7.212
17653SOL    HW264614   2.254   5.147   7.133
17654SOL     OW64615   9.290   3.059   4.463
17654SOL    HW164616   9.298   2.969   4.506
17654SOL    HW264617   9.198   3.094   4.477
17655SOL     OW64618   8.211   3.835   3.800
17655SOL    HW164619   8.197   3.934   3.798
17655SOL    HW264620   8.215   3.799   3.707
17656SOL     OW64621   3.749   1.917   7.352
17656SOL    HW164622   3.677   1.881   7.411
17656SOL    HW264623   3.767   1.853   7.278
17657SOL     OW64624   4.220   2.973   2.348
17657SOL    HW164625   4.221   3.071   2.372
17657SOL    HW264626   4.211   2.963   2.249
17658SOL     OW64627   8.800   5.030   2.039
17658SOL    HW164628   8.744   4.975   2.100
17658SOL    HW264629   8.805   4.986   1.949
17659SOL     OW64630   9.140   8.729   7.508
17659SOL    HW164631   9.162   8.664   7.580
17659SOL    HW264632   9.156   8.687   7.419
17660SOL     OW64633   7.357   6.080   3.602
17660SOL    HW164634   7.355   6.107   3.699
17660SOL    HW264635   7.298   6.001   3.589
17661SOL     OW64636   7.055   1.266   0.710
17661SOL    HW164637   7.106   1.314   0.782
17661SOL    HW264638   7.039   1.329   0.633
17662SOL     OW64639   9.273   8.804   2.930
17662SOL    HW164640   9.217   8.733   2.972
17662SOL    HW264641   9.242   8.822   2.837
17663SOL     OW64642   0.751   0.683   7.496
17663SOL    HW164643   0.679   0.705   7.561
17663SOL    HW264644   0.836   0.728   7.523
17664SOL     OW64645   4.669   8.230   6.558
17664SOL    HW164646   4.585   8.284   6.567
17664SOL    HW264647   4.645   8.135   6.539
17665SOL     OW64648   5.601   3.982   7.641
17665SOL    HW164649   5.682   4.020   7.685
17665SOL    HW264650   5.538   4.056   7.616
17666SOL     OW64651   4.720   4.530   2.680
17666SOL    HW164652   4.664   4.538   2.762
17666SOL    HW264653   4.692   4.450   2.627
17667SOL     OW64654   7.989   2.324   2.993
17667SOL    HW164655   7.893   2.296   2.996
17667SOL    HW264656   8.015   2.364   3.081
17668SOL     OW64657   9.668   6.140   4.004
17668SOL    HW164658   9.620   6.132   4.091
17668SOL    HW264659   9.746   6.202   4.015
17669SOL     OW64660   2.467   5.741   0.225
17669SOL    HW164661   2.421   5.820   0.265
17669SOL    HW264662   2.477   5.669   0.294
17670SOL     OW64663   6.564   8.367   3.120
17670SOL    HW164664   6.500   8.351   3.195
17670SOL    HW264665   6.582   8.280   3.073
17671SOL     OW64666   0.217   1.888   0.513
17671SOL    HW164667   0.200   1.984   0.535
17671SOL    HW264668   0.258   1.882   0.422
17672SOL     OW64669   6.006   1.409   4.710
17672SOL    HW164670   5.949   1.492   4.714
17672SOL    HW264671   6.046   1.400   4.619
17673SOL     OW64672   0.258   3.509   1.765
17673SOL    HW164673   0.304   3.459   1.691
17673SOL    HW264674   0.271   3.607   1.751
17674SOL     OW64675   3.534   8.606   3.292
17674SOL    HW164676   3.534   8.516   3.249
17674SOL    HW264677   3.565   8.598   3.386
17675SOL     OW64678   8.406   6.627   1.442
17675SOL    HW164679   8.406   6.606   1.539
17675SOL    HW264680   8.460   6.559   1.392
17676SOL     OW64681   2.922   4.710   3.874
17676SOL    HW164682   2.852   4.725   3.944
17676SOL    HW264683   2.978   4.792   3.863
17677SOL     OW64684   1.765   7.156   5.871
17677SOL    HW164685   1.735   7.061   5.877
17677SOL    HW264686   1.832   7.164   5.797
17678SOL     OW64687   6.804   5.966   1.193
17678SOL    HW164688   6.818   6.031   1.268
17678SOL    HW264689   6.767   6.015   1.114
17679SOL     OW64690   1.042   1.575   2.031
17679SOL    HW164691   1.064   1.638   1.957
17679SOL    HW264692   0.944   1.555   2.030
17680SOL     OW64693   1.558   2.882   0.898
17680SOL    HW164694   1.545   2.833   0.984
17680SOL    HW264695   1.518   2.973   0.905
17681SOL     OW64696   1.679   6.538   3.911
17681SOL    HW164697   1.768   6.501   3.937
17681SOL    HW264698   1.650   6.607   3.977
17682SOL     OW64699   2.502   4.203   6.776
17682SOL    HW164700   2.509   4.282   6.714
17682SOL    HW264701   2.593   4.175   6.805
17683SOL     OW64702   3.908   8.020   0.880
17683SOL    HW164703   3.962   7.980   0.805
17683SOL    HW264704   3.935   8.115   0.893
17684SOL     OW64705   9.911   4.183   5.402
17684SOL    HW164706   9.915   4.219   5.309
17684SOL    HW264707   9.829   4.218   5.447
17685SOL     OW64708   9.067   4.278   2.898
17685SOL    HW164709   9.130   4.285   2.976
17685SOL    HW264710   9.115   4.237   2.821
17686SOL     OW64711   4.777   0.427   7.095
17686SOL    HW164712   4.790   0.412   7.193
17686SOL    HW264713   4.822   0.512   7.068
17687SOL     OW64714   2.507   9.063   5.947
17687SOL    HW164715   2.491   9.157   5.918
17687SOL    HW264716   2.598   9.056   5.988
17688SOL     OW64717   6.052   8.059   4.137
17688SOL    HW164718   6.006   8.010   4.063
17688SOL    HW264719   6.057   7.999   4.217
17689SOL     OW64720   8.416   0.077   0.339
17689SOL    HW164721   8.333   0.029   0.310
17689SOL    HW264722   8.487   0.066   0.268
17690SOL     OW64723   8.183   2.811   3.278
17690SOL    HW164724   8.185   2.726   3.225
17690SOL    HW264725   8.118   2.801   3.354
17691SOL     OW64726   4.017   6.711   4.057
17691SOL    HW164727   3.961   6.703   3.975
17691SOL    HW264728   4.078   6.790   4.048
17692SOL     OW64729   4.312   4.878   6.766
17692SOL    HW164730   4.340   4.969   6.735
17692SOL    HW264731   4.213   4.872   6.767
17693SOL     OW64732   1.806   6.978   7.515
17693SOL    HW164733   1.751   7.037   7.575
17693SOL    HW264734   1.746   6.935   7.447
17694SOL     OW64735   8.598   8.496   5.118
17694SOL    HW164736   8.653   8.507   5.035
17694SOL    HW264737   8.538   8.417   5.108
17695SOL     OW64738   6.761   3.102   2.327
17695SOL    HW164739   6.855   3.069   2.318
17695SOL    HW264740   6.710   3.078   2.245
17696SOL     OW64741   6.885   7.363   2.397
17696SOL    HW164742   6.907   7.270   2.369
17696SOL    HW264743   6.788   7.381   2.379
17697SOL     OW64744   3.861   4.351   7.864
17697SOL    HW164745   3.769   4.364   7.826
17697SOL    HW264746   3.929   4.383   7.798
17698SOL     OW64747   2.080   8.495   6.673
17698SOL    HW164748   2.044   8.582   6.638
17698SOL    HW264749   2.180   8.497   6.668
17699SOL     OW64750   9.344   2.581   7.145
17699SOL    HW164751   9.275   2.580   7.217
17699SOL    HW264752   9.406   2.659   7.159
17700SOL     OW64753   3.780   6.705   3.564
17700SOL    HW164754   3.745   6.622   3.521
17700SOL    HW264755   3.755   6.785   3.508
17701SOL     OW64756   2.973   1.227   6.954
17701SOL    HW164757   2.935   1.142   6.916
17701SOL    HW264758   2.904   1.271   7.011
17702SOL     OW64759   9.113   6.670   2.025
17702SOL    HW164760   9.169   6.729   1.967
17702SOL    HW264761   9.159   6.659   2.114
17703SOL     OW64762   7.069   5.202   1.784
17703SOL    HW164763   6.971   5.188   1.798
17703SOL    HW264764   7.096   5.160   1.697
17704SOL     OW64765   5.319   8.716   3.338
17704SOL    HW164766   5.340   8.624   3.372
17704SOL    HW264767   5.233   8.713   3.287
17705SOL     OW64768   2.742   9.775   5.973
17705SOL    HW164769   2.788   9.824   5.899
17705SOL    HW264770   2.797   9.781   6.056
17706SOL     OW64771   4.159   6.210   1.593
17706SOL    HW164772   4.169   6.242   1.687
17706SOL    HW264773   4.167   6.111   1.590
17707SOL     OW64774   3.839   1.184   6.579
17707SOL    HW164775   3.898   1.263   6.592
17707SOL    HW264776   3.830   1.165   6.481
17708SOL     OW64777   2.658   9.346   3.517
17708SOL    HW164778   2.702   9.265   3.478
17708SOL    HW264779   2.564   9.324   3.541
17709SOL     OW64780   2.264   8.800   5.320
17709SOL    HW164781   2.348   8.797   5.266
17709SOL    HW264782   2.186   8.774   5.263
17710SOL     OW64783   6.791   5.938   6.827
17710SOL    HW164784   6.817   6.005   6.758
17710SOL    HW264785   6.760   5.985   6.910
17711SOL     OW64786   4.689   9.314   5.893
17711SOL    HW164787   4.601   9.299   5.939
17711SOL    HW264788   4.745   9.231   5.901
17712SOL     OW64789   2.035   3.758   5.500
17712SOL    HW164790   2.078   3.748   5.589
17712SOL    HW264791   1.945   3.715   5.501
17713SOL     OW64792   3.976   7.409   5.322
17713SOL    HW164793   3.913   7.422   5.399
17713SOL    HW264794   4.062   7.455   5.341
17714SOL     OW64795   4.230   5.679   4.393
17714SOL    HW164796   4.282   5.598   4.420
17714SOL    HW264797   4.135   5.654   4.378
17715SOL     OW64798   0.224   5.657   0.546
17715SOL    HW164799   0.139   5.613   0.578
17715SOL    HW264800   0.293   5.652   0.618
17716SOL     OW64801   2.398   9.182   7.591
17716SOL    HW164802   2.488   9.150   7.562
17716SOL    HW264803   2.408   9.271   7.636
17717SOL     OW64804   3.712   2.215   2.310
17717SOL    HW164805   3.668   2.263   2.233
17717SOL    HW264806   3.716   2.276   2.389
17718SOL     OW64807   7.094   4.300   0.435
17718SOL    HW164808   7.034   4.353   0.495
17718SOL    HW264809   7.041   4.227   0.391
17719SOL     OW64810   8.517   1.487   1.823
17719SOL    HW164811   8.466   1.436   1.754
17719SOL    HW264812   8.598   1.528   1.782
17720SOL     OW64813   3.920   6.488   2.456
17720SOL    HW164814   4.015   6.506   2.433
17720SOL    HW264815   3.861   6.546   2.400
17721SOL     OW64816   8.062   7.253   6.180
17721SOL    HW164817   8.046   7.283   6.086
17721SOL    HW264818   8.072   7.333   6.239
17722SOL     OW64819   8.017   9.358   7.306
17722SOL    HW164820   8.110   9.367   7.342
17722SOL    HW264821   7.952   9.401   7.368
17723SOL     OW64822   8.157   2.356   1.482
17723SOL    HW164823   8.064   2.388   1.502
17723SOL    HW264824   8.223   2.424   1.515
17724SOL     OW64825   2.800   7.083   2.526
17724SOL    HW164826   2.788   7.143   2.447
17724SOL    HW264827   2.872   7.016   2.508
17725SOL     OW64828   9.945   3.990   6.649
17725SOL    HW164829   9.906   3.957   6.563
17725SOL    HW264830   0.043   4.004   6.638
17726SOL     OW64831   7.238   0.765   7.633
17726SOL    HW164832   7.213   0.673   7.603
17726SOL    HW264833   7.168   0.830   7.605
17727SOL     OW64834   4.128   8.095   7.952
17727SOL    HW164835   4.161   8.167   8.012
17727SOL    HW264836   4.202   8.031   7.932
17728SOL     OW64837   8.095   9.944   4.258
17728SOL    HW164838   8.031   9.975   4.188
17728SOL    HW264839   8.182   9.992   4.247
17729SOL     OW64840   1.202   2.285   2.918
17729SOL    HW164841   1.128   2.309   2.981
17729SOL    HW264842   1.226   2.188   2.931
17730SOL     OW64843   4.183   3.677   3.112
17730SOL    HW164844   4.109   3.713   3.055
17730SOL    HW264845   4.147   3.602   3.168
17731SOL     OW64846   6.397   7.178   3.954
17731SOL    HW164847   6.350   7.118   4.019
17731SOL    HW264848   6.472   7.128   3.911
17732SOL     OW64849   5.795   0.050   5.326
17732SOL    HW164850   5.783   0.073   5.230
17732SOL    HW264851   5.741   0.113   5.382
17733SOL     OW64852   4.806   0.713   3.458
17733SOL    HW164853   4.742   0.719   3.534
17733SOL    HW264854   4.900   0.713   3.493
17734SOL     OW64855   8.814   7.911   1.268
17734SOL    HW164856   8.737   7.881   1.213
17734SOL    HW264857   8.890   7.936   1.209
17735SOL     OW64858   1.775   6.268   2.478
17735SOL    HW164859   1.729   6.254   2.390
17735SOL    HW264860   1.713   6.244   2.552
17736SOL     OW64861   9.963   2.450   5.698
17736SOL    HW164862   0.021   2.391   5.753
17736SOL    HW264863   9.936   2.530   5.752
17737SOL     OW64864   3.960   2.573   1.910
17737SOL    HW164865   3.996   2.546   2.000
17737SOL    HW264866   3.875   2.525   1.892
17738SOL     OW64867   9.570   4.991   7.192
17738SOL    HW164868   9.520   4.908   7.217
17738SOL    HW264869   9.615   5.028   7.273
17739SOL     OW64870   0.105   6.104   5.563
17739SOL    HW164871   0.176   6.174   5.569
17739SOL    HW264872   0.096   6.059   5.652
17740SOL     OW64873   9.452   2.676   4.205
17740SOL    HW164874   9.447   2.614   4.282
17740SOL    HW264875   9.367   2.729   4.198
17741SOL     OW64876   9.605   1.801   4.695
17741SOL    HW164877   9.703   1.782   4.690
17741SOL    HW264878   9.588   1.895   4.667
17742SOL     OW64879   1.055   6.212   3.768
17742SOL    HW164880   0.997   6.220   3.687
17742SOL    HW264881   1.034   6.127   3.816
17743SOL     OW64882   8.227   1.872   5.351
17743SOL    HW164883   8.247   1.781   5.316
17743SOL    HW264884   8.128   1.886   5.356
17744SOL     OW64885   7.598   1.298   5.646
17744SOL    HW164886   7.593   1.233   5.722
17744SOL    HW264887   7.564   1.387   5.676
17745SOL     OW64888   4.997   5.475   1.055
17745SOL    HW164889   4.935   5.437   1.123
17745SOL    HW264890   4.944   5.508   0.976
17746SOL     OW64891   1.092   1.340   2.671
17746SOL    HW164892   1.080   1.429   2.628
17746SOL    HW264893   1.039   1.336   2.756
17747SOL     OW64894   3.116   1.607   3.032
17747SOL    HW164895   3.119   1.681   2.965
17747SOL    HW264896   3.131   1.519   2.985
17748SOL     OW64897   1.602   7.212   6.833
17748SOL    HW164898   1.560   7.225   6.743
17748SOL    HW264899   1.574   7.124   6.871
17749SOL     OW64900   1.073   8.190   4.490
17749SOL    HW164901   1.018   8.108   4.471
17749SOL    HW264902   1.080   8.204   4.588
17750SOL     OW64903   8.261   9.186   5.486
17750SOL    HW164904   8.283   9.209   5.392
17750SOL    HW264905   8.198   9.109   5.488
17751SOL     OW64906   6.864   0.904   7.373
17751SOL    HW164907   6.778   0.947   7.399
17751SOL    HW264908   6.882   0.922   7.277
17752SOL     OW64909   1.627   8.690   0.108
17752SOL    HW164910   1.700   8.625   0.083
17752SOL    HW264911   1.540   8.642   0.113
17753SOL     OW64912   2.835   1.951   7.233
17753SOL    HW164913   2.864   1.993   7.146
17753SOL    HW264914   2.805   1.857   7.217
17754SOL     OW64915   1.281   4.874   3.112
17754SOL    HW164916   1.298   4.903   3.018
17754SOL    HW264917   1.199   4.817   3.115
17755SOL     OW64918   2.643   8.837   7.436
17755SOL    HW164919   2.724   8.833   7.378
17755SOL    HW264920   2.628   8.748   7.479
17756SOL     OW64921   8.463   8.355   6.836
17756SOL    HW164922   8.416   8.267   6.831
17756SOL    HW264923   8.469   8.395   6.745
17757SOL     OW64924   7.163   7.024   5.993
17757SOL    HW164925   7.128   6.934   5.969
17757SOL    HW264926   7.254   7.015   6.033
17758SOL     OW64927   9.450   0.396   6.534
17758SOL    HW164928   9.364   0.426   6.575
17758SOL    HW264929   9.437   0.377   6.437
17759SOL     OW64930   5.399   2.698   1.401
17759SOL    HW164931   5.465   2.691   1.475
17759SOL    HW264932   5.312   2.732   1.437
17760SOL     OW64933   8.660   4.340   2.706
17760SOL    HW164934   8.564   4.335   2.734
17760SOL    HW264935   8.716   4.289   2.771
17761SOL     OW64936   2.021   4.335   6.370
17761SOL    HW164937   1.967   4.323   6.453
17761SOL    HW264938   2.092   4.403   6.386
17762SOL     OW64939   8.365   2.590   2.559
17762SOL    HW164940   8.357   2.623   2.653
17762SOL    HW264941   8.457   2.552   2.544
17763SOL     OW64942   8.056   1.370   2.643
17763SOL    HW164943   7.988   1.299   2.623
17763SOL    HW264944   8.142   1.348   2.597
17764SOL     OW64945   0.584   6.811   7.822
17764SOL    HW164946   0.641   6.751   7.766
17764SOL    HW264947   0.633   6.896   7.841
17765SOL     OW64948   2.367   8.024   7.289
17765SOL    HW164949   2.362   7.967   7.371
17765SOL    HW264950   2.275   8.045   7.257
17766SOL     OW64951   8.709   0.278   2.971
17766SOL    HW164952   8.638   0.347   2.956
17766SOL    HW264953   8.795   0.311   2.933
17767SOL     OW64954   5.595   7.797   7.096
17767SOL    HW164955   5.596   7.805   7.196
17767SOL    HW264956   5.501   7.794   7.064
17768SOL     OW64957   9.689   2.222   1.444
17768SOL    HW164958   9.732   2.270   1.521
17768SOL    HW264959   9.625   2.154   1.479
17769SOL     OW64960   5.724   1.564   1.616
17769SOL    HW164961   5.755   1.605   1.702
17769SOL    HW264962   5.738   1.465   1.620
17770SOL     OW64963   6.840   9.737   1.228
17770SOL    HW164964   6.889   9.822   1.211
17770SOL    HW264965   6.902   9.659   1.213
17771SOL     OW64966   1.624   6.966   1.542
17771SOL    HW164967   1.554   6.968   1.471
17771SOL    HW264968   1.628   6.874   1.583
17772SOL     OW64969   2.435   3.368   7.012
17772SOL    HW164970   2.457   3.416   6.928
17772SOL    HW264971   2.515   3.319   7.046
17773SOL     OW64972   9.767   2.211   2.706
17773SOL    HW164973   9.803   2.247   2.792
17773SOL    HW264974   9.837   2.219   2.635
17774SOL     OW64975   8.830   7.931   3.221
17774SOL    HW164976   8.802   8.001   3.155
17774SOL    HW264977   8.912   7.885   3.188
17775SOL     OW64978   1.216   4.089   6.101
17775SOL    HW164979   1.281   4.034   6.155
17775SOL    HW264980   1.135   4.034   6.081
17776SOL     OW64981   9.436   1.383   2.156
17776SOL    HW164982   9.451   1.425   2.245
17776SOL    HW264983   9.407   1.288   2.169
17777SOL     OW64984   2.688   6.577   3.030
17777SOL    HW164985   2.629   6.634   2.972
17777SOL    HW264986   2.636   6.498   3.062
17778SOL     OW64987   8.223   5.815   0.304
17778SOL    HW164988   8.208   5.763   0.220
17778SOL    HW264989   8.248   5.752   0.378
17779SOL     OW64990   1.318   5.095   3.265
17779SOL    HW164991   1.312   5.075   3.363
17779SOL    HW264992   1.302   5.011   3.213
17780SOL     OW64993   6.794   0.331   3.188
17780SOL    HW164994   6.793   0.250   3.130
17780SOL    HW264995   6.717   0.390   3.163
17781SOL     OW64996   1.095   8.236   0.754
17781SOL    HW164997   1.134   8.220   0.845
17781SOL    HW264998   1.151   8.303   0.705
17782SOL     OW64999   3.541   1.757   7.935
17782SOL    HW165000   3.580   1.671   7.901
17782SOL    HW265001   3.551   1.760   8.035
17783SOL     OW65002   0.047   1.336   5.928
17783SOL    HW165003   0.000   1.360   6.014
17783SOL    HW265004   0.020   1.400   5.856
17784SOL     OW65005   8.605   4.725   3.298
17784SOL    HW165006   8.561   4.765   3.218
17784SOL    HW265007   8.695   4.766   3.310
17785SOL     OW65008   6.662   6.882   4.477
17785SOL    HW165009   6.723   6.872   4.398
17785SOL    HW265010   6.682   6.811   4.544
17786SOL     OW65011   9.241   6.882   3.846
17786SOL    HW165012   9.229   6.841   3.756
17786SOL    HW265013   9.288   6.817   3.906
17787SOL     OW65014   8.106   0.732   7.388
17787SOL    HW165015   8.153   0.821   7.388
17787SOL    HW265016   8.077   0.710   7.295
17788SOL     OW65017   9.815   4.099   7.428
17788SOL    HW165018   9.715   4.108   7.435
17788SOL    HW265019   9.843   4.011   7.467
17789SOL     OW65020   9.018   7.487   4.435
17789SOL    HW165021   9.090   7.556   4.427
17789SOL    HW265022   8.929   7.531   4.439
17790SOL     OW65023   0.755   2.397   0.152
17790SOL    HW165024   0.730   2.385   0.248
17790SOL    HW265025   0.772   2.308   0.111
17791SOL     OW65026   8.207   3.111   3.952
17791SOL    HW165027   8.251   3.128   3.863
17791SOL    HW265028   8.242   3.025   3.990
17792SOL     OW65029   1.272   6.199   3.412
17792SOL    HW165030   1.287   6.247   3.498
17792SOL    HW265031   1.259   6.102   3.430
17793SOL     OW65032   4.107   7.666   4.286
17793SOL    HW165033   4.068   7.581   4.249
17793SOL    HW265034   4.062   7.744   4.243
17794SOL     OW65035   9.606   5.325   5.121
17794SOL    HW165036   9.552   5.356   5.199
17794SOL    HW265037   9.669   5.253   5.151
17795SOL     OW65038   7.865   2.187   3.502
17795SOL    HW165039   7.944   2.176   3.442
17795SOL    HW265040   7.893   2.233   3.587
17796SOL     OW65041   8.946   5.952   0.803
17796SOL    HW165042   9.024   5.978   0.859
17796SOL    HW265043   8.862   5.965   0.855
17797SOL     OW65044   9.216   9.448   0.412
17797SOL    HW165045   9.262   9.490   0.490
17797SOL    HW265046   9.118   9.443   0.429
17798SOL     OW65047   6.277   1.792   4.577
17798SOL    HW165048   6.225   1.842   4.646
17798SOL    HW265049   6.355   1.848   4.546
17799SOL     OW65050   2.788   7.477   4.441
17799SOL    HW165051   2.888   7.477   4.449
17799SOL    HW265052   2.759   7.557   4.388
17800SOL     OW65053   4.012   0.133   4.678
17800SOL    HW165054   3.957   0.102   4.601
17800SOL    HW265055   4.075   0.061   4.706
17801SOL     OW65056   9.436   5.309   1.525
17801SOL    HW165057   9.404   5.267   1.610
17801SOL    HW265058   9.388   5.396   1.511
17802SOL     OW65059   0.742   4.227   6.782
17802SOL    HW165060   0.799   4.305   6.810
17802SOL    HW265061   0.793   4.142   6.796
17803SOL     OW65062   9.833   7.079   1.120
17803SOL    HW165063   9.841   7.001   1.182
17803SOL    HW265064   9.869   7.055   1.030
17804SOL     OW65065   0.476   4.751   3.020
17804SOL    HW165066   0.451   4.701   2.937
17804SOL    HW265067   0.403   4.817   3.043
17805SOL     OW65068   2.397   8.152   1.654
17805SOL    HW165069   2.385   8.074   1.716
17805SOL    HW265070   2.461   8.217   1.694
17806SOL     OW65071   0.272   5.244   7.771
17806SOL    HW165072   0.332   5.320   7.745
17806SOL    HW265073   0.202   5.278   7.835
17807SOL     OW65074   3.471   3.859   7.863
17807SOL    HW165075   3.405   3.922   7.906
17807SOL    HW265076   3.430   3.768   7.856
17808SOL     OW65077   7.184   4.391   7.291
17808SOL    HW165078   7.175   4.428   7.383
17808SOL    HW265079   7.096   4.395   7.244
17809SOL     OW65080   8.587   5.988   3.429
17809SOL    HW165081   8.497   6.026   3.407
17809SOL    HW265082   8.609   5.915   3.364
17810SOL     OW65083   4.412   5.886   3.372
17810SOL    HW165084   4.424   5.810   3.436
17810SOL    HW265085   4.394   5.970   3.423
17811SOL     OW65086   8.223   5.693   4.070
17811SOL    HW165087   8.281   5.641   4.133
17811SOL    HW265088   8.247   5.668   3.976
17812SOL     OW65089   3.168   2.165   4.575
17812SOL    HW165090   3.169   2.202   4.668
17812SOL    HW265091   3.176   2.066   4.579
17813SOL     OW65092   1.337   8.253   0.171
17813SOL    HW165093   1.266   8.194   0.132
17813SOL    HW265094   1.354   8.226   0.265
17814SOL     OW65095   6.328   0.036   7.915
17814SOL    HW165096   6.301   0.068   8.005
17814SOL    HW265097   6.285   0.094   7.845
17815SOL     OW65098   2.360   8.523   1.184
17815SOL    HW165099   2.333   8.594   1.249
17815SOL    HW265100   2.460   8.515   1.183
17816SOL     OW65101   1.413   2.287   4.067
17816SOL    HW165102   1.490   2.234   4.031
17816SOL    HW265103   1.447   2.362   4.123
17817SOL     OW65104   1.671   3.591   2.046
17817SOL    HW165105   1.616   3.539   2.112
17817SOL    HW265106   1.650   3.559   1.953
17818SOL     OW65107   6.143   0.964   0.746
17818SOL    HW165108   6.177   0.877   0.782
17818SOL    HW265109   6.219   1.016   0.707
17819SOL     OW65110   4.998   6.296   1.186
17819SOL    HW165111   4.926   6.313   1.253
17819SOL    HW265112   5.088   6.308   1.229
17820SOL     OW65113   8.774   2.943   4.208
17820SOL    HW165114   8.691   2.921   4.259
17820SOL    HW265115   8.838   2.866   4.214
17821SOL     OW65116   1.313   9.984   1.191
17821SOL    HW165117   1.409   9.962   1.176
17821SOL    HW265118   1.303   0.082   1.205
17822SOL     OW65119   1.038   7.111   6.559
17822SOL    HW165120   0.967   7.050   6.592
17822SOL    HW265121   1.124   7.093   6.608
17823SOL     OW65122   2.570   7.233   7.694
17823SOL    HW165123   2.641   7.190   7.637
17823SOL    HW265124   2.526   7.164   7.751
17824SOL     OW65125   5.206   1.389   0.105
17824SOL    HW165126   5.259   1.336   0.039
17824SOL    HW265127   5.243   1.375   0.197
17825SOL     OW65128   5.361   2.341   5.825
17825SOL    HW165129   5.439   2.291   5.788
17825SOL    HW265130   5.376   2.439   5.812
17826SOL     OW65131   5.592   2.835   0.726
17826SOL    HW165132   5.577   2.750   0.675
17826SOL    HW265133   5.509   2.859   0.776
17827SOL     OW65134   9.194   5.824   7.052
17827SOL    HW165135   9.201   5.846   6.954
17827SOL    HW265136   9.099   5.831   7.081
17828SOL     OW65137   9.838   5.783   0.301
17828SOL    HW165138   9.843   5.829   0.213
17828SOL    HW265139   9.916   5.809   0.358
17829SOL     OW65140   1.299   1.332   2.348
17829SOL    HW165141   1.235   1.269   2.392
17829SOL    HW265142   1.267   1.353   2.255
17830SOL     OW65143   0.528   1.872   1.166
17830SOL    HW165144   0.628   1.883   1.173
17830SOL    HW265145   0.486   1.962   1.152
17831SOL     OW65146   6.625   4.678   1.999
17831SOL    HW165147   6.724   4.679   1.988
17831SOL    HW265148   6.598   4.742   2.071
17832SOL     OW65149   0.546   8.142   2.871
17832SOL    HW165150   0.447   8.149   2.876
17832SOL    HW265151   0.587   8.207   2.935
17833SOL     OW65152   7.696   5.595   3.758
17833SOL    HW165153   7.735   5.559   3.673
17833SOL    HW265154   7.761   5.657   3.801
17834SOL     OW65155   5.309   8.998   7.265
17834SOL    HW165156   5.209   8.997   7.270
17834SOL    HW265157   5.346   8.993   7.358
17835SOL     OW65158   1.716   9.692   2.631
17835SOL    HW165159   1.644   9.756   2.603
17835SOL    HW265160   1.678   9.624   2.695
17836SOL     OW65161   7.378   8.495   7.144
17836SOL    HW165162   7.302   8.557   7.128
17836SOL    HW265163   7.352   8.402   7.117
17837SOL     OW65164   2.682   2.679   1.380
17837SOL    HW165165   2.700   2.647   1.473
17837SOL    HW265166   2.597   2.638   1.347
17838SOL     OW65167   8.200   3.811   3.480
17838SOL    HW165168   8.184   3.910   3.478
17838SOL    HW265169   8.246   3.783   3.396
17839SOL     OW65170   6.637   9.276   7.665
17839SOL    HW165171   6.583   9.317   7.591
17839SOL    HW265172   6.579   9.213   7.717
17840SOL     OW65173   9.986   4.580   6.709
17840SOL    HW165174   9.888   4.577   6.727
17840SOL    HW265175   0.002   4.587   6.611
17841SOL     OW65176   6.298   5.942   0.452
17841SOL    HW165177   6.296   5.927   0.353
17841SOL    HW265178   6.369   6.009   0.474
17842SOL     OW65179   0.780   7.089   5.694
17842SOL    HW165180   0.856   7.037   5.733
17842SOL    HW265181   0.719   7.118   5.768
17843SOL     OW65182   4.667   7.565   4.891
17843SOL    HW165183   4.715   7.652   4.873
17843SOL    HW265184   4.618   7.572   4.978
17844SOL     OW65185   9.873   4.262   0.668
17844SOL    HW165186   9.913   4.354   0.674
17844SOL    HW265187   9.943   4.197   0.640
17845SOL     OW65188   1.169   7.346   0.463
17845SOL    HW165189   1.266   7.348   0.437
17845SOL    HW265190   1.137   7.251   0.463
17846SOL     OW65191   9.069   5.445   2.675
17846SOL    HW165192   9.108   5.357   2.646
17846SOL    HW265193   9.095   5.463   2.769
17847SOL     OW65194   5.153   7.371   1.730
17847SOL    HW165195   5.055   7.355   1.744
17847SOL    HW265196   5.179   7.335   1.641
17848SOL     OW65197   3.747   1.768   1.211
17848SOL    HW165198   3.743   1.850   1.155
17848SOL    HW265199   3.792   1.695   1.161
17849SOL     OW65200   3.116   7.186   5.925
17849SOL    HW165201   3.047   7.234   5.870
17849SOL    HW265202   3.128   7.234   6.012
17850SOL     OW65203   0.416   2.903   1.483
17850SOL    HW165204   0.469   2.957   1.549
17850SOL    HW265205   0.478   2.840   1.435
17851SOL     OW65206   9.494   0.564   7.324
17851SOL    HW165207   9.580   0.513   7.325
17851SOL    HW265208   9.427   0.518   7.384
17852SOL     OW65209   1.464   7.053   5.531
17852SOL    HW165210   1.455   7.042   5.630
17852SOL    HW265211   1.440   7.146   5.505
17853SOL     OW65212   9.944   4.690   7.283
17853SOL    HW165213   9.855   4.693   7.238
17853SOL    HW265214   9.941   4.627   7.361
17854SOL     OW65215   0.896   8.941   0.474
17854SOL    HW165216   0.805   8.960   0.509
17854SOL    HW265217   0.889   8.907   0.380
17855SOL     OW65218   7.215   1.905   2.605
17855SOL    HW165219   7.128   1.955   2.606
17855SOL    HW265220   7.222   1.852   2.521
17856SOL     OW65221   0.281   7.973   6.059
17856SOL    HW165222   0.376   7.991   6.036
17856SOL    HW265223   0.272   7.878   6.090
17857SOL     OW65224   1.209   5.648   1.513
17857SOL    HW165225   1.205   5.676   1.609
17857SOL    HW265226   1.157   5.563   1.501
17858SOL     OW65227   2.768   4.942   3.456
17858SOL    HW165228   2.812   4.875   3.515
17858SOL    HW265229   2.682   4.905   3.421
17859SOL     OW65230   7.585   6.358   0.173
17859SOL    HW165231   7.654   6.419   0.211
17859SOL    HW265232   7.510   6.347   0.239
17860SOL     OW65233   6.341   2.737   0.366
17860SOL    HW165234   6.396   2.672   0.314
17860SOL    HW265235   6.396   2.816   0.393
17861SOL     OW65236   2.136   1.375   6.479
17861SOL    HW165237   2.097   1.317   6.407
17861SOL    HW265238   2.102   1.468   6.468
17862SOL     OW65239   0.665   5.007   6.602
17862SOL    HW165240   0.655   5.106   6.599
17862SOL    HW265241   0.762   4.983   6.609
17863SOL     OW65242   7.982   6.962   3.517
17863SOL    HW165243   8.021   6.971   3.425
17863SOL    HW265244   8.055   6.952   3.584
17864SOL     OW65245   9.423   5.255   2.015
17864SOL    HW165246   9.401   5.216   1.925
17864SOL    HW265247   9.521   5.273   2.020
17865SOL     OW65248   8.971   9.042   6.798
17865SOL    HW165249   8.881   9.004   6.819
17865SOL    HW265250   8.976   9.137   6.829
17866SOL     OW65251   4.757   0.180   1.808
17866SOL    HW165252   4.825   0.195   1.737
17866SOL    HW265253   4.678   0.133   1.769
17867SOL     OW65254   9.683   6.360   1.787
17867SOL    HW165255   9.768   6.344   1.838
17867SOL    HW265256   9.652   6.274   1.747
17868SOL     OW65257   0.379   5.000   0.642
17868SOL    HW165258   0.370   5.026   0.546
17868SOL    HW265259   0.432   4.916   0.649
17869SOL     OW65260   2.660   0.388   2.394
17869SOL    HW165261   2.661   0.338   2.307
17869SOL    HW265262   2.616   0.477   2.381
17870SOL     OW65263   5.260   2.265   4.902
17870SOL    HW165264   5.311   2.222   4.827
17870SOL    HW265265   5.321   2.326   4.953
17871SOL     OW65266   3.570   5.162   3.757
17871SOL    HW165267   3.482   5.208   3.739
17871SOL    HW265268   3.594   5.105   3.679
17872SOL     OW65269   6.157   8.062   6.821
17872SOL    HW165270   6.152   7.984   6.884
17872SOL    HW265271   6.177   8.145   6.873
17873SOL     OW65272   3.790   5.629   3.120
17873SOL    HW165273   3.852   5.619   3.197
17873SOL    HW265274   3.734   5.546   3.111
17874SOL     OW65275   4.599   0.652   6.619
17874SOL    HW165276   4.611   0.751   6.614
17874SOL    HW265277   4.677   0.607   6.577
17875SOL     OW65278   9.194   9.042   0.944
17875SOL    HW165279   9.173   9.134   0.977
17875SOL    HW265280   9.133   8.976   0.988
17876SOL     OW65281   4.869   2.241   0.368
17876SOL    HW165282   4.804   2.314   0.391
17876SOL    HW265283   4.924   2.218   0.448
17877SOL     OW65284   9.233   5.122   4.310
17877SOL    HW165285   9.250   5.028   4.341
17877SOL    HW265286   9.181   5.119   4.225
17878SOL     OW65287   0.820   7.542   0.225
17878SOL    HW165288   0.734   7.512   0.183
17878SOL    HW265289   0.805   7.627   0.276
17879SOL     OW65290   8.869   0.286   3.621
17879SOL    HW165291   8.911   0.206   3.577
17879SOL    HW265292   8.936   0.361   3.624
17880SOL     OW65293   0.270   3.609   3.444
17880SOL    HW165294   0.211   3.532   3.418
17880SOL    HW265295   0.225   3.695   3.422
17881SOL     OW65296   9.224   1.281   7.058
17881SOL    HW165297   9.235   1.377   7.085
17881SOL    HW265298   9.145   1.272   6.999
17882SOL     OW65299   5.422   7.733   6.542
17882SOL    HW165300   5.510   7.778   6.560
17882SOL    HW265301   5.437   7.644   6.500
17883SOL     OW65302   7.042   8.495   5.422
17883SOL    HW165303   6.964   8.508   5.483
17883SOL    HW265304   7.043   8.400   5.389
17884SOL     OW65305   6.891   9.565   5.687
17884SOL    HW165306   6.930   9.485   5.734
17884SOL    HW265307   6.906   9.555   5.588
17885SOL     OW65308   6.373   8.656   6.346
17885SOL    HW165309   6.294   8.690   6.295
17885SOL    HW265310   6.396   8.564   6.315
17886SOL     OW65311   3.337   1.142   7.142
17886SOL    HW165312   3.415   1.197   7.171
17886SOL    HW265313   3.268   1.142   7.214
17887SOL     OW65314   8.639   6.188   1.287
17887SOL    HW165315   8.591   6.163   1.203
17887SOL    HW265316   8.610   6.126   1.360
17888SOL     OW65317   7.699   0.030   5.307
17888SOL    HW165318   7.794   0.011   5.329
17888SOL    HW265319   7.693   0.064   5.213
17889SOL     OW65320   5.610   0.246   4.778
17889SOL    HW165321   5.689   0.282   4.729
17889SOL    HW265322   5.619   0.147   4.787
17890SOL     OW65323   4.470   1.145   4.083
17890SOL    HW165324   4.488   1.059   4.132
17890SOL    HW265325   4.380   1.180   4.110
17891SOL     OW65326   2.466   0.167   3.686
17891SOL    HW165327   2.402   0.207   3.751
17891SOL    HW265328   2.464   0.067   3.693
17892SOL     OW65329   2.882   5.573   4.683
17892SOL    HW165330   2.843   5.553   4.592
17892SOL    HW265331   2.925   5.664   4.681
17893SOL     OW65332   0.410   1.750   5.561
17893SOL    HW165333   0.491   1.753   5.503
17893SOL    HW265334   0.401   1.837   5.610
17894SOL     OW65335   1.657   1.267   7.575
17894SOL    HW165336   1.756   1.278   7.564
17894SOL    HW265337   1.636   1.172   7.596
17895SOL     OW65338   2.161   3.804   5.758
17895SOL    HW165339   2.248   3.795   5.710
17895SOL    HW265340   2.158   3.892   5.806
17896SOL     OW65341   3.103   8.217   3.311
17896SOL    HW165342   3.076   8.295   3.255
17896SOL    HW265343   3.022   8.175   3.351
17897SOL     OW65344   9.019   3.599   6.043
17897SOL    HW165345   8.953   3.539   5.998
17897SOL    HW265346   8.975   3.648   6.118
17898SOL     OW65347   8.029   8.654   3.141
17898SOL    HW165348   8.033   8.570   3.195
17898SOL    HW265349   8.077   8.727   3.189
17899SOL     OW65350   1.586   2.370   5.682
17899SOL    HW165351   1.514   2.324   5.631
17899SOL    HW265352   1.644   2.302   5.727
17900SOL     OW65353   9.031   4.755   2.813
17900SOL    HW165354   9.112   4.806   2.785
17900SOL    HW265355   9.035   4.662   2.778
17901SOL     OW65356   3.658   5.213   7.736
17901SOL    HW165357   3.695   5.167   7.655
17901SOL    HW265358   3.683   5.310   7.734
17902SOL     OW65359   1.281   6.818   0.880
17902SOL    HW165360   1.273   6.889   0.950
17902SOL    HW265361   1.250   6.855   0.792
17903SOL     OW65362   4.389   4.831   5.640
17903SOL    HW165363   4.327   4.864   5.711
17903SOL    HW265364   4.336   4.799   5.561
17904SOL     OW65365   8.179   6.762   1.740
17904SOL    HW165366   8.157   6.701   1.663
17904SOL    HW265367   8.102   6.824   1.756
17905SOL     OW65368   7.168   5.288   0.157
17905SOL    HW165369   7.128   5.380   0.158
17905SOL    HW265370   7.094   5.221   0.154
17906SOL     OW65371   2.701   9.517   1.736
17906SOL    HW165372   2.797   9.509   1.762
17906SOL    HW265373   2.649   9.442   1.777
17907SOL     OW65374   6.036   9.765   1.321
17907SOL    HW165375   5.979   9.688   1.291
17907SOL    HW265376   6.039   9.766   1.421
17908SOL     OW65377   2.133   2.374   1.126
17908SOL    HW165378   2.104   2.279   1.136
17908SOL    HW265379   2.207   2.378   1.058
17909SOL     OW65380   5.878   5.236   7.809
17909SOL    HW165381   5.823   5.276   7.882
17909SOL    HW265382   5.973   5.267   7.819
17910SOL     OW65383   8.404   4.557   0.913
17910SOL    HW165384   8.488   4.610   0.909
17910SOL    HW265385   8.363   4.566   1.004
17911SOL     OW65386   9.364   1.113   0.407
17911SOL    HW165387   9.380   1.059   0.490
17911SOL    HW265388   9.451   1.139   0.366
17912SOL     OW65389   1.697   8.466   7.014
17912SOL    HW165390   1.689   8.374   7.054
17912SOL    HW265391   1.606   8.503   6.997
17913SOL     OW65392   0.687   4.669   5.721
17913SOL    HW165393   0.703   4.662   5.623
17913SOL    HW265394   0.588   4.662   5.739
17914SOL     OW65395   2.128   6.585   0.118
17914SOL    HW165396   2.052   6.629   0.071
17914SOL    HW265397   2.198   6.557   0.052
17915SOL     OW65398   1.229   9.383   5.858
17915SOL    HW165399   1.146   9.426   5.893
17915SOL    HW265400   1.223   9.284   5.871
17916SOL     OW65401   3.237   2.562   7.521
17916SOL    HW165402   3.146   2.587   7.488
17916SOL    HW265403   3.238   2.563   7.621
17917SOL     OW65404   9.671   9.495   2.772
17917SOL    HW165405   9.612   9.422   2.736
17917SOL    HW265406   9.642   9.518   2.865
17918SOL     OW65407   6.742   9.519   3.087
17918SOL    HW165408   6.799   9.453   3.136
17918SOL    HW265409   6.667   9.548   3.146
17919SOL     OW65410   8.450   2.845   3.207
17919SOL    HW165411   8.439   2.835   3.108
17919SOL    HW265412   8.362   2.831   3.252
17920SOL     OW65413   2.254   1.002   5.436
17920SOL    HW165414   2.267   0.955   5.523
17920SOL    HW265415   2.169   1.055   5.439
17921SOL     OW65416   1.715   8.603   2.461
17921SOL    HW165417   1.780   8.611   2.386
17921SOL    HW265418   1.622   8.615   2.425
17922SOL     OW65419   3.506   3.707   3.401
17922SOL    HW165420   3.581   3.646   3.426
17922SOL    HW265421   3.422   3.654   3.389
17923SOL     OW65422   1.123   8.443   0.375
17923SOL    HW165423   1.179   8.447   0.458
17923SOL    HW265424   1.100   8.536   0.347
17924SOL     OW65425   0.710   9.381   1.881
17924SOL    HW165426   0.663   9.299   1.849
17924SOL    HW265427   0.656   9.462   1.857
17925SOL     OW65428   6.769   0.693   3.014
17925SOL    HW165429   6.694   0.639   3.053
17925SOL    HW265430   6.772   0.678   2.915
17926SOL     OW65431   6.580   3.856   1.411
17926SOL    HW165432   6.521   3.808   1.347
17926SOL    HW265433   6.542   3.850   1.503
17927SOL     OW65434   3.859   0.266   2.482
17927SOL    HW165435   3.820   0.245   2.572
17927SOL    HW265436   3.809   0.215   2.411
17928SOL     OW65437   6.079   1.542   6.671
17928SOL    HW165438   6.140   1.608   6.626
17928SOL    HW265439   6.014   1.507   6.604
17929SOL     OW65440   4.551   5.025   1.571
17929SOL    HW165441   4.525   5.088   1.498
17929SOL    HW265442   4.584   4.939   1.531
17930SOL     OW65443   3.084   2.563   5.191
17930SOL    HW165444   3.048   2.504   5.119
17930SOL    HW265445   3.010   2.586   5.254
17931SOL     OW65446   2.249   2.788   0.290
17931SOL    HW165447   2.237   2.712   0.353
17931SOL    HW265448   2.247   2.874   0.341
17932SOL     OW65449   7.634   0.026   2.648
17932SOL    HW165450   7.536   0.004   2.650
17932SOL    HW265451   7.645   0.124   2.636
17933SOL     OW65452   6.951   7.245   3.787
17933SOL    HW165453   6.862   7.287   3.767
17933SOL    HW265454   7.015   7.264   3.713
17934SOL     OW65455   9.503   3.693   7.371
17934SOL    HW165456   9.526   3.599   7.394
17934SOL    HW265457   9.440   3.729   7.440
17935SOL     OW65458   2.458   3.051   0.955
17935SOL    HW165459   2.380   3.076   0.898
17935SOL    HW265460   2.529   3.009   0.898
17936SOL     OW65461   2.808   6.470   1.844
17936SOL    HW165462   2.810   6.460   1.745
17936SOL    HW265463   2.753   6.397   1.885
17937SOL     OW65464   9.691   0.949   0.459
17937SOL    HW165465   9.650   0.867   0.420
17937SOL    HW265466   9.780   0.927   0.498
17938SOL     OW65467   2.146   7.675   0.899
17938SOL    HW165468   2.230   7.657   0.847
17938SOL    HW265469   2.094   7.747   0.853
17939SOL     OW65470   7.931   7.993   1.771
17939SOL    HW165471   7.874   7.934   1.714
17939SOL    HW265472   7.965   7.940   1.849
17940SOL     OW65473   3.179   1.034   0.229
17940SOL    HW165474   3.211   0.940   0.245
17940SOL    HW265475   3.239   1.098   0.277
17941SOL     OW65476   4.619   9.847   0.126
17941SOL    HW165477   4.547   9.780   0.107
17941SOL    HW265478   4.667   9.822   0.210
17942SOL     OW65479   4.281   9.266   0.889
17942SOL    HW165480   4.204   9.328   0.903
17942SOL    HW265481   4.253   9.172   0.907
17943SOL     OW65482   6.918   1.737   1.079
17943SOL    HW165483   6.997   1.696   1.034
17943SOL    HW265484   6.932   1.735   1.178
17944SOL     OW65485   0.372   6.307   2.079
17944SOL    HW165486   0.334   6.246   2.148
17944SOL    HW265487   0.356   6.269   1.988
17945SOL     OW65488   9.553   3.441   7.498
17945SOL    HW165489   9.480   3.372   7.494
17945SOL    HW265490   9.639   3.401   7.469
17946SOL     OW65491   7.468   0.194   4.916
17946SOL    HW165492   7.409   0.202   4.997
17946SOL    HW265493   7.440   0.262   4.848
17947SOL     OW65494   6.166   0.358   7.506
17947SOL    HW165495   6.210   0.387   7.421
17947SOL    HW265496   6.067   0.370   7.498
17948SOL     OW65497   9.570   1.268   7.264
17948SOL    HW165498   9.495   1.228   7.316
17948SOL    HW265499   9.540   1.283   7.169
17949SOL     OW65500   4.929   3.627   5.878
17949SOL    HW165501   4.847   3.643   5.824
17949SOL    HW265502   4.974   3.715   5.895
17950SOL     OW65503   0.396   1.352   4.044
17950SOL    HW165504   0.409   1.272   4.103
17950SOL    HW265505   0.348   1.324   3.961
17951SOL     OW65506   2.163   6.690   3.489
17951SOL    HW165507   2.172   6.788   3.509
17951SOL    HW265508   2.160   6.639   3.574
17952SOL     OW65509   9.824   8.808   0.824
17952SOL    HW165510   9.867   8.888   0.781
17952SOL    HW265511   9.725   8.821   0.826
17953SOL     OW65512   4.369   0.110   0.253
17953SOL    HW165513   4.446   0.131   0.192
17953SOL    HW265514   4.392   0.030   0.308
17954SOL     OW65515   0.571   7.974   4.232
17954SOL    HW165516   0.513   7.914   4.177
17954SOL    HW265517   0.533   8.067   4.230
17955SOL     OW65518   6.848   9.241   3.805
17955SOL    HW165519   6.854   9.153   3.852
17955SOL    HW265520   6.753   9.272   3.804
17956SOL     OW65521   5.094   0.192   6.025
17956SOL    HW165522   5.111   0.169   5.929
17956SOL    HW265523   5.031   0.126   6.064
17957SOL     OW65524   5.390   9.973   6.242
17957SOL    HW165525   5.468   9.976   6.305
17957SOL    HW265526   5.342   0.060   6.244
17958SOL     OW65527   6.541   9.810   2.886
17958SOL    HW165528   6.481   9.826   2.964
17958SOL    HW265529   6.571   9.898   2.848
17959SOL     OW65530   9.976   3.194   4.833
17959SOL    HW165531   9.895   3.137   4.849
17959SOL    HW265532   9.958   3.257   4.757
17960SOL     OW65533   3.415   5.172   0.243
17960SOL    HW165534   3.331   5.134   0.204
17960SOL    HW265535   3.434   5.129   0.331
17961SOL     OW65536   2.944   9.809   6.577
17961SOL    HW165537   2.945   9.885   6.511
17961SOL    HW265538   2.853   9.769   6.580
17962SOL     OW65539   5.768   3.540   1.000
17962SOL    HW165540   5.791   3.539   1.098
17962SOL    HW265541   5.682   3.590   0.988
17963SOL     OW65542   8.180   8.814   2.239
17963SOL    HW165543   8.273   8.779   2.252
17963SOL    HW265544   8.137   8.767   2.162
17964SOL     OW65545   8.007   5.967   2.561
17964SOL    HW165546   8.089   5.974   2.618
17964SOL    HW265547   8.033   5.946   2.467
17965SOL     OW65548   4.154   4.007   2.153
17965SOL    HW165549   4.095   3.991   2.074
17965SOL    HW265550   4.097   4.024   2.234
17966SOL     OW65551   9.287   3.541   0.380
17966SOL    HW165552   9.321   3.486   0.304
17966SOL    HW265553   9.265   3.633   0.347
17967SOL     OW65554   2.451   0.327   0.239
17967SOL    HW165555   2.493   0.417   0.226
17967SOL    HW265556   2.502   0.277   0.309
17968SOL     OW65557   6.296   2.500   0.961
17968SOL    HW165558   6.220   2.560   0.937
17968SOL    HW265559   6.380   2.554   0.966
17969SOL     OW65560   2.050   7.341   1.710
17969SOL    HW165561   2.012   7.301   1.627
17969SOL    HW265562   1.999   7.424   1.733
17970SOL     OW65563   0.093   2.534   0.495
17970SOL    HW165564   0.025   2.480   0.544
17970SOL    HW265565   0.096   2.505   0.399
17971SOL     OW65566   6.036   7.887   4.350
17971SOL    HW165567   5.966   7.817   4.334
17971SOL    HW265568   6.050   7.898   4.448
17972SOL     OW65569   4.809   9.220   2.517
17972SOL    HW165570   4.835   9.277   2.439
17972SOL    HW265571   4.713   9.235   2.538
17973SOL     OW65572   4.626   2.428   4.826
17973SOL    HW165573   4.535   2.431   4.868
17973SOL    HW265574   4.627   2.360   4.754
17974SOL     OW65575   4.989   3.141   0.330
17974SOL    HW165576   5.060   3.081   0.292
17974SOL    HW265577   4.900   3.096   0.326
17975SOL     OW65578   5.682   8.720   4.926
17975SOL    HW165579   5.705   8.749   4.833
17975SOL    HW265580   5.764   8.682   4.970
17976SOL     OW65581   1.866   2.825   2.046
17976SOL    HW165582   1.963   2.850   2.045
17976SOL    HW265583   1.824   2.860   2.130
17977SOL     OW65584   9.471   8.803   1.132
17977SOL    HW165585   9.444   8.819   1.227
17977SOL    HW265586   9.524   8.719   1.125
17978SOL     OW65587   5.989   2.812   2.250
17978SOL    HW165588   5.903   2.799   2.301
17978SOL    HW265589   5.992   2.748   2.173
17979SOL     OW65590   1.327   5.707   6.272
17979SOL    HW165591   1.255   5.770   6.242
17979SOL    HW265592   1.370   5.665   6.192
17980SOL     OW65593   6.156   3.009   1.159
17980SOL    HW165594   6.084   2.947   1.189
17980SOL    HW265595   6.126   3.059   1.078
17981SOL     OW65596   8.371   7.980   6.001
17981SOL    HW165597   8.440   7.913   5.974
17981SOL    HW265598   8.300   7.986   5.931
17982SOL     OW65599   4.223   9.756   2.493
17982SOL    HW165600   4.172   9.839   2.472
17982SOL    HW265601   4.267   9.765   2.583
17983SOL     OW65602   9.594   7.372   3.594
17983SOL    HW165603   9.652   7.447   3.563
17983SOL    HW265604   9.521   7.408   3.652
17984SOL     OW65605   6.123   2.785   0.051
17984SOL    HW165606   6.038   2.758   0.005
17984SOL    HW265607   6.186   2.708   0.055
17985SOL     OW65608   0.944   7.648   7.088
17985SOL    HW165609   0.984   7.687   7.005
17985SOL    HW265610   0.869   7.588   7.063
17986SOL     OW65611   2.065   3.633   7.330
17986SOL    HW165612   2.044   3.724   7.294
17986SOL    HW265613   1.980   3.590   7.362
17987SOL     OW65614   9.330   7.259   2.589
17987SOL    HW165615   9.414   7.261   2.643
17987SOL    HW265616   9.264   7.323   2.627
17988SOL     OW65617   6.922   9.340   3.211
17988SOL    HW165618   7.012   9.300   3.189
17988SOL    HW265619   6.861   9.267   3.240
17989SOL     OW65620   8.147   6.465   6.881
17989SOL    HW165621   8.085   6.414   6.941
17989SOL    HW265622   8.102   6.549   6.851
17990SOL     OW65623   8.961   2.205   1.241
17990SOL    HW165624   9.008   2.274   1.186
17990SOL    HW265625   8.867   2.196   1.209
17991SOL     OW65626   1.761   4.268   4.347
17991SOL    HW165627   1.738   4.170   4.344
17991SOL    HW265628   1.859   4.278   4.368
17992SOL     OW65629   5.800   9.992   7.463
17992SOL    HW165630   5.777   0.076   7.513
17992SOL    HW265631   5.745   9.916   7.499
17993SOL     OW65632   4.336   6.761   2.510
17993SOL    HW165633   4.304   6.737   2.601
17993SOL    HW265634   4.435   6.773   2.511
17994SOL     OW65635   0.461   2.399   4.159
17994SOL    HW165636   0.383   2.346   4.126
17994SOL    HW265637   0.543   2.342   4.158
17995SOL     OW65638   4.446   9.549   6.702
17995SOL    HW165639   4.518   9.586   6.760
17995SOL    HW265640   4.365   9.529   6.758
17996SOL     OW65641   0.041   0.392   4.221
17996SOL    HW165642   0.137   0.419   4.215
17996SOL    HW265643   9.984   0.455   4.168
17997SOL     OW65644   3.564   5.400   7.277
17997SOL    HW165645   3.519   5.313   7.258
17997SOL    HW265646   3.529   5.437   7.363
17998SOL     OW65647   4.536   0.049   1.697
17998SOL    HW165648   4.455   0.016   1.746
17998SOL    HW265649   4.577   9.974   1.646
17999SOL     OW65650   5.540   5.485   0.693
17999SOL    HW165651   5.587   5.552   0.635
17999SOL    HW265652   5.554   5.393   0.656
18000SOL     OW65653   3.670   1.540   7.834
18000SOL    HW165654   3.760   1.567   7.799
18000SOL    HW265655   3.629   1.471   7.774
18001SOL     OW65656   7.757   7.074   6.350
18001SOL    HW165657   7.687   7.047   6.416
18001SOL    HW265658   7.845   7.083   6.397
18002SOL     OW65659   9.173   8.880   5.799
18002SOL    HW165660   9.226   8.964   5.796
18002SOL    HW265661   9.233   8.803   5.822
18003SOL     OW65662   6.165   4.668   7.873
18003SOL    HW165663   6.065   4.678   7.866
18003SOL    HW265664   6.189   4.571   7.869
18004SOL     OW65665   2.171   6.083   1.084
18004SOL    HW165666   2.268   6.079   1.110
18004SOL    HW265667   2.164   6.110   0.988
18005SOL     OW65668   6.593   9.180   4.626
18005SOL    HW165669   6.567   9.084   4.635
18005SOL    HW265670   6.512   9.238   4.638
18006SOL     OW65671   8.320   3.056   4.285
18006SOL    HW165672   8.345   3.151   4.268
18006SOL    HW265673   8.309   3.007   4.198
18007SOL     OW65674   8.251   6.963   0.442
18007SOL    HW165675   8.296   6.895   0.384
18007SOL    HW265676   8.310   7.042   0.453
18008SOL     OW65677   2.829   4.048   2.820
18008SOL    HW165678   2.867   4.041   2.728
18008SOL    HW265679   2.755   4.117   2.820
18009SOL     OW65680   3.945   5.216   3.298
18009SOL    HW165681   3.871   5.194   3.234
18009SOL    HW265682   3.909   5.220   3.391
18010SOL     OW65683   8.337   3.605   2.801
18010SOL    HW165684   8.331   3.573   2.896
18010SOL    HW265685   8.422   3.574   2.760
18011SOL     OW65686   9.692   6.695   4.443
18011SOL    HW165687   9.646   6.622   4.392
18011SOL    HW265688   9.751   6.747   4.380
18012SOL     OW65689   7.955   2.322   3.727
18012SOL    HW165690   7.959   2.247   3.793
18012SOL    HW265691   7.877   2.381   3.748
18013SOL     OW65692   9.510   6.068   0.922
18013SOL    HW165693   9.530   6.099   1.015
18013SOL    HW265694   9.532   5.971   0.914
18014SOL     OW65695   1.794   4.829   4.835
18014SOL    HW165696   1.855   4.804   4.910
18014SOL    HW265697   1.844   4.885   4.769
18015SOL     OW65698   2.998   1.613   0.214
18015SOL    HW165699   2.930   1.683   0.195
18015SOL    HW265700   2.955   1.539   0.266
18016SOL     OW65701   4.136   0.730   3.711
18016SOL    HW165702   4.217   0.739   3.652
18016SOL    HW265703   4.130   0.637   3.746
18017SOL     OW65704   0.163   0.530   3.624
18017SOL    HW165705   0.254   0.570   3.612
18017SOL    HW265706   0.148   0.458   3.556
18018SOL     OW65707   3.214   4.723   1.886
18018SOL    HW165708   3.259   4.805   1.920
18018SOL    HW265709   3.277   4.645   1.891
18019SOL     OW65710   4.280   4.681   0.253
18019SOL    HW165711   4.283   4.772   0.295
18019SOL    HW265712   4.372   4.651   0.231
18020SOL     OW65713   7.321   0.237   3.188
18020SOL    HW165714   7.299   0.327   3.151
18020SOL    HW265715   7.401   0.200   3.141
18021SOL     OW65716   7.380   0.600   4.839
18021SOL    HW165717   7.292   0.553   4.842
18021SOL    HW265718   7.373   0.677   4.775
18022SOL     OW65719   3.038   0.157   6.718
18022SOL    HW165720   3.107   0.106   6.667
18022SOL    HW265721   2.950   0.152   6.670
18023SOL     OW65722   7.613   8.283   3.953
18023SOL    HW165723   7.548   8.354   3.981
18023SOL    HW265724   7.628   8.288   3.854
18024SOL     OW65725   3.819   8.270   7.392
18024SOL    HW165726   3.776   8.198   7.338
18024SOL    HW265727   3.748   8.328   7.434
18025SOL     OW65728   2.320   6.465  10.045
18025SOL    HW165729   2.376   6.406   0.021
18025SOL    HW265730   2.349   6.457   9.950
18026SOL     OW65731   1.415   7.301   0.334
18026SOL    HW165732   1.351   7.261   0.269
18026SOL    HW265733   1.494   7.339   0.284
18027SOL     OW65734   5.740   9.283   5.561
18027SOL    HW165735   5.696   9.370   5.584
18027SOL    HW265736   5.767   9.283   5.465
18028SOL     OW65737   8.019   0.908   0.524
18028SOL    HW165738   7.923   0.929   0.541
18028SOL    HW265739   8.056   0.854   0.600
18029SOL     OW65740   2.126   2.645   0.871
18029SOL    HW165741   2.042   2.619   0.823
18029SOL    HW265742   2.154   2.572   0.932
18030SOL     OW65743   8.309   6.610   4.486
18030SOL    HW165744   8.371   6.680   4.450
18030SOL    HW265745   8.310   6.531   4.425
18031SOL     OW65746   2.207   1.763   0.065
18031SOL    HW165747   2.270   1.833   0.099
18031SOL    HW265748   2.148   1.733   0.140
18032SOL     OW65749   9.249   8.010   5.342
18032SOL    HW165750   9.208   7.978   5.257
18032SOL    HW265751   9.279   7.932   5.397
18033SOL     OW65752   8.100   9.080   2.139
18033SOL    HW165753   8.149   9.021   2.202
18033SOL    HW265754   8.064   9.026   2.063
18034SOL     OW65755   3.628   6.591   1.137
18034SOL    HW165756   3.566   6.669   1.130
18034SOL    HW265757   3.663   6.585   1.230
18035SOL     OW65758   8.250   9.605   5.122
18035SOL    HW165759   8.192   9.574   5.198
18035SOL    HW265760   8.239   9.704   5.110
18036SOL     OW65761   2.773   2.251   2.118
18036SOL    HW165762   2.781   2.295   2.029
18036SOL    HW265763   2.698   2.292   2.169
18037SOL     OW65764   5.698   3.611   2.265
18037SOL    HW165765   5.785   3.569   2.241
18037SOL    HW265766   5.627   3.580   2.201
18038SOL     OW65767   7.857   6.793   7.041
18038SOL    HW165768   7.883   6.800   7.137
18038SOL    HW265769   7.812   6.877   7.011
18039SOL     OW65770   5.564   8.665   6.843
18039SOL    HW165771   5.550   8.567   6.861
18039SOL    HW265772   5.660   8.681   6.822
18040SOL     OW65773   3.097   8.383   1.796
18040SOL    HW165774   3.052   8.323   1.730
18040SOL    HW265775   3.061   8.366   1.888
18041SOL     OW65776   4.250   2.594   5.687
18041SOL    HW165777   4.281   2.580   5.593
18041SOL    HW265778   4.275   2.515   5.743
18042SOL     OW65779   2.848   3.191   0.674
18042SOL    HW165780   2.895   3.279   0.668
18042SOL    HW265781   2.914   3.120   0.696
18043SOL     OW65782   0.991   8.254   0.231
18043SOL    HW165783   1.046   8.323   0.280
18043SOL    HW265784   1.051   8.201   0.171
18044SOL     OW65785   8.583   3.074   6.296
18044SOL    HW165786   8.544   3.015   6.226
18044SOL    HW265787   8.556   3.169   6.278
18045SOL     OW65788   3.513   5.874   2.946
18045SOL    HW165789   3.606   5.845   2.923
18045SOL    HW265790   3.516   5.945   3.015
18046SOL     OW65791   4.941   9.309   0.932
18046SOL    HW165792   4.922   9.271   0.842
18046SOL    HW265793   4.863   9.365   0.961
18047SOL     OW65794   7.949   7.948   5.525
18047SOL    HW165795   7.891   8.017   5.569
18047SOL    HW265796   8.016   7.994   5.466
18048SOL     OW65797   2.269   1.875   4.164
18048SOL    HW165798   2.223   1.895   4.250
18048SOL    HW265799   2.301   1.961   4.122
18049SOL     OW65800   3.663   2.476   4.681
18049SOL    HW165801   3.713   2.390   4.695
18049SOL    HW265802   3.702   2.547   4.739
18050SOL     OW65803   4.199   6.783   5.130
18050SOL    HW165804   4.155   6.767   5.218
18050SOL    HW265805   4.298   6.771   5.139
18051SOL     OW65806   5.751   8.940   1.688
18051SOL    HW165807   5.667   8.933   1.742
18051SOL    HW265808   5.747   9.021   1.630
18052SOL     OW65809   3.715   9.413   7.168
18052SOL    HW165810   3.773   9.486   7.203
18052SOL    HW265811   3.749   9.325   7.203
18053SOL     OW65812   3.984   3.315   0.102
18053SOL    HW165813   4.046   3.385   0.139
18053SOL    HW265814   3.891   3.333   0.132
18054SOL     OW65815   6.936   7.468   5.005
18054SOL    HW165816   6.854   7.521   4.981
18054SOL    HW265817   6.968   7.418   4.925
18055SOL     OW65818   3.387   1.822   2.325
18055SOL    HW165819   3.447   1.832   2.405
18055SOL    HW265820   3.345   1.731   2.327
18056SOL     OW65821   8.808   5.369   2.708
18056SOL    HW165822   8.786   5.401   2.800
18056SOL    HW265823   8.906   5.381   2.691
18057SOL     OW65824   7.087   6.775   6.638
18057SOL    HW165825   7.056   6.718   6.715
18057SOL    HW265826   7.057   6.869   6.653
18058SOL     OW65827   5.711   5.135   7.615
18058SOL    HW165828   5.625   5.108   7.659
18058SOL    HW265829   5.778   5.160   7.685
18059SOL     OW65830   7.281   5.115   1.010
18059SOL    HW165831   7.200   5.061   0.989
18059SOL    HW265832   7.338   5.121   0.929
18060SOL     OW65833   1.670   6.681   3.678
18060SOL    HW165834   1.679   6.623   3.760
18060SOL    HW265835   1.598   6.748   3.693
18061SOL     OW65836   5.353   7.462   4.687
18061SOL    HW165837   5.413   7.455   4.767
18061SOL    HW265838   5.261   7.431   4.712
18062SOL     OW65839   9.006   5.576   4.055
18062SOL    HW165840   8.909   5.566   4.033
18062SOL    HW265841   9.033   5.672   4.045
18063SOL     OW65842   7.557   7.368   1.849
18063SOL    HW165843   7.483   7.343   1.786
18063SOL    HW265844   7.526   7.356   1.943
18064SOL     OW65845   4.184   6.555   2.399
18064SOL    HW165846   4.238   6.626   2.444
18064SOL    HW265847   4.190   6.567   2.300
18065SOL     OW65848   7.871   7.765   5.718
18065SOL    HW165849   7.893   7.821   5.639
18065SOL    HW265850   7.882   7.820   5.802
18066SOL     OW65851   1.106   8.643   6.291
18066SOL    HW165852   1.109   8.609   6.384
18066SOL    HW265853   1.170   8.592   6.234
18067SOL     OW65854   7.547   0.577   2.966
18067SOL    HW165855   7.462   0.614   2.928
18067SOL    HW265856   7.542   0.477   2.965
18068SOL     OW65857   2.660   4.303   6.354
18068SOL    HW165858   2.636   4.360   6.276
18068SOL    HW265859   2.682   4.362   6.432
18069SOL     OW65860   3.306   4.327   1.554
18069SOL    HW165861   3.356   4.247   1.586
18069SOL    HW265862   3.208   4.311   1.564
18070SOL     OW65863   9.955   5.098   7.496
18070SOL    HW165864   0.021   5.174   7.500
18070SOL    HW265865   9.940   5.062   7.588
18071SOL     OW65866   9.657   6.942   7.285
18071SOL    HW165867   9.692   6.925   7.377
18071SOL    HW265868   9.566   6.984   7.291
18072SOL     OW65869   3.160   2.435   5.547
18072SOL    HW165870   3.173   2.421   5.646
18072SOL    HW265871   3.160   2.533   5.527
18073SOL     OW65872   6.878   5.063   6.813
18073SOL    HW165873   6.808   5.018   6.867
18073SOL    HW265874   6.846   5.075   6.719
18074SOL     OW65875   3.415   7.462   1.921
18074SOL    HW165876   3.452   7.410   1.998
18074SOL    HW265877   3.440   7.417   1.836
18075SOL     OW65878   0.871   3.702   3.436
18075SOL    HW165879   0.897   3.643   3.512
18075SOL    HW265880   0.796   3.761   3.464
18076SOL     OW65881   1.971   9.985   2.274
18076SOL    HW165882   1.969   9.978   2.174
18076SOL    HW265883   1.978   9.893   2.313
18077SOL     OW65884   5.896   3.544   1.247
18077SOL    HW165885   5.889   3.494   1.333
18077SOL    HW265886   5.940   3.632   1.262
18078SOL     OW65887   3.739   3.771   2.807
18078SOL    HW165888   3.684   3.855   2.805
18078SOL    HW265889   3.685   3.698   2.849
18079SOL     OW65890   4.067   0.912   6.455
18079SOL    HW165891   4.090   0.999   6.499
18079SOL    HW265892   3.970   0.893   6.467
18080SOL     OW65893   9.936   5.234   1.100
18080SOL    HW165894   9.939   5.136   1.119
18080SOL    HW265895   9.888   5.250   1.014
18081SOL     OW65896   1.409   9.586   2.695
18081SOL    HW165897   1.419   9.593   2.794
18081SOL    HW265898   1.470   9.514   2.661
18082SOL     OW65899   5.470   2.755   1.133
18082SOL    HW165900   5.567   2.772   1.119
18082SOL    HW265901   5.451   2.750   1.231
18083SOL     OW65902   8.257   1.996   7.039
18083SOL    HW165903   8.298   1.947   6.962
18083SOL    HW265904   8.278   2.094   7.031
18084SOL     OW65905   2.306   1.952   3.340
18084SOL    HW165906   2.336   1.943   3.435
18084SOL    HW265907   2.339   1.874   3.287
18085SOL     OW65908   1.470   6.383   0.457
18085SOL    HW165909   1.536   6.316   0.424
18085SOL    HW265910   1.377   6.352   0.438
18086SOL     OW65911   8.141   2.189   0.896
18086SOL    HW165912   8.070   2.232   0.951
18086SOL    HW265913   8.161   2.247   0.816
18087SOL     OW65914   2.092   1.633   1.909
18087SOL    HW165915   2.012   1.590   1.949
18087SOL    HW265916   2.073   1.658   1.814
18088SOL     OW65917   0.966   3.529   2.839
18088SOL    HW165918   0.945   3.622   2.808
18088SOL    HW265919   0.910   3.507   2.920
18089SOL     OW65920   3.396   0.122   5.434
18089SOL    HW165921   3.444   0.035   5.423
18089SOL    HW265922   3.306   0.105   5.475
18090SOL     OW65923   8.548   6.241   3.130
18090SOL    HW165924   8.630   6.189   3.104
18090SOL    HW265925   8.500   6.194   3.203
18091SOL     OW65926   8.545   5.926   6.249
18091SOL    HW165927   8.556   6.025   6.251
18091SOL    HW265928   8.520   5.898   6.156
18092SOL     OW65929   2.622   3.623   1.278
18092SOL    HW165930   2.662   3.691   1.338
18092SOL    HW265931   2.523   3.639   1.269
18093SOL     OW65932   2.192   6.830   4.951
18093SOL    HW165933   2.236   6.919   4.958
18093SOL    HW265934   2.130   6.830   4.872
18094SOL     OW65935   3.810   9.820   3.979
18094SOL    HW165936   3.717   9.789   3.958
18094SOL    HW265937   3.846   9.769   4.057
18095SOL     OW65938   9.533   0.012   4.444
18095SOL    HW165939   9.632   0.007   4.456
18095SOL    HW265940   9.488   9.949   4.508
18096SOL     OW65941   8.575   1.113   6.690
18096SOL    HW165942   8.496   1.108   6.629
18096SOL    HW265943   8.659   1.101   6.636
18097SOL     OW65944   4.251   8.991   5.562
18097SOL    HW165945   4.254   8.921   5.491
18097SOL    HW265946   4.180   8.968   5.628
18098SOL     OW65947   0.647   3.295   7.379
18098SOL    HW165948   0.560   3.307   7.332
18098SOL    HW265949   0.715   3.261   7.315
18099SOL     OW65950   7.983   2.154   0.358
18099SOL    HW165951   7.904   2.095   0.341
18099SOL    HW265952   7.982   2.182   0.454
18100SOL     OW65953   7.792   7.285   6.856
18100SOL    HW165954   7.852   7.314   6.781
18100SOL    HW265955   7.779   7.362   6.919
18101SOL     OW65956   6.454   8.170   3.547
18101SOL    HW165957   6.539   8.182   3.599
18101SOL    HW265958   6.378   8.161   3.610
18102SOL     OW65959   5.441   8.231   7.268
18102SOL    HW165960   5.410   8.185   7.186
18102SOL    HW265961   5.363   8.265   7.320
18103SOL     OW65962   9.286   6.664   4.492
18103SOL    HW165963   9.215   6.732   4.507
18103SOL    HW265964   9.366   6.685   4.548
18104SOL     OW65965   3.497   4.818   0.348
18104SOL    HW165966   3.470   4.899   0.401
18104SOL    HW265967   3.592   4.829   0.318
18105SOL     OW65968   0.805   3.655   4.476
18105SOL    HW165969   0.885   3.688   4.425
18105SOL    HW265970   0.835   3.618   4.564
18106SOL     OW65971   6.489   3.895   2.820
18106SOL    HW165972   6.408   3.853   2.779
18106SOL    HW265973   6.560   3.826   2.830
18107SOL     OW65974   0.084   3.425   6.707
18107SOL    HW165975   0.148   3.502   6.713
18107SOL    HW265976   9.998   3.457   6.666
18108SOL     OW65977   0.326   6.475   2.592
18108SOL    HW165978   0.369   6.399   2.543
18108SOL    HW265979   0.274   6.532   2.528
18109SOL     OW65980   4.753   2.823   2.049
18109SOL    HW165981   4.681   2.795   1.985
18109SOL    HW265982   4.821   2.750   2.056
18110SOL     OW65983   0.630   5.887   3.978
18110SOL    HW165984   0.643   5.871   3.880
18110SOL    HW265985   0.664   5.808   4.029
18111SOL     OW65986   4.922   5.012   7.429
18111SOL    HW165987   4.902   5.027   7.332
18111SOL    HW265988   4.932   5.100   7.475
18112SOL     OW65989   4.619   8.655   2.755
18112SOL    HW165990   4.701   8.678   2.808
18112SOL    HW265991   4.569   8.738   2.734
18113SOL     OW65992   1.520   1.432   3.628
18113SOL    HW165993   1.504   1.432   3.529
18113SOL    HW265994   1.535   1.338   3.660
18114SOL     OW65995   3.219   6.037   5.748
18114SOL    HW165996   3.183   6.099   5.817
18114SOL    HW265997   3.283   6.086   5.689
18115SOL     OW65998   0.605   2.378   6.646
18115SOL    HW165999   0.588   2.394   6.743
18115SOL    HW266000   0.687   2.322   6.634
18116SOL     OW66001   2.766   1.022   2.056
18116SOL    HW166002   2.807   1.006   1.966
18116SOL    HW266003   2.694   1.091   2.047
18117SOL     OW66004   4.339   8.214   0.124
18117SOL    HW166005   4.295   8.128   0.151
18117SOL    HW266006   4.280   8.291   0.146
18118SOL     OW66007   5.342   0.022   6.565
18118SOL    HW166008   5.426   0.022   6.511
18118SOL    HW266009   5.354   9.962   6.644
18119SOL     OW66010   3.599   3.813   7.149
18119SOL    HW166011   3.594   3.734   7.210
18119SOL    HW266012   3.571   3.785   7.057
18120SOL     OW66013   3.921   1.665   7.756
18120SOL    HW166014   3.988   1.631   7.822
18120SOL    HW266015   3.945   1.632   7.664
18121SOL     OW66016   8.020   7.686   6.125
18121SOL    HW166017   8.010   7.780   6.159
18121SOL    HW266018   8.116   7.659   6.128
18122SOL     OW66019   3.714   8.882   6.049
18122SOL    HW166020   3.644   8.813   6.068
18122SOL    HW266021   3.671   8.963   6.011
18123SOL     OW66022   9.633   0.347   1.455
18123SOL    HW166023   9.544   0.357   1.410
18123SOL    HW266024   9.642   0.415   1.527
18124SOL     OW66025   9.649   2.474   0.571
18124SOL    HW166026   9.587   2.450   0.646
18124SOL    HW266027   9.604   2.540   0.511
18125SOL     OW66028   4.506   1.120   3.781
18125SOL    HW166029   4.463   1.179   3.850
18125SOL    HW266030   4.486   1.025   3.801
18126SOL     OW66031   7.199   9.884   7.501
18126SOL    HW166032   7.238   9.800   7.465
18126SOL    HW266033   7.112   9.863   7.546
18127SOL     OW66034   9.950   3.965   4.778
18127SOL    HW166035   0.007   4.044   4.759
18127SOL    HW266036  10.000   3.881   4.755
18128SOL     OW66037   8.646   4.566   1.162
18128SOL    HW166038   8.697   4.525   1.086
18128SOL    HW266039   8.649   4.666   1.154
18129SOL     OW66040   6.784   5.253   2.700
18129SOL    HW166041   6.754   5.332   2.648
18129SOL    HW266042   6.725   5.175   2.680
18130SOL     OW66043   9.619   7.110   3.523
18130SOL    HW166044   9.624   7.072   3.616
18130SOL    HW266045   9.611   7.209   3.528
18131SOL     OW66046   1.543   9.902   2.570
18131SOL    HW166047   1.498   9.913   2.658
18131SOL    HW266048   1.585   9.989   2.543
18132SOL     OW66049   2.126   0.652   3.822
18132SOL    HW166050   2.039   0.604   3.806
18132SOL    HW266051   2.135   0.728   3.758
18133SOL     OW66052   1.233   2.120   1.163
18133SOL    HW166053   1.278   2.040   1.201
18133SOL    HW266054   1.143   2.132   1.206
18134SOL     OW66055   7.578   4.475   5.464
18134SOL    HW166056   7.602   4.527   5.382
18134SOL    HW266057   7.607   4.380   5.453
18135SOL     OW66058   5.269   7.803   5.062
18135SOL    HW166059   5.281   7.884   5.119
18135SOL    HW266060   5.173   7.777   5.060
18136SOL     OW66061   7.069   2.534   3.541
18136SOL    HW166062   7.078   2.624   3.583
18136SOL    HW266063   6.986   2.530   3.486
18137SOL     OW66064   9.212   3.183   3.100
18137SOL    HW166065   9.312   3.191   3.097
18137SOL    HW266066   9.183   3.161   3.194
18138SOL     OW66067   1.195   9.590   1.432
18138SOL    HW166068   1.110   9.537   1.435
18138SOL    HW266069   1.215   9.626   1.523
18139SOL     OW66070   7.431   4.026   2.671
18139SOL    HW166071   7.397   3.951   2.727
18139SOL    HW266072   7.421   4.112   2.721
18140SOL     OW66073   7.571   7.597   6.840
18140SOL    HW166074   7.493   7.534   6.829
18140SOL    HW266075   7.630   7.565   6.913
18141SOL     OW66076   3.756   6.958   4.535
18141SOL    HW166077   3.656   6.959   4.546
18141SOL    HW266078   3.779   6.955   4.438
18142SOL     OW66079   7.516   6.402   7.742
18142SOL    HW166080   7.550   6.443   7.827
18142SOL    HW266081   7.584   6.415   7.670
18143SOL     OW66082   7.836   2.311   5.330
18143SOL    HW166083   7.898   2.290   5.405
18143SOL    HW266084   7.888   2.356   5.256
18144SOL     OW66085   8.869   2.886   3.710
18144SOL    HW166086   8.820   2.828   3.645
18144SOL    HW266087   8.846   2.982   3.693
18145SOL     OW66088   0.557   6.055   4.470
18145SOL    HW166089   0.521   5.970   4.510
18145SOL    HW266090   0.554   6.049   4.370
18146SOL     OW66091   9.301   4.843   1.331
18146SOL    HW166092   9.276   4.934   1.298
18146SOL    HW266093   9.276   4.774   1.263
18147SOL     OW66094   0.896   8.717   6.651
18147SOL    HW166095   0.918   8.690   6.745
18147SOL    HW266096   0.876   8.815   6.648
18148SOL     OW66097   2.379   4.053   4.921
18148SOL    HW166098   2.410   4.130   4.977
18148SOL    HW266099   2.305   4.004   4.968
18149SOL     OW66100   8.904   7.418   7.491
18149SOL    HW166101   8.844   7.465   7.426
18149SOL    HW266102   8.993   7.401   7.448
18150SOL     OW66103   6.700   5.713   7.614
18150SOL    HW166104   6.611   5.748   7.584
18150SOL    HW266105   6.767   5.725   7.541
18151SOL     OW66106   7.566   5.345   3.626
18151SOL    HW166107   7.645   5.378   3.575
18151SOL    HW266108   7.545   5.409   3.700
18152SOL     OW66109   8.253   7.765   6.633
18152SOL    HW166110   8.241   7.851   6.585
18152SOL    HW266111   8.234   7.688   6.572
18153SOL     OW66112   8.378   8.866   7.021
18153SOL    HW166113   8.278   8.871   7.014
18153SOL    HW266114   8.407   8.772   7.008
18154SOL     OW66115   3.381   9.927   5.863
18154SOL    HW166116   3.402   9.866   5.939
18154SOL    HW266117   3.419   0.017   5.880
18155SOL     OW66118   4.397   5.244   2.675
18155SOL    HW166119   4.358   5.328   2.636
18155SOL    HW266120   4.334   5.207   2.743
18156SOL     OW66121   7.670   8.567   3.361
18156SOL    HW166122   7.608   8.613   3.424
18156SOL    HW266123   7.727   8.503   3.413
18157SOL     OW66124   9.452   4.880   3.219
18157SOL    HW166125   9.423   4.798   3.269
18157SOL    HW266126   9.406   4.961   3.258
18158SOL     OW66127   3.481   4.689   1.365
18158SOL    HW166128   3.538   4.679   1.283
18158SOL    HW266129   3.444   4.781   1.369
18159SOL     OW66130   5.345   8.102   1.757
18159SOL    HW166131   5.304   8.177   1.811
18159SOL    HW266132   5.291   8.088   1.674
18160SOL     OW66133   4.769   0.512   3.875
18160SOL    HW166134   4.757   0.428   3.928
18160SOL    HW266135   4.802   0.584   3.936
18161SOL     OW66136   0.080   6.993   7.324
18161SOL    HW166137   0.031   6.978   7.237
18161SOL    HW266138   0.031   7.062   7.378
18162SOL     OW66139   6.626   1.571   6.036
18162SOL    HW166140   6.725   1.565   6.022
18162SOL    HW266141   6.586   1.630   5.966
18163SOL     OW66142   9.594   7.174   7.921
18163SOL    HW166143   9.550   7.239   7.982
18163SOL    HW266144   9.655   7.223   7.859
18164SOL     OW66145   8.350   2.689   4.280
18164SOL    HW166146   8.310   2.698   4.371
18164SOL    HW266147   8.356   2.592   4.256
18165SOL     OW66148   5.927   9.181   5.730
18165SOL    HW166149   5.965   9.092   5.704
18165SOL    HW266150   5.858   9.209   5.663
18166SOL     OW66151   8.013   5.723   0.933
18166SOL    HW166152   7.919   5.694   0.917
18166SOL    HW266153   8.067   5.708   0.850
18167SOL     OW66154   1.797   3.239   4.080
18167SOL    HW166155   1.839   3.200   4.161
18167SOL    HW266156   1.869   3.270   4.017
18168SOL     OW66157   2.943   3.738   6.286
18168SOL    HW166158   2.895   3.720   6.200
18168SOL    HW266159   3.030   3.784   6.266
18169SOL     OW66160   5.092   7.390   4.759
18169SOL    HW166161   5.035   7.324   4.711
18169SOL    HW266162   5.058   7.404   4.852
18170SOL     OW66163   7.743   6.346   6.838
18170SOL    HW166164   7.678   6.315   6.907
18170SOL    HW266165   7.707   6.428   6.794
18171SOL     OW66166   7.925   6.847   6.512
18171SOL    HW166167   7.944   6.943   6.531
18171SOL    HW266168   7.979   6.817   6.434
18172SOL     OW66169   4.003   0.480   2.549
18172SOL    HW166170   3.950   0.400   2.520
18172SOL    HW266171   3.963   0.563   2.509
18173SOL     OW66172   4.011   9.273   0.096
18173SOL    HW166173   4.061   9.328   0.162
18173SOL    HW266174   3.913   9.292   0.104
18174SOL     OW66175   7.114   6.211   7.495
18174SOL    HW166176   7.180   6.170   7.432
18174SOL    HW266177   7.156   6.289   7.541
18175SOL     OW66178   7.345   7.595   4.981
18175SOL    HW166179   7.426   7.638   5.021
18175SOL    HW266180   7.341   7.499   5.009
18176SOL     OW66181   4.701   8.115   6.246
18176SOL    HW166182   4.664   8.081   6.332
18176SOL    HW266183   4.773   8.053   6.213
18177SOL     OW66184   7.072   3.273   4.256
18177SOL    HW166185   7.110   3.188   4.294
18177SOL    HW266186   7.021   3.321   4.327
18178SOL     OW66187   6.394   3.693   1.271
18178SOL    HW166188   6.436   3.641   1.346
18178SOL    HW266189   6.323   3.637   1.229
18179SOL     OW66190   8.258   9.433   4.653
18179SOL    HW166191   8.164   9.422   4.685
18179SOL    HW266192   8.272   9.379   4.570
18180SOL     OW66193   7.154   9.897   4.518
18180SOL    HW166194   7.200   9.809   4.528
18180SOL    HW266195   7.055   9.883   4.514
18181SOL     OW66196   4.242   4.766   3.172
18181SOL    HW166197   4.190   4.827   3.232
18181SOL    HW266198   4.243   4.804   3.079
18182SOL     OW66199   5.658   0.247   5.505
18182SOL    HW166200   5.684   0.323   5.445
18182SOL    HW266201   5.576   0.272   5.556
18183SOL     OW66202   0.403   6.397   0.552
18183SOL    HW166203   0.304   6.400   0.537
18183SOL    HW266204   0.422   6.362   0.644
18184SOL     OW66205   6.412   8.419   4.377
18184SOL    HW166206   6.455   8.347   4.323
18184SOL    HW266207   6.327   8.449   4.332
18185SOL     OW66208   9.029   5.345   5.541
18185SOL    HW166209   8.977   5.317   5.460
18185SOL    HW266210   8.970   5.344   5.621
18186SOL     OW66211   3.002   3.289   3.174
18186SOL    HW166212   3.089   3.288   3.124
18186SOL    HW266213   2.990   3.378   3.218
18187SOL     OW66214   7.090   7.718   2.028
18187SOL    HW166215   7.166   7.724   2.093
18187SOL    HW266216   7.014   7.669   2.070
18188SOL     OW66217   2.857   0.874   3.774
18188SOL    HW166218   2.765   0.844   3.797
18188SOL    HW266219   2.876   0.961   3.821
18189SOL     OW66220   2.684   3.008   2.648
18189SOL    HW166221   2.691   3.096   2.695
18189SOL    HW266222   2.611   2.953   2.690
18190SOL     OW66223   0.566   6.147   0.233
18190SOL    HW166224   0.576   6.129   0.331
18190SOL    HW266225   0.564   6.246   0.218
18191SOL     OW66226   0.043   7.582   3.909
18191SOL    HW166227   0.092   7.528   3.840
18191SOL    HW266228   9.975   7.640   3.863
18192SOL     OW66229   3.495   1.166   6.454
18192SOL    HW166230   3.561   1.196   6.384
18192SOL    HW266231   3.453   1.080   6.424
18193SOL     OW66232   2.691   3.366   6.332
18193SOL    HW166233   2.641   3.444   6.371
18193SOL    HW266234   2.712   3.385   6.236
18194SOL     OW66235   1.521   3.766   3.751
18194SOL    HW166236   1.599   3.735   3.806
18194SOL    HW266237   1.535   3.740   3.656
18195SOL     OW66238   4.003   1.389   6.188
18195SOL    HW166239   3.954   1.332   6.254
18195SOL    HW266240   3.981   1.359   6.096
18196SOL     OW66241   2.323   5.385   3.746
18196SOL    HW166242   2.392   5.313   3.744
18196SOL    HW266243   2.296   5.408   3.652
18197SOL     OW66244   8.017   0.842   2.006
18197SOL    HW166245   8.100   0.847   2.061
18197SOL    HW266246   7.942   0.806   2.062
18198SOL     OW66247   7.099   3.705   2.802
18198SOL    HW166248   7.077   3.696   2.705
18198SOL    HW266249   7.065   3.624   2.851
18199SOL     OW66250   4.139   0.359   5.776
18199SOL    HW166251   4.101   0.449   5.753
18199SOL    HW266252   4.223   0.371   5.829
18200SOL     OW66253   3.628   2.950   5.726
18200SOL    HW166254   3.666   3.025   5.670
18200SOL    HW266255   3.703   2.901   5.770
18201SOL     OW66256   7.832   9.702   3.589
18201SOL    HW166257   7.774   9.693   3.508
18201SOL    HW266258   7.777   9.738   3.665
18202SOL     OW66259   2.754   6.059   1.370
18202SOL    HW166260   2.851   6.077   1.387
18202SOL    HW266261   2.745   5.999   1.290
18203SOL     OW66262   8.115   8.139   1.424
18203SOL    HW166263   8.073   8.111   1.510
18203SOL    HW266264   8.205   8.180   1.442
18204SOL     OW66265   4.304   6.865   3.543
18204SOL    HW166266   4.260   6.813   3.615
18204SOL    HW266267   4.292   6.819   3.455
18205SOL     OW66268   0.383   1.469   3.658
18205SOL    HW166269   0.323   1.422   3.723
18205SOL    HW266270   0.342   1.466   3.567
18206SOL     OW66271   9.604   4.176   1.043
18206SOL    HW166272   9.576   4.263   1.084
18206SOL    HW266273   9.658   4.124   1.109
18207SOL     OW66274   5.336   0.708   7.827
18207SOL    HW166275   5.290   0.710   7.916
18207SOL    HW266276   5.334   0.615   7.791
18208SOL     OW66277   3.971   0.543   4.035
18208SOL    HW166278   4.010   0.521   3.946
18208SOL    HW266279   3.989   0.639   4.057
18209SOL     OW66280   7.744   0.925   0.572
18209SOL    HW166281   7.669   0.884   0.624
18209SOL    HW266282   7.714   0.943   0.479
18210SOL     OW66283   7.424   5.129   0.783
18210SOL    HW166284   7.388   5.073   0.707
18210SOL    HW266285   7.523   5.142   0.770
18211SOL     OW66286   9.387   2.698   6.105
18211SOL    HW166287   9.290   2.686   6.129
18211SOL    HW266288   9.444   2.665   6.179
18212SOL     OW66289   2.388   8.347   2.839
18212SOL    HW166290   2.400   8.446   2.840
18212SOL    HW266291   2.302   8.325   2.793
18213SOL     OW66292   8.045   9.409   2.910
18213SOL    HW166293   7.967   9.348   2.924
18213SOL    HW266294   8.109   9.366   2.847
18214SOL     OW66295   0.505   6.650   4.673
18214SOL    HW166296   0.533   6.566   4.626
18214SOL    HW266297   0.572   6.671   4.745
18215SOL     OW66298   8.078   6.975   7.342
18215SOL    HW166299   8.131   6.978   7.258
18215SOL    HW266300   8.014   6.898   7.339
18216SOL     OW66301   4.781   4.650   0.134
18216SOL    HW166302   4.853   4.582   0.143
18216SOL    HW266303   4.793   4.721   0.204
18217SOL     OW66304   2.531   1.114   4.772
18217SOL    HW166305   2.482   1.117   4.859
18217SOL    HW266306   2.614   1.169   4.777
18218SOL     OW66307   4.423   1.674   0.234
18218SOL    HW166308   4.348   1.736   0.258
18218SOL    HW266309   4.505   1.727   0.211
18219SOL     OW66310   7.564   4.258   2.308
18219SOL    HW166311   7.509   4.179   2.335
18219SOL    HW266312   7.543   4.335   2.367
18220SOL     OW66313   9.048   9.290   2.607
18220SOL    HW166314   9.030   9.301   2.705
18220SOL    HW266315   8.967   9.256   2.561
18221SOL     OW66316   6.269   8.481   7.307
18221SOL    HW166317   6.185   8.514   7.265
18221SOL    HW266318   6.335   8.458   7.236
18222SOL     OW66319   0.920   6.426   3.141
18222SOL    HW166320   0.900   6.430   3.043
18222SOL    HW266321   0.973   6.343   3.160
18223SOL     OW66322   1.243   4.047   7.598
18223SOL    HW166323   1.186   3.968   7.621
18223SOL    HW266324   1.318   4.018   7.538
18224SOL     OW66325   3.948   1.564   1.596
18224SOL    HW166326   3.986   1.588   1.507
18224SOL    HW266327   3.999   1.611   1.668
18225SOL     OW66328   9.023   1.990   1.557
18225SOL    HW166329   8.937   1.999   1.507
18225SOL    HW266330   9.092   2.051   1.515
18226SOL     OW66331   2.741   6.862   3.392
18226SOL    HW166332   2.662   6.845   3.333
18226SOL    HW266333   2.718   6.932   3.460
18227SOL     OW66334   2.011   5.363   1.824
18227SOL    HW166335   2.058   5.337   1.740
18227SOL    HW266336   1.931   5.418   1.801
18228SOL     OW66337   8.464   0.128   7.633
18228SOL    HW166338   8.552   0.175   7.627
18228SOL    HW266339   8.440   0.091   7.544
18229SOL     OW66340   1.434   6.774   5.478
18229SOL    HW166341   1.457   6.762   5.382
18229SOL    HW266342   1.434   6.871   5.502
18230SOL     OW66343   3.063   0.909   5.965
18230SOL    HW166344   3.100   0.818   5.947
18230SOL    HW266345   3.110   0.949   6.044
18231SOL     OW66346   5.003   5.250   2.020
18231SOL    HW166347   4.969   5.268   2.112
18231SOL    HW266348   4.940   5.187   1.974
18232SOL     OW66349   0.350   3.790   4.496
18232SOL    HW166350   0.427   3.735   4.528
18232SOL    HW266351   0.291   3.734   4.438
18233SOL     OW66352   0.757   2.147   1.344
18233SOL    HW166353   0.719   2.167   1.434
18233SOL    HW266354   0.837   2.206   1.328
18234SOL     OW66355   2.076   3.128   2.162
18234SOL    HW166356   2.144   3.126   2.236
18234SOL    HW266357   2.087   3.046   2.105
18235SOL     OW66358   6.592   0.477   3.054
18235SOL    HW166359   6.600   0.467   2.955
18235SOL    HW266360   6.503   0.443   3.084
18236SOL     OW66361   9.922   8.084   6.217
18236SOL    HW166362   9.858   8.161   6.220
18236SOL    HW266363   9.957   8.072   6.124
18237SOL     OW66364   6.838   8.422   6.211
18237SOL    HW166365   6.906   8.411   6.138
18237SOL    HW266366   6.755   8.464   6.175
18238SOL     OW66367   7.832   2.145   1.658
18238SOL    HW166368   7.855   2.108   1.568
18238SOL    HW266369   7.768   2.221   1.647
18239SOL     OW66370   9.302   4.363   6.723
18239SOL    HW166371   9.324   4.287   6.785
18239SOL    HW266372   9.385   4.392   6.675
18240SOL     OW66373   4.952   1.793   6.996
18240SOL    HW166374   4.871   1.852   6.987
18240SOL    HW266375   4.960   1.761   7.091
18241SOL     OW66376   8.233   9.805   6.077
18241SOL    HW166377   8.221   9.799   5.978
18241SOL    HW266378   8.263   9.897   6.102
18242SOL     OW66379   1.465   6.591   5.932
18242SOL    HW166380   1.561   6.607   5.908
18242SOL    HW266381   1.451   6.612   6.029
18243SOL     OW66382   7.953   4.355   7.912
18243SOL    HW166383   7.891   4.386   7.841
18243SOL    HW266384   7.908   4.361   8.001
18244SOL     OW66385   1.089   6.681   1.788
18244SOL    HW166386   1.102   6.587   1.819
18244SOL    HW266387   1.005   6.688   1.735
18245SOL     OW66388   7.064   7.024   2.562
18245SOL    HW166389   7.073   6.963   2.484
18245SOL    HW266390   7.040   6.971   2.644
18246SOL     OW66391   2.213   0.393   1.036
18246SOL    HW166392   2.223   0.310   0.981
18246SOL    HW266393   2.288   0.398   1.102
18247SOL     OW66394   3.351   1.704   4.404
18247SOL    HW166395   3.300   1.777   4.449
18247SOL    HW266396   3.350   1.622   4.461
18248SOL     OW66397   3.987   6.033   7.332
18248SOL    HW166398   3.931   6.105   7.290
18248SOL    HW266399   4.051   6.074   7.397
18249SOL     OW66400   1.648   8.162   0.778
18249SOL    HW166401   1.595   8.245   0.762
18249SOL    HW266402   1.651   8.143   0.877
18250SOL     OW66403   0.992   0.711   3.243
18250SOL    HW166404   1.062   0.640   3.234
18250SOL    HW266405   1.036   0.801   3.248
18251SOL     OW66406   1.543   3.364   2.579
18251SOL    HW166407   1.622   3.417   2.548
18251SOL    HW266408   1.547   3.272   2.542
18252SOL     OW66409   1.934   9.371   5.219
18252SOL    HW166410   1.874   9.422   5.280
18252SOL    HW266411   1.986   9.303   5.272
18253SOL     OW66412   8.806   5.267   0.592
18253SOL    HW166413   8.713   5.289   0.565
18253SOL    HW266414   8.866   5.272   0.513
18254SOL     OW66415   6.342   5.228   0.534
18254SOL    HW166416   6.285   5.300   0.574
18254SOL    HW266417   6.284   5.151   0.507
18255SOL     OW66418   1.640   3.879   5.525
18255SOL    HW166419   1.550   3.852   5.558
18255SOL    HW266420   1.697   3.798   5.513
18256SOL     OW66421   2.857   5.164   7.035
18256SOL    HW166422   2.904   5.076   7.031
18256SOL    HW266423   2.899   5.227   6.971
18257SOL     OW66424   3.600   8.904   0.149
18257SOL    HW166425   3.542   8.914   0.230
18257SOL    HW266426   3.544   8.877   0.071
18258SOL     OW66427   4.181   9.831   4.505
18258SOL    HW166428   4.190   9.852   4.602
18258SOL    HW266429   4.252   9.766   4.477
18259SOL     OW66430   0.193   5.732   5.179
18259SOL    HW166431   0.164   5.793   5.252
18259SOL    HW266432   0.242   5.785   5.109
18260SOL     OW66433   3.392   2.422   4.714
18260SOL    HW166434   3.490   2.441   4.710
18260SOL    HW266435   3.352   2.433   4.622
18261SOL     OW66436   9.156   3.441   3.942
18261SOL    HW166437   9.193   3.474   4.030
18261SOL    HW266438   9.068   3.398   3.958
18262SOL     OW66439   2.519   1.120   1.712
18262SOL    HW166440   2.603   1.119   1.766
18262SOL    HW266441   2.445   1.160   1.766
18263SOL     OW66442   2.036   1.636   6.445
18263SOL    HW166443   1.978   1.603   6.369
18263SOL    HW266444   1.978   1.680   6.513
18264SOL     OW66445   6.113   1.187   0.471
18264SOL    HW166446   6.206   1.157   0.451
18264SOL    HW266447   6.115   1.264   0.535
18265SOL     OW66448   0.614   6.928   6.336
18265SOL    HW166449   0.623   6.829   6.334
18265SOL    HW266450   0.697   6.970   6.297
18266SOL     OW66451   9.482   4.818   3.936
18266SOL    HW166452   9.402   4.853   3.889
18266SOL    HW266453   9.527   4.893   3.985
18267SOL     OW66454   3.101   5.063   0.469
18267SOL    HW166455   3.078   5.091   0.562
18267SOL    HW266456   3.074   4.968   0.456
18268SOL     OW66457   2.111   3.743   1.967
18268SOL    HW166458   2.202   3.726   2.006
18268SOL    HW266459   2.046   3.677   2.005
18269SOL     OW66460   1.358   9.776   5.709
18269SOL    HW166461   1.387   9.680   5.708
18269SOL    HW266462   1.378   9.816   5.799
18270SOL     OW66463   4.083   9.617   2.889
18270SOL    HW166464   4.136   9.538   2.858
18270SOL    HW266465   4.007   9.634   2.826
18271SOL     OW66466   7.481   4.053   1.686
18271SOL    HW166467   7.491   3.996   1.767
18271SOL    HW266468   7.556   4.119   1.683
18272SOL     OW66469   9.308   3.774   0.014
18272SOL    HW166470   9.361   3.832   0.075
18272SOL    HW266471   9.360   3.692  10.073
18273SOL     OW66472   1.149   5.906   6.212
18273SOL    HW166473   1.151   5.968   6.290
18273SOL    HW266474   1.076   5.933   6.149
18274SOL     OW66475   2.500   3.956   3.046
18274SOL    HW166476   2.572   3.965   3.115
18274SOL    HW266477   2.455   3.867   3.058
18275SOL     OW66478   4.309   8.567   3.500
18275SOL    HW166479   4.361   8.482   3.494
18275SOL    HW266480   4.336   8.616   3.584
18276SOL     OW66481   9.452   1.959   7.800
18276SOL    HW166482   9.486   1.975   7.708
18276SOL    HW266483   9.481   1.869   7.832
18277SOL     OW66484   5.223   9.772   6.334
18277SOL    HW166485   5.266   9.732   6.415
18277SOL    HW266486   5.281   9.846   6.299
18278SOL     OW66487   2.114   8.768   4.764
18278SOL    HW166488   2.145   8.683   4.721
18278SOL    HW266489   2.014   8.772   4.762
18279SOL     OW66490   7.964   8.014   5.155
18279SOL    HW166491   8.045   8.017   5.214
18279SOL    HW266492   7.991   7.991   5.062
18280SOL     OW66493   8.860   6.013   6.791
18280SOL    HW166494   8.891   5.918   6.794
18280SOL    HW266495   8.940   6.074   6.795
18281SOL     OW66496   8.876   5.264   6.515
18281SOL    HW166497   8.972   5.244   6.535
18281SOL    HW266498   8.831   5.180   6.483
18282SOL     OW66499   1.525   4.628   3.981
18282SOL    HW166500   1.483   4.613   4.070
18282SOL    HW266501   1.561   4.542   3.946
18283SOL     OW66502   9.953   7.724   4.455
18283SOL    HW166503   9.967   7.702   4.359
18283SOL    HW266504   0.024   7.680   4.510
18284SOL     OW66505   7.198   8.174   4.094
18284SOL    HW166506   7.150   8.138   4.014
18284SOL    HW266507   7.295   8.150   4.087
18285SOL     OW66508   1.411   7.801   5.244
18285SOL    HW166509   1.359   7.776   5.162
18285SOL    HW266510   1.423   7.900   5.247
18286SOL     OW66511   7.723   2.809   3.540
18286SOL    HW166512   7.685   2.717   3.536
18286SOL    HW266513   7.731   2.838   3.635
18287SOL     OW66514   3.389   3.703   4.862
18287SOL    HW166515   3.345   3.680   4.949
18287SOL    HW266516   3.382   3.801   4.847
18288SOL     OW66517   0.498   9.828   3.129
18288SOL    HW166518   0.504   9.815   3.030
18288SOL    HW266519   0.477   9.924   3.148
18289SOL     OW66520   4.701   9.508   2.815
18289SOL    HW166521   4.625   9.536   2.757
18289SOL    HW266522   4.666   9.483   2.905
18290SOL     OW66523   3.147   1.694   7.707
18290SOL    HW166524   3.129   1.749   7.625
18290SOL    HW266525   3.070   1.633   7.724
18291SOL     OW66526   6.577   0.542   2.401
18291SOL    HW166527   6.532   0.585   2.323
18291SOL    HW266528   6.515   0.540   2.479
18292SOL     OW66529   0.648   1.246   6.318
18292SOL    HW166530   0.599   1.165   6.352
18292SOL    HW266531   0.607   1.276   6.232
18293SOL     OW66532   7.839   8.839   1.515
18293SOL    HW166533   7.803   8.750   1.543
18293SOL    HW266534   7.793   8.911   1.568
18294SOL     OW66535   1.579   2.101   2.544
18294SOL    HW166536   1.527   2.016   2.551
18294SOL    HW266537   1.676   2.084   2.561
18295SOL     OW66538   1.938   6.834   4.463
18295SOL    HW166539   1.845   6.809   4.490
18295SOL    HW266540   1.971   6.767   4.396
18296SOL     OW66541   4.982   1.531   0.163
18296SOL    HW166542   5.016   1.619   0.197
18296SOL    HW266543   5.059   1.477   0.128
18297SOL     OW66544   9.166   9.582   6.594
18297SOL    HW166545   9.118   9.657   6.548
18297SOL    HW266546   9.122   9.496   6.572
18298SOL     OW66547   6.529   2.495   1.197
18298SOL    HW166548   6.598   2.509   1.268
18298SOL    HW266549   6.505   2.584   1.157
18299SOL     OW66550   8.090   3.618   3.984
18299SOL    HW166551   8.138   3.536   4.013
18299SOL    HW266552   8.141   3.663   3.910
18300SOL     OW66553   9.785   0.529   2.450
18300SOL    HW166554   9.804   0.521   2.352
18300SOL    HW266555   9.871   0.533   2.501
18301SOL     OW66556   9.772   0.771   4.019
18301SOL    HW166557   9.859   0.722   4.011
18301SOL    HW266558   9.731   0.782   3.928
18302SOL     OW66559   7.759   4.224   2.571
18302SOL    HW166560   7.721   4.235   2.663
18302SOL    HW266561   7.730   4.136   2.534
18303SOL     OW66562   1.967   8.920   4.364
18303SOL    HW166563   2.055   8.875   4.355
18303SOL    HW266564   1.938   8.954   4.275
18304SOL     OW66565   2.669   3.668   5.599
18304SOL    HW166566   2.710   3.617   5.523
18304SOL    HW266567   2.719   3.753   5.613
18305SOL     OW66568   9.375   6.714   4.011
18305SOL    HW166569   9.355   6.747   4.104
18305SOL    HW266570   9.468   6.676   4.009
18306SOL     OW66571   4.954   8.169   2.738
18306SOL    HW166572   4.859   8.169   2.767
18306SOL    HW266573   4.959   8.175   2.639
18307SOL     OW66574   7.783   1.527   3.042
18307SOL    HW166575   7.756   1.469   3.118
18307SOL    HW266576   7.869   1.574   3.064
18308SOL     OW66577   8.882   7.018   5.337
18308SOL    HW166578   8.819   7.047   5.264
18308SOL    HW266579   8.939   6.944   5.304
18309SOL     OW66580   1.018   1.806   1.092
18309SOL    HW166581   0.934   1.841   1.133
18309SOL    HW266582   1.038   1.857   1.009
18310SOL     OW66583   7.805   5.833   1.380
18310SOL    HW166584   7.791   5.771   1.303
18310SOL    HW266585   7.728   5.826   1.443
18311SOL     OW66586   0.627   2.779   3.540
18311SOL    HW166587   0.665   2.705   3.594
18311SOL    HW266588   0.532   2.795   3.567
18312SOL     OW66589   0.246   7.013   2.520
18312SOL    HW166590   0.291   6.949   2.457
18312SOL    HW266591   0.301   7.096   2.527
18313SOL     OW66592   8.812   3.849   5.836
18313SOL    HW166593   8.882   3.802   5.781
18313SOL    HW266594   8.855   3.890   5.916
18314SOL     OW66595   8.038   9.447   6.100
18314SOL    HW166596   8.030   9.537   6.143
18314SOL    HW266597   8.113   9.449   6.033
18315SOL     OW66598   4.052   7.864   2.232
18315SOL    HW166599   4.107   7.787   2.199
18315SOL    HW266600   4.033   7.853   2.329
18316SOL     OW66601   0.021   8.550   0.067
18316SOL    HW166602   0.062   8.638   0.092
18316SOL    HW266603   0.063   8.515  10.065
18317SOL     OW66604   5.710   8.337   4.610
18317SOL    HW166605   5.680   8.273   4.682
18317SOL    HW266606   5.802   8.314   4.581
18318SOL     OW66607   7.551   7.400   7.504
18318SOL    HW166608   7.621   7.419   7.573
18318SOL    HW266609   7.493   7.481   7.492
18319SOL     OW66610   0.163   9.124   2.423
18319SOL    HW166611   0.127   9.192   2.359
18319SOL    HW266612   0.253   9.094   2.394
18320SOL     OW66613   5.783   1.740   5.122
18320SOL    HW166614   5.843   1.722   5.201
18320SOL    HW266615   5.689   1.720   5.147
18321SOL     OW66616   1.937   5.195   0.301
18321SOL    HW166617   1.977   5.159   0.217
18321SOL    HW266618   1.861   5.256   0.278
18322SOL     OW66619   2.209   9.906   0.136
18322SOL    HW166620   2.239   9.884   0.043
18322SOL    HW266621   2.114   9.877   0.148
18323SOL     OW66622   9.027   1.246   0.079
18323SOL    HW166623   9.076   1.178   0.133
18323SOL    HW266624   9.074   1.258  10.073
18324SOL     OW66625   3.410   7.605   5.680
18324SOL    HW166626   3.506   7.621   5.702
18324SOL    HW266627   3.391   7.507   5.686
18325SOL     OW66628   8.615   9.454   5.393
18325SOL    HW166629   8.582   9.468   5.300
18325SOL    HW266630   8.708   9.419   5.390
18326SOL     OW66631   5.713   9.316   7.612
18326SOL    HW166632   5.686   9.393   7.670
18326SOL    HW266633   5.775   9.350   7.540
18327SOL     OW66634   6.941   2.188   2.263
18327SOL    HW166635   7.020   2.184   2.324
18327SOL    HW266636   6.970   2.224   2.175
18328SOL     OW66637   7.926   6.462   1.748
18328SOL    HW166638   7.896   6.515   1.669
18328SOL    HW266639   8.017   6.424   1.730
18329SOL     OW66640   7.834   5.862   0.545
18329SOL    HW166641   7.872   5.783   0.594
18329SOL    HW266642   7.906   5.905   0.491
18330SOL     OW66643   8.310   4.523   0.148
18330SOL    HW166644   8.215   4.535   0.174
18330SOL    HW266645   8.366   4.511   0.230
18331SOL     OW66646   1.598   2.357   2.430
18331SOL    HW166647   1.585   2.263   2.462
18331SOL    HW266648   1.641   2.356   2.340
18332SOL     OW66649   8.259   4.078   7.881
18332SOL    HW166650   8.216   4.139   7.815
18332SOL    HW266651   8.257   4.120   7.972
18333SOL     OW66652   4.274   7.281   3.719
18333SOL    HW166653   4.302   7.241   3.631
18333SOL    HW266654   4.176   7.300   3.717
18334SOL     OW66655   9.844   1.689   3.896
18334SOL    HW166656   9.851   1.600   3.850
18334SOL    HW266657   9.858   1.762   3.830
18335SOL     OW66658   9.409   0.545   6.099
18335SOL    HW166659   9.349   0.624   6.117
18335SOL    HW266660   9.504   0.575   6.100
18336SOL     OW66661   6.472   9.024   3.431
18336SOL    HW166662   6.546   9.056   3.372
18336SOL    HW266663   6.459   9.089   3.506
18337SOL     OW66664   4.555   4.820   7.686
18337SOL    HW166665   4.653   4.811   7.702
18337SOL    HW266666   4.537   4.814   7.588
18338SOL     OW66667   9.573   1.074   1.646
18338SOL    HW166668   9.567   1.001   1.714
18338SOL    HW266669   9.622   1.152   1.686
18339SOL     OW66670   0.718   4.076   0.386
18339SOL    HW166671   0.701   3.978   0.388
18339SOL    HW266672   0.754   4.102   0.296
18340SOL     OW66673   4.768   7.829   4.846
18340SOL    HW166674   4.749   7.927   4.850
18340SOL    HW266675   4.848   7.813   4.787
18341SOL     OW66676   2.237   3.947   0.935
18341SOL    HW166677   2.147   3.912   0.960
18341SOL    HW266678   2.236   3.975   0.839
18342SOL     OW66679   4.021   5.946   3.334
18342SOL    HW166680   3.937   5.998   3.348
18342SOL    HW266681   4.073   5.940   3.419
18343SOL     OW66682   9.859   3.120   0.798
18343SOL    HW166683   9.909   3.119   0.884
18343SOL    HW266684   9.799   3.041   0.792
18344SOL     OW66685   1.350   1.299   4.202
18344SOL    HW166686   1.398   1.384   4.182
18344SOL    HW266687   1.355   1.239   4.122
18345SOL     OW66688   3.587   1.596   5.444
18345SOL    HW166689   3.493   1.629   5.453
18345SOL    HW266690   3.626   1.630   5.359
18346SOL     OW66691   1.634   9.460   1.202
18346SOL    HW166692   1.715   9.465   1.143
18346SOL    HW266693   1.608   9.553   1.230
18347SOL     OW66694   2.761   5.961   7.413
18347SOL    HW166695   2.683   5.902   7.430
18347SOL    HW266696   2.840   5.906   7.385
18348SOL     OW66697   8.557   9.419   5.822
18348SOL    HW166698   8.512   9.330   5.817
18348SOL    HW266699   8.643   9.417   5.771
18349SOL     OW66700   2.908   8.297   7.146
18349SOL    HW166701   2.969   8.221   7.122
18349SOL    HW266702   2.847   8.269   7.220
18350SOL     OW66703   2.102   0.647   3.056
18350SOL    HW166704   2.138   0.628   2.965
18350SOL    HW266705   2.042   0.572   3.085
18351SOL     OW66706   6.479   5.415   7.770
18351SOL    HW166707   6.414   5.394   7.697
18351SOL    HW266708   6.535   5.334   7.788
18352SOL     OW66709   3.585   8.300   7.746
18352SOL    HW166710   3.610   8.225   7.685
18352SOL    HW266711   3.665   8.329   7.799
18353SOL     OW66712   4.099   8.574   1.013
18353SOL    HW166713   4.061   8.663   1.040
18353SOL    HW266714   4.099   8.568   0.913
18354SOL     OW66715   1.532   7.302   0.589
18354SOL    HW166716   1.493   7.298   0.497
18354SOL    HW266717   1.488   7.234   0.648
18355SOL     OW66718   3.965   7.650   0.348
18355SOL    HW166719   3.927   7.605   0.429
18355SOL    HW266720   3.947   7.593   0.268
18356SOL     OW66721   0.854   6.938   6.655
18356SOL    HW166722   0.755   6.951   6.652
18356SOL    HW266723   0.875   6.849   6.696
18357SOL     OW66724   1.503   5.917   2.124
18357SOL    HW166725   1.559   5.884   2.200
18357SOL    HW266726   1.469   6.009   2.146
18358SOL     OW66727   0.064   2.631   3.459
18358SOL    HW166728   0.143   2.620   3.399
18358SOL    HW266729   9.983   2.653   3.405
18359SOL     OW66730   1.947   5.102   3.398
18359SOL    HW166731   1.932   5.020   3.342
18359SOL    HW266732   2.044   5.112   3.417
18360SOL     OW66733   3.154   1.452   4.094
18360SOL    HW166734   3.246   1.412   4.097
18360SOL    HW266735   3.110   1.441   4.183
18361SOL     OW66736   7.110   4.480   7.858
18361SOL    HW166737   7.102   4.574   7.824
18361SOL    HW266738   7.021   4.447   7.889
18362SOL     OW66739   4.458   1.632   7.458
18362SOL    HW166740   4.395   1.662   7.530
18362SOL    HW266741   4.406   1.616   7.374
18363SOL     OW66742   9.196   1.379   7.746
18363SOL    HW166743   9.102   1.361   7.777
18363SOL    HW266744   9.218   1.317   7.670
18364SOL     OW66745   1.893   6.856   2.741
18364SOL    HW166746   1.803   6.868   2.782
18364SOL    HW266747   1.963   6.867   2.811
18365SOL     OW66748   7.840   0.345   2.764
18365SOL    HW166749   7.755   0.324   2.716
18365SOL    HW266750   7.916   0.343   2.699
18366SOL     OW66751   6.368   8.884   6.066
18366SOL    HW166752   6.466   8.878   6.087
18366SOL    HW266753   6.319   8.916   6.146
18367SOL     OW66754   2.115   2.336   0.233
18367SOL    HW166755   2.192   2.285   0.197
18367SOL    HW266756   2.054   2.363   0.157
18368SOL     OW66757   2.643   9.106   7.502
18368SOL    HW166758   2.715   9.116   7.570
18368SOL    HW266759   2.638   9.011   7.472
18369SOL     OW66760   7.426   1.452   4.366
18369SOL    HW166761   7.520   1.461   4.332
18369SOL    HW266762   7.362   1.473   4.293
18370SOL     OW66763   6.011   0.381   1.219
18370SOL    HW166764   6.020   0.395   1.318
18370SOL    HW266765   5.939   0.314   1.201
18371SOL     OW66766   4.744   2.798   7.331
18371SOL    HW166767   4.719   2.704   7.311
18371SOL    HW266768   4.683   2.835   7.402
18372SOL     OW66769   1.843   7.317   1.212
18372SOL    HW166770   1.784   7.268   1.148
18372SOL    HW266771   1.909   7.372   1.161
18373SOL     OW66772   1.965   6.515   5.831
18373SOL    HW166773   2.031   6.444   5.857
18373SOL    HW266774   2.001   6.605   5.856
18374SOL     OW66775   0.063   3.266   0.213
18374SOL    HW166776   0.078   3.206   0.292
18374SOL    HW266777   0.083   3.361   0.239
18375SOL     OW66778   9.911   6.466   3.140
18375SOL    HW166779   9.833   6.507   3.187
18375SOL    HW266780   9.878   6.392   3.080
18376SOL     OW66781   1.970   6.353   6.134
18376SOL    HW166782   2.030   6.344   6.055
18376SOL    HW266783   1.958   6.450   6.156
18377SOL     OW66784   0.612   5.587   1.311
18377SOL    HW166785   0.554   5.550   1.383
18377SOL    HW266786   0.663   5.513   1.268
18378SOL     OW66787   3.146   4.665   1.424
18378SOL    HW166788   3.127   4.572   1.390
18378SOL    HW266789   3.181   4.721   1.349
18379SOL     OW66790   4.335   7.650   3.576
18379SOL    HW166791   4.377   7.570   3.532
18379SOL    HW266792   4.309   7.626   3.669
18380SOL     OW66793   4.645   2.349   5.656
18380SOL    HW166794   4.683   2.440   5.670
18380SOL    HW266795   4.611   2.314   5.743
18381SOL     OW66796   6.532   4.928   1.091
18381SOL    HW166797   6.465   4.944   1.019
18381SOL    HW266798   6.580   5.014   1.111
18382SOL     OW66799   7.918   9.522   4.958
18382SOL    HW166800   7.837   9.475   4.993
18382SOL    HW266801   7.935   9.604   5.012
18383SOL     OW66802   6.001   0.176   1.858
18383SOL    HW166803   6.060   0.244   1.901
18383SOL    HW266804   6.052   0.091   1.843
18384SOL     OW66805   5.808   0.091   5.677
18384SOL    HW166806   5.764   0.158   5.617
18384SOL    HW266807   5.763   0.091   5.766
18385SOL     OW66808   0.910   0.685   1.667
18385SOL    HW166809   0.861   0.645   1.590
18385SOL    HW266810   0.845   0.726   1.731
18386SOL     OW66811   7.622   4.796   2.110
18386SOL    HW166812   7.642   4.781   2.207
18386SOL    HW266813   7.602   4.893   2.095
18387SOL     OW66814   2.576   3.208   1.618
18387SOL    HW166815   2.653   3.245   1.670
18387SOL    HW266816   2.547   3.275   1.549
18388SOL     OW66817   1.560   6.580   7.275
18388SOL    HW166818   1.571   6.505   7.210
18388SOL    HW266819   1.598   6.552   7.364
18389SOL     OW66820   9.298   1.930   3.524
18389SOL    HW166821   9.305   1.839   3.482
18389SOL    HW266822   9.225   1.929   3.593
18390SOL     OW66823   3.512   3.076   1.260
18390SOL    HW166824   3.532   2.979   1.273
18390SOL    HW266825   3.417   3.087   1.228
18391SOL     OW66826   9.663   4.634   1.799
18391SOL    HW166827   9.671   4.720   1.850
18391SOL    HW266828   9.754   4.597   1.781
18392SOL     OW66829   0.950   3.834   4.045
18392SOL    HW166830   0.883   3.850   4.118
18392SOL    HW266831   1.040   3.816   4.086
18393SOL     OW66832   7.148   3.451   0.739
18393SOL    HW166833   7.241   3.418   0.755
18393SOL    HW266834   7.141   3.547   0.765
18394SOL     OW66835   3.933   4.250   7.141
18394SOL    HW166836   3.855   4.266   7.201
18394SOL    HW266837   3.911   4.175   7.078
18395SOL     OW66838   2.813   2.567   0.955
18395SOL    HW166839   2.842   2.580   1.050
18395SOL    HW266840   2.782   2.473   0.942
18396SOL     OW66841   4.301   6.989   1.476
18396SOL    HW166842   4.252   6.932   1.410
18396SOL    HW266843   4.261   7.080   1.477
18397SOL     OW66844   9.968   4.518   0.626
18397SOL    HW166845   9.976   4.579   0.705
18397SOL    HW266846   9.906   4.559   0.559
18398SOL     OW66847   8.341   7.839   7.758
18398SOL    HW166848   8.279   7.904   7.802
18398SOL    HW266849   8.319   7.746   7.788
18399SOL     OW66850   4.859   8.897   5.430
18399SOL    HW166851   4.803   8.823   5.392
18399SOL    HW266852   4.951   8.864   5.447
18400SOL     OW66853   7.201   4.020   1.718
18400SOL    HW166854   7.298   4.028   1.696
18400SOL    HW266855   7.173   3.925   1.709
18401SOL     OW66856   3.961   3.669   4.396
18401SOL    HW166857   3.986   3.614   4.476
18401SOL    HW266858   4.035   3.664   4.329
18402SOL     OW66859   3.261   7.132   6.368
18402SOL    HW166860   3.216   7.182   6.294
18402SOL    HW266861   3.276   7.037   6.341
18403SOL     OW66862   1.792   6.057   7.939
18403SOL    HW166863   1.849   6.131   7.904
18403SOL    HW266864   1.850   5.979   7.963
18404SOL     OW66865   8.290   6.017   3.734
18404SOL    HW166866   8.383   6.049   3.751
18404SOL    HW266867   8.246   5.994   3.821
18405SOL     OW66868   5.606   4.958   0.952
18405SOL    HW166869   5.654   4.952   1.040
18405SOL    HW266870   5.658   5.018   0.890
18406SOL     OW66871   9.386   6.053   7.620
18406SOL    HW166872   9.439   6.047   7.536
18406SOL    HW266873   9.446   6.040   7.699
18407SOL     OW66874   9.215   7.413   5.908
18407SOL    HW166875   9.242   7.507   5.931
18407SOL    HW266876   9.234   7.396   5.811
18408SOL     OW66877   1.674   1.525   4.351
18408SOL    HW166878   1.580   1.549   4.373
18408SOL    HW266879   1.734   1.550   4.427
18409SOL     OW66880   0.600   6.410   4.588
18409SOL    HW166881   0.536   6.345   4.628
18409SOL    HW266882   0.669   6.361   4.535
18410SOL     OW66883   8.727   7.504   5.267
18410SOL    HW166884   8.753   7.589   5.221
18410SOL    HW266885   8.779   7.496   5.352
18411SOL     OW66886   6.303   3.770   0.801
18411SOL    HW166887   6.290   3.803   0.895
18411SOL    HW266888   6.214   3.751   0.760
18412SOL     OW66889   1.765   8.876   7.833
18412SOL    HW166890   1.819   8.915   7.908
18412SOL    HW266891   1.780   8.930   7.750
18413SOL     OW66892   2.558   6.662   2.095
18413SOL    HW166893   2.526   6.744   2.143
18413SOL    HW266894   2.485   6.627   2.036
18414SOL     OW66895   3.705   6.993   6.329
18414SOL    HW166896   3.666   6.901   6.335
18414SOL    HW266897   3.638   7.060   6.361
18415SOL     OW66898   2.258   4.812   7.827
18415SOL    HW166899   2.245   4.903   7.789
18415SOL    HW266900   2.290   4.819   7.922
18416SOL     OW66901   0.682   6.204   3.765
18416SOL    HW166902   0.612   6.139   3.794
18416SOL    HW266903   0.743   6.224   3.842
18417SOL     OW66904   8.780   1.126   0.163
18417SOL    HW166905   8.860   1.168   0.121
18417SOL    HW266906   8.774   1.155   0.259
18418SOL     OW66907   7.920   4.021   4.274
18418SOL    HW166908   7.863   4.091   4.232
18418SOL    HW266909   7.982   3.982   4.206
18419SOL     OW66910   4.951   3.560   1.706
18419SOL    HW166911   4.878   3.531   1.644
18419SOL    HW266912   4.969   3.488   1.772
18420SOL     OW66913   3.800   1.733   7.146
18420SOL    HW166914   3.895   1.742   7.115
18420SOL    HW266915   3.739   1.748   7.068
18421SOL     OW66916   0.595   0.418   5.751
18421SOL    HW166917   0.503   0.382   5.763
18421SOL    HW266918   0.660   0.342   5.743
18422SOL     OW66919   8.219   9.659   3.637
18422SOL    HW166920   8.278   9.623   3.565
18422SOL    HW266921   8.160   9.731   3.600
18423SOL     OW66922   7.438   5.548   0.990
18423SOL    HW166923   7.466   5.617   1.058
18423SOL    HW266924   7.402   5.468   1.037
18424SOL     OW66925   6.540   2.442   5.300
18424SOL    HW166926   6.512   2.503   5.226
18424SOL    HW266927   6.585   2.362   5.262
18425SOL     OW66928   2.083   8.127   7.471
18425SOL    HW166929   1.998   8.181   7.471
18425SOL    HW266930   2.106   8.102   7.378
18426SOL     OW66931   2.777   5.492   4.437
18426SOL    HW166932   2.677   5.484   4.438
18426SOL    HW266933   2.808   5.515   4.345
18427SOL     OW66934   7.790   8.933   2.230
18427SOL    HW166935   7.703   8.940   2.278
18427SOL    HW266936   7.865   8.931   2.296
18428SOL     OW66937   3.258   0.051   3.787
18428SOL    HW166938   3.230   9.963   3.825
18428SOL    HW266939   3.184   0.087   3.729
18429SOL     OW66940   4.193   1.950   6.387
18429SOL    HW166941   4.217   2.021   6.453
18429SOL    HW266942   4.160   1.869   6.436
18430SOL     OW66943   7.898   1.517   5.870
18430SOL    HW166944   7.850   1.483   5.951
18430SOL    HW266945   7.985   1.468   5.860
18431SOL     OW66946   3.155   7.663   4.076
18431SOL    HW166947   3.055   7.663   4.079
18431SOL    HW266948   3.186   7.730   4.008
18432SOL     OW66949   4.818   0.670   5.358
18432SOL    HW166950   4.742   0.734   5.347
18432SOL    HW266951   4.871   0.666   5.273
18433SOL     OW66952   8.158   9.147   6.922
18433SOL    HW166953   8.109   9.234   6.916
18433SOL    HW266954   8.256   9.165   6.910
18434SOL     OW66955   3.297   1.884   7.858
18434SOL    HW166956   3.241   1.815   7.812
18434SOL    HW266957   3.385   1.844   7.884
18435SOL     OW66958   8.245   0.424   5.175
18435SOL    HW166959   8.320   0.360   5.160
18435SOL    HW266960   8.184   0.423   5.096
18436SOL     OW66961   1.918   4.326   7.214
18436SOL    HW166962   1.871   4.400   7.260
18436SOL    HW266963   1.881   4.238   7.245
18437SOL     OW66964   2.139   7.190   6.229
18437SOL    HW166965   2.047   7.199   6.193
18437SOL    HW266966   2.195   7.267   6.198
18438SOL     OW66967   4.193   2.179   5.709
18438SOL    HW166968   4.247   2.095   5.719
18438SOL    HW266969   4.134   2.171   5.629
18439SOL     OW66970   3.308   9.125   2.742
18439SOL    HW166971   3.241   9.185   2.786
18439SOL    HW266972   3.369   9.086   2.811
18440SOL     OW66973   7.157   0.512   7.534
18440SOL    HW166974   7.071   0.509   7.586
18440SOL    HW266975   7.194   0.419   7.526
18441SOL     OW66976   9.338   6.158   1.593
18441SOL    HW166977   9.431   6.155   1.630
18441SOL    HW266978   9.302   6.065   1.585
18442SOL     OW66979   9.411   8.569   6.735
18442SOL    HW166980   9.369   8.497   6.679
18442SOL    HW266981   9.430   8.649   6.677
18443SOL     OW66982   7.784   7.526   5.393
18443SOL    HW166983   7.784   7.478   5.481
18443SOL    HW266984   7.699   7.578   5.384
18444SOL     OW66985   0.876   2.271   6.390
18444SOL    HW166986   0.812   2.249   6.317
18444SOL    HW266987   0.840   2.237   6.477
18445SOL     OW66988   5.580   7.955   2.637
18445SOL    HW166989   5.523   7.884   2.596
18445SOL    HW266990   5.667   7.916   2.666
18446SOL     OW66991   8.004   4.256   6.880
18446SOL    HW166992   7.999   4.284   6.785
18446SOL    HW266993   8.072   4.183   6.890
18447SOL     OW66994   4.558   1.874   5.592
18447SOL    HW166995   4.611   1.790   5.581
18447SOL    HW266996   4.620   1.952   5.590
18448SOL     OW66997   7.783   6.535   7.106
18448SOL    HW166998   7.814   6.626   7.076
18448SOL    HW266999   7.855   6.468   7.088
18449SOL     OW67000   7.209   3.200   3.612
18449SOL    HW167001   7.176   3.269   3.677
18449SOL    HW267002   7.274   3.242   3.550
18450SOL     OW67003   1.024   8.301   3.737
18450SOL    HW167004   1.011   8.203   3.752
18450SOL    HW267005   1.121   8.320   3.725
18451SOL     OW67006   6.833   0.467   2.422
18451SOL    HW167007   6.738   0.497   2.411
18451SOL    HW267008   6.883   0.484   2.338
18452SOL     OW67009   0.709   0.091   2.953
18452SOL    HW167010   0.783   0.044   2.905
18452SOL    HW267011   0.627   0.092   2.895
18453SOL     OW67012   6.073   0.088   5.335
18453SOL    HW167013   6.082   0.113   5.239
18453SOL    HW267014   5.977   0.068   5.356
18454SOL     OW67015   9.392   7.670   3.326
18454SOL    HW167016   9.340   7.754   3.306
18454SOL    HW267017   9.369   7.638   3.418
18455SOL     OW67018   7.773   5.679   4.845
18455SOL    HW167019   7.721   5.751   4.798
18455SOL    HW267020   7.804   5.612   4.778
18456SOL     OW67021   7.751   0.505   3.566
18456SOL    HW167022   7.812   0.582   3.585
18456SOL    HW267023   7.748   0.489   3.468
18457SOL     OW67024   6.528   6.198  10.077
18457SOL    HW167025   6.565   6.229   9.990
18457SOL    HW267026   6.428   6.199  10.074
18458SOL     OW67027   1.447   3.365   6.988
18458SOL    HW167028   1.490   3.367   6.897
18458SOL    HW267029   1.508   3.319   7.052
18459SOL     OW67030   1.875   0.963   7.550
18459SOL    HW167031   1.780   0.970   7.582
18459SOL    HW267032   1.919   1.052   7.557
18460SOL     OW67033   0.516   4.182   7.355
18460SOL    HW167034   0.429   4.223   7.329
18460SOL    HW267035   0.531   4.098   7.303
18461SOL     OW67036   1.920   7.243   0.330
18461SOL    HW167037   1.855   7.168   0.341
18461SOL    HW267038   2.011   7.213   0.360
18462SOL     OW67039   6.274   7.533   5.087
18462SOL    HW167040   6.341   7.469   5.124
18462SOL    HW267041   6.183   7.492   5.089
18463SOL     OW67042   3.091   7.890   1.240
18463SOL    HW167043   3.156   7.827   1.284
18463SOL    HW267044   3.061   7.958   1.306
18464SOL     OW67045   9.927   0.223   7.237
18464SOL    HW167046   9.926   0.143   7.298
18464SOL    HW267047   9.889   0.197   7.148
18465SOL     OW67048   5.225   1.606   4.761
18465SOL    HW167049   5.164   1.526   4.757
18465SOL    HW267050   5.203   1.668   4.685
18466SOL     OW67051   8.342   4.135   0.819
18466SOL    HW167052   8.435   4.168   0.832
18466SOL    HW267053   8.305   4.105   0.907
18467SOL     OW67054   3.575   8.694   4.323
18467SOL    HW167055   3.519   8.666   4.245
18467SOL    HW267056   3.671   8.676   4.304
18468SOL     OW67057   3.039   6.364   0.134
18468SOL    HW167058   3.112   6.432   0.122
18468SOL    HW267059   3.079   6.273   0.138
18469SOL     OW67060   5.568   5.659   1.937
18469SOL    HW167061   5.610   5.622   1.854
18469SOL    HW267062   5.468   5.654   1.929
18470SOL     OW67063   2.186   7.036   4.076
18470SOL    HW167064   2.121   7.110   4.059
18470SOL    HW267065   2.227   7.047   4.166
18471SOL     OW67066   4.089   1.207   0.536
18471SOL    HW167067   4.066   1.257   0.620
18471SOL    HW267068   4.179   1.237   0.504
18472SOL     OW67069   2.306   3.419   6.411
18472SOL    HW167070   2.242   3.494   6.428
18472SOL    HW267071   2.259   3.345   6.363
18473SOL     OW67072   1.116   8.588   1.624
18473SOL    HW167073   1.043   8.614   1.561
18473SOL    HW267074   1.204   8.609   1.582
18474SOL     OW67075   1.369   1.123   5.802
18474SOL    HW167076   1.301   1.178   5.851
18474SOL    HW267077   1.454   1.175   5.792
18475SOL     OW67078   5.366   4.422   7.755
18475SOL    HW167079   5.289   4.483   7.737
18475SOL    HW267080   5.336   4.349   7.817
18476SOL     OW67081   1.690   5.547   2.240
18476SOL    HW167082   1.780   5.509   2.259
18476SOL    HW267083   1.684   5.571   2.143
18477SOL     OW67084   4.964   3.958   7.765
18477SOL    HW167085   4.886   3.954   7.702
18477SOL    HW267086   4.955   3.884   7.832
18478SOL     OW67087   4.007   7.335   3.721
18478SOL    HW167088   3.986   7.390   3.641
18478SOL    HW267089   3.968   7.379   3.802
18479SOL     OW67090   3.029   6.903   7.231
18479SOL    HW167091   3.040   6.910   7.132
18479SOL    HW267092   2.991   6.813   7.254
18480SOL     OW67093   5.525   7.462   2.951
18480SOL    HW167094   5.611   7.433   2.995
18480SOL    HW267095   5.546   7.521   2.873
18481SOL     OW67096   4.680   0.919   6.593
18481SOL    HW167097   4.671   1.017   6.608
18481SOL    HW267098   4.766   0.886   6.635
18482SOL     OW67099   2.310   4.167   7.695
18482SOL    HW167100   2.350   4.100   7.757
18482SOL    HW267101   2.240   4.124   7.639
18483SOL     OW67102   1.801   0.199   7.163
18483SOL    HW167103   1.844   0.285   7.137
18483SOL    HW267104   1.797   0.139   7.083
18484SOL     OW67105   4.900   1.391   5.722
18484SOL    HW167106   4.885   1.316   5.657
18484SOL    HW267107   4.817   1.404   5.776
18485SOL     OW67108   8.696   7.287   3.869
18485SOL    HW167109   8.681   7.189   3.858
18485SOL    HW267110   8.789   7.303   3.902
18486SOL     OW67111   2.222   6.343   0.243
18486SOL    HW167112   2.179   6.417   0.191
18486SOL    HW267113   2.300   6.307   0.191
18487SOL     OW67114   8.035   2.386   0.232
18487SOL    HW167115   8.106   2.435   0.284
18487SOL    HW267116   8.018   2.297   0.274
18488SOL     OW67117   7.480   1.264   0.307
18488SOL    HW167118   7.460   1.166   0.304
18488SOL    HW267119   7.441   1.304   0.390
18489SOL     OW67120   0.964   5.009   3.301
18489SOL    HW167121   1.034   4.960   3.353
18489SOL    HW267122   0.935   5.090   3.353
18490SOL     OW67123   7.904   5.434   1.322
18490SOL    HW167124   7.894   5.354   1.263
18490SOL    HW267125   7.840   5.427   1.399
18491SOL     OW67126   3.772   9.448   1.235
18491SOL    HW167127   3.742   9.467   1.141
18491SOL    HW267128   3.758   9.351   1.255
18492SOL     OW67129   6.963   0.542   3.134
18492SOL    HW167130   6.901   0.603   3.084
18492SOL    HW267131   6.914   0.460   3.161
18493SOL     OW67132   3.915   9.734   4.447
18493SOL    HW167133   3.904   9.713   4.350
18493SOL    HW267134   3.995   9.793   4.459
18494SOL     OW67135   6.153   3.045   2.521
18494SOL    HW167136   6.185   2.991   2.443
18494SOL    HW267137   6.054   3.058   2.513
18495SOL     OW67138   7.284   7.273   2.334
18495SOL    HW167139   7.205   7.268   2.274
18495SOL    HW267140   7.255   7.265   2.429
18496SOL     OW67141   9.324   9.418   1.733
18496SOL    HW167142   9.236   9.460   1.757
18496SOL    HW267143   9.396   9.487   1.734
18497SOL     OW67144   0.986   2.660   2.382
18497SOL    HW167145   1.017   2.671   2.288
18497SOL    HW267146   1.034   2.582   2.423
18498SOL     OW67147   6.388   1.415   6.012
18498SOL    HW167148   6.476   1.461   6.023
18498SOL    HW267149   6.315   1.483   6.019
18499SOL     OW67150   3.148   2.779   3.193
18499SOL    HW167151   3.116   2.708   3.130
18499SOL    HW267152   3.093   2.862   3.180
18500SOL     OW67153   4.355   2.560   5.435
18500SOL    HW167154   4.322   2.580   5.342
18500SOL    HW267155   4.404   2.473   5.434
18501SOL     OW67156   9.375   4.066   0.768
18501SOL    HW167157   9.471   4.093   0.767
18501SOL    HW267158   9.368   3.967   0.779
18502SOL     OW67159   4.591   3.933   1.989
18502SOL    HW167160   4.564   4.024   1.959
18502SOL    HW267161   4.581   3.868   1.914
18503SOL     OW67162   2.527   1.513   6.820
18503SOL    HW167163   2.588   1.541   6.745
18503SOL    HW267164   2.555   1.559   6.904
18504SOL     OW67165   9.637   4.860   1.966
18504SOL    HW167166   9.575   4.925   2.010
18504SOL    HW267167   9.684   4.807   2.036
18505SOL     OW67168   8.701   2.325   0.296
18505SOL    HW167169   8.754   2.390   0.350
18505SOL    HW267170   8.657   2.258   0.356
18506SOL     OW67171   6.183   9.949   7.086
18506SOL    HW167172   6.161   9.939   6.989
18506SOL    HW267173   6.234   0.034   7.100
18507SOL     OW67174   2.321   7.894   0.120
18507SOL    HW167175   2.301   7.797   0.138
18507SOL    HW267176   2.382   7.929   0.190
18508SOL     OW67177   0.700   0.737   0.998
18508SOL    HW167178   0.762   0.814   0.981
18508SOL    HW267179   0.704   0.673   0.922
18509SOL     OW67180   6.943   2.194   5.508
18509SOL    HW167181   7.004   2.250   5.450
18509SOL    HW267182   6.963   2.212   5.604
18510SOL     OW67183   4.118   9.314   7.778
18510SOL    HW167184   4.117   9.401   7.729
18510SOL    HW267185   4.025   9.287   7.801
18511SOL     OW67186   7.768   2.370   1.954
18511SOL    HW167187   7.855   2.384   1.906
18511SOL    HW267188   7.695   2.358   1.887
18512SOL     OW67189   2.343   5.980   0.308
18512SOL    HW167190   2.262   6.021   0.349
18512SOL    HW267191   2.422   6.039   0.325
18513SOL     OW67192   0.620   1.009   3.340
18513SOL    HW167193   0.630   0.960   3.253
18513SOL    HW267194   0.647   0.950   3.415
18514SOL     OW67195   0.180   4.838   6.488
18514SOL    HW167196   0.165   4.895   6.568
18514SOL    HW267197   0.226   4.891   6.417
18515SOL     OW67198   9.444   2.535   2.122
18515SOL    HW167199   9.425   2.441   2.093
18515SOL    HW267200   9.364   2.573   2.166
18516SOL     OW67201   0.823   8.146   0.409
18516SOL    HW167202   0.741   8.116   0.359
18516SOL    HW267203   0.890   8.181   0.344
18517SOL     OW67204   5.162   8.090   1.544
18517SOL    HW167205   5.081   8.138   1.578
18517SOL    HW267206   5.134   8.004   1.501
18518SOL     OW67207   2.075   6.369   1.859
18518SOL    HW167208   2.043   6.349   1.952
18518SOL    HW267209   2.158   6.423   1.864
18519SOL     OW67210   7.729   6.305   6.223
18519SOL    HW167211   7.708   6.208   6.238
18519SOL    HW267212   7.809   6.313   6.164
18520SOL     OW67213   7.890   2.332   1.071
18520SOL    HW167214   7.976   2.382   1.076
18520SOL    HW267215   7.814   2.398   1.072
18521SOL     OW67216   0.505   2.783   2.987
18521SOL    HW167217   0.515   2.865   2.929
18521SOL    HW267218   0.517   2.809   3.083
18522SOL     OW67219   9.473   0.847   7.332
18522SOL    HW167220   9.471   0.890   7.423
18522SOL    HW267221   9.473   0.748   7.343
18523SOL     OW67222   6.813   0.736   6.543
18523SOL    HW167223   6.818   0.651   6.595
18523SOL    HW267224   6.717   0.763   6.533
18524SOL     OW67225   0.390   5.488   5.551
18524SOL    HW167226   0.460   5.435   5.503
18524SOL    HW267227   0.433   5.549   5.617
18525SOL     OW67228   3.515   4.084   4.482
18525SOL    HW167229   3.536   3.999   4.531
18525SOL    HW267230   3.480   4.063   4.391
18526SOL     OW67231   9.850   5.634   2.380
18526SOL    HW167232   9.752   5.614   2.375
18526SOL    HW267233   9.865   5.732   2.370
18527SOL     OW67234   2.541   6.689   1.018
18527SOL    HW167235   2.540   6.625   1.095
18527SOL    HW267236   2.450   6.690   0.975
18528SOL     OW67237   8.125   5.144   2.235
18528SOL    HW167238   8.109   5.229   2.285
18528SOL    HW267239   8.042   5.120   2.184
18529SOL     OW67240   2.653   9.261   5.443
18529SOL    HW167241   2.706   9.176   5.447
18529SOL    HW267242   2.572   9.252   5.501
18530SOL     OW67243   8.709   8.312   4.460
18530SOL    HW167244   8.766   8.259   4.397
18530SOL    HW267245   8.615   8.278   4.456
18531SOL     OW67246   1.019   4.911   0.434
18531SOL    HW167247   0.988   4.826   0.391
18531SOL    HW267248   1.021   4.984   0.365
18532SOL     OW67249   4.654   9.856   2.117
18532SOL    HW167250   4.655   9.792   2.041
18532SOL    HW267251   4.639   9.949   2.082
18533SOL     OW67252   0.134   8.408   5.048
18533SOL    HW167253   0.226   8.448   5.056
18533SOL    HW267254   0.139   8.321   5.000
18534SOL     OW67255   2.609   8.749   5.305
18534SOL    HW167256   2.626   8.831   5.251
18534SOL    HW267257   2.613   8.773   5.403
18535SOL     OW67258   2.110   1.413   5.935
18535SOL    HW167259   2.021   1.368   5.942
18535SOL    HW267260   2.172   1.356   5.880
18536SOL     OW67261   5.627   9.905   2.207
18536SOL    HW167262   5.680   9.983   2.242
18536SOL    HW267263   5.689   9.842   2.161
18537SOL     OW67264   0.637   9.630   2.089
18537SOL    HW167265   0.624   9.723   2.124
18537SOL    HW267266   0.599   9.624   1.997
18538SOL     OW67267   9.661   6.724   6.691
18538SOL    HW167268   9.757   6.701   6.705
18538SOL    HW267269   9.610   6.701   6.774
18539SOL     OW67270   9.088   8.644   3.412
18539SOL    HW167271   9.172   8.632   3.360
18539SOL    HW267272   9.110   8.663   3.508
18540SOL     OW67273   7.980   1.172   1.114
18540SOL    HW167274   8.028   1.129   1.037
18540SOL    HW267275   7.931   1.253   1.081
18541SOL     OW67276   6.497   2.059   4.231
18541SOL    HW167277   6.397   2.053   4.220
18541SOL    HW267278   6.529   2.149   4.205
18542SOL     OW67279   2.285   7.255   3.073
18542SOL    HW167280   2.378   7.247   3.037
18542SOL    HW267281   2.271   7.187   3.144
18543SOL     OW67282   4.846   9.778   3.680
18543SOL    HW167283   4.863   9.687   3.716
18543SOL    HW267284   4.787   9.828   3.743
18544SOL     OW67285   7.938   6.742   7.307
18544SOL    HW167286   7.920   6.695   7.393
18544SOL    HW267287   8.016   6.699   7.261
18545SOL     OW67288   9.991   8.485   4.052
18545SOL    HW167289   9.979   8.508   4.149
18545SOL    HW267290   9.948   8.557   3.996
18546SOL     OW67291   2.247   1.686   2.790
18546SOL    HW167292   2.240   1.718   2.695
18546SOL    HW267293   2.210   1.593   2.797
18547SOL     OW67294   9.991   4.156   3.785
18547SOL    HW167295   9.944   4.181   3.700
18547SOL    HW267296   0.015   4.059   3.782
18548SOL     OW67297   3.186   0.323   0.111
18548SOL    HW167298   3.256   0.253   0.095
18548SOL    HW267299   3.194   0.358   0.205
18549SOL     OW67300   3.502   5.079   5.946
18549SOL    HW167301   3.442   5.043   6.017
18549SOL    HW267302   3.471   5.169   5.917
18550SOL     OW67303   1.064   3.611   5.745
18550SOL    HW167304   0.985   3.586   5.688
18550SOL    HW267305   1.108   3.692   5.707
18551SOL     OW67306   4.576   2.195   1.270
18551SOL    HW167307   4.590   2.271   1.334
18551SOL    HW267308   4.479   2.185   1.250
18552SOL     OW67309   8.900   3.756   1.071
18552SOL    HW167310   8.829   3.763   1.001
18552SOL    HW267311   8.881   3.677   1.130
18553SOL     OW67312   7.932   5.607   0.649
18553SOL    HW167313   7.848   5.562   0.619
18553SOL    HW267314   8.001   5.538   0.671
18554SOL     OW67315   9.393   4.352   1.585
18554SOL    HW167316   9.306   4.385   1.547
18554SOL    HW267317   9.464   4.421   1.570
18555SOL     OW67318   2.577   3.067   3.529
18555SOL    HW167319   2.562   3.048   3.432
18555SOL    HW267320   2.608   3.161   3.540
18556SOL     OW67321   3.721   1.311   4.020
18556SOL    HW167322   3.711   1.383   3.951
18556SOL    HW267323   3.661   1.234   3.997
18557SOL     OW67324   8.759   9.957   7.880
18557SOL    HW167325   8.808   0.038   7.846
18557SOL    HW267326   8.772   9.950   7.979
18558SOL     OW67327   8.936   2.657   7.029
18558SOL    HW167328   8.868   2.675   6.958
18558SOL    HW267329   8.915   2.571   7.075
18559SOL     OW67330   8.068   7.477   4.791
18559SOL    HW167331   7.977   7.519   4.792
18559SOL    HW267332   8.095   7.458   4.697
18560SOL     OW67333   6.467   9.554   3.921
18560SOL    HW167334   6.450   9.631   3.861
18560SOL    HW267335   6.504   9.587   4.008
18561SOL     OW67336   6.508   1.931   4.494
18561SOL    HW167337   6.579   1.862   4.498
18561SOL    HW267338   6.503   1.969   4.402
18562SOL     OW67339   1.917   9.605   0.323
18562SOL    HW167340   1.820   9.618   0.342
18562SOL    HW267341   1.930   9.517   0.277
18563SOL     OW67342   7.568   1.966   1.148
18563SOL    HW167343   7.626   2.039   1.185
18563SOL    HW267344   7.508   2.003   1.078
18564SOL     OW67345   9.366   9.883   3.208
18564SOL    HW167346   9.431   9.893   3.283
18564SOL    HW267347   9.416   9.874   3.122
18565SOL     OW67348   2.112   6.058   3.646
18565SOL    HW167349   2.081   6.131   3.708
18565SOL    HW267350   2.212   6.055   3.646
18566SOL     OW67351   5.730   1.314   4.456
18566SOL    HW167352   5.691   1.345   4.543
18566SOL    HW267353   5.682   1.359   4.381
18567SOL     OW67354   8.125   4.699   7.273
18567SOL    HW167355   8.064   4.687   7.196
18567SOL    HW267356   8.152   4.796   7.280
18568SOL     OW67357   9.956   7.362   7.892
18568SOL    HW167358   9.931   7.338   7.986
18568SOL    HW267359   9.878   7.344   7.831
18569SOL     OW67360   9.690   6.988   3.287
18569SOL    HW167361   9.633   6.906   3.287
18569SOL    HW267362   9.670   7.043   3.369
18570SOL     OW67363   7.354   1.390   0.098
18570SOL    HW167364   7.416   1.455   0.054
18570SOL    HW267365   7.404   1.337   0.166
18571SOL     OW67366   0.187   1.385   7.302
18571SOL    HW167367   0.237   1.468   7.278
18571SOL    HW267368   0.227   1.307   7.254
18572SOL     OW67369   8.458   8.380   2.321
18572SOL    HW167370   8.529   8.432   2.274
18572SOL    HW267371   8.410   8.322   2.255
18573SOL     OW67372   3.527   8.742   5.831
18573SOL    HW167373   3.526   8.709   5.925
18573SOL    HW267374   3.621   8.752   5.799
18574SOL     OW67375   7.540   5.742   4.342
18574SOL    HW167376   7.630   5.778   4.318
18574SOL    HW267377   7.470   5.794   4.293
18575SOL     OW67378   2.502   5.972   2.185
18575SOL    HW167379   2.545   5.887   2.155
18575SOL    HW267380   2.410   5.979   2.145
18576SOL     OW67381   7.541   0.508   3.749
18576SOL    HW167382   7.617   0.509   3.684
18576SOL    HW267383   7.463   0.460   3.709
18577SOL     OW67384   7.413   7.854   2.575
18577SOL    HW167385   7.439   7.938   2.623
18577SOL    HW267386   7.436   7.862   2.478
18578SOL     OW67387   8.601   4.783   3.890
18578SOL    HW167388   8.583   4.685   3.902
18578SOL    HW267389   8.699   4.798   3.877
18579SOL     OW67390   0.641   6.716   4.333
18579SOL    HW167391   0.711   6.649   4.358
18579SOL    HW267392   0.592   6.683   4.252
18580SOL     OW67393   8.664   5.616   1.618
18580SOL    HW167394   8.617   5.528   1.619
18580SOL    HW267395   8.607   5.684   1.574
18581SOL     OW67396   9.021   4.632   6.921
18581SOL    HW167397   8.925   4.659   6.923
18581SOL    HW267398   9.077   4.704   6.962
18582SOL     OW67399   5.130   9.788   6.877
18582SOL    HW167400   5.055   9.854   6.882
18582SOL    HW267401   5.109   9.718   6.809
18583SOL     OW67402   6.730   2.280   4.889
18583SOL    HW167403   6.818   2.322   4.869
18583SOL    HW267404   6.713   2.205   4.826
18584SOL     OW67405   9.462   3.429   1.509
18584SOL    HW167406   9.415   3.341   1.505
18584SOL    HW267407   9.503   3.441   1.600
18585SOL     OW67408   9.179   1.019   4.827
18585SOL    HW167409   9.229   1.096   4.787
18585SOL    HW267410   9.132   0.968   4.755
18586SOL     OW67411   7.272   8.706   3.213
18586SOL    HW167412   7.345   8.749   3.159
18586SOL    HW267413   7.184   8.722   3.168
18587SOL     OW67414   1.259   4.557   0.355
18587SOL    HW167415   1.290   4.596   0.441
18587SOL    HW267416   1.206   4.474   0.373
18588SOL     OW67417   8.586   9.263   4.176
18588SOL    HW167418   8.497   9.217   4.178
18588SOL    HW267419   8.654   9.206   4.223
18589SOL     OW67420   6.482   2.947   0.483
18589SOL    HW167421   6.451   2.907   0.570
18589SOL    HW267422   6.582   2.945   0.480
18590SOL     OW67423   2.764   1.847   5.452
18590SOL    HW167424   2.852   1.863   5.496
18590SOL    HW267425   2.760   1.897   5.366
18591SOL     OW67426   5.739   9.548   2.911
18591SOL    HW167427   5.675   9.625   2.918
18591SOL    HW267428   5.764   9.533   2.816
18592SOL     OW67429   1.714   2.860   3.291
18592SOL    HW167430   1.810   2.855   3.319
18592SOL    HW267431   1.661   2.791   3.341
18593SOL     OW67432   6.362   9.295   3.079
18593SOL    HW167433   6.342   9.379   3.130
18593SOL    HW267434   6.302   9.290   2.999
18594SOL     OW67435   2.802   7.781   3.257
18594SOL    HW167436   2.896   7.815   3.247
18594SOL    HW267437   2.788   7.703   3.196
18595SOL     OW67438   2.052   4.234   2.352
18595SOL    HW167439   2.034   4.313   2.293
18595SOL    HW267440   2.064   4.153   2.295
18596SOL     OW67441   8.843   1.344   3.654
18596SOL    HW167442   8.789   1.367   3.573
18596SOL    HW267443   8.935   1.382   3.644
18597SOL     OW67444   7.584   3.213   3.573
18597SOL    HW167445   7.505   3.231   3.513
18597SOL    HW267446   7.665   3.196   3.517
18598SOL     OW67447   2.301   6.801   5.365
18598SOL    HW167448   2.269   6.891   5.336
18598SOL    HW267449   2.395   6.809   5.399
18599SOL     OW67450   8.339   5.775   3.579
18599SOL    HW167451   8.438   5.772   3.592
18599SOL    HW267452   8.304   5.864   3.609
18600SOL     OW67453   6.296   1.884   1.068
18600SOL    HW167454   6.375   1.906   1.010
18600SOL    HW267455   6.286   1.785   1.075
18601SOL     OW67456   2.319   4.354   0.404
18601SOL    HW167457   2.414   4.323   0.412
18601SOL    HW267458   2.304   4.433   0.464
18602SOL     OW67459   0.801   3.540   0.648
18602SOL    HW167460   0.826   3.582   0.735
18602SOL    HW267461   0.872   3.474   0.621
18603SOL     OW67462   3.704   0.622   7.891
18603SOL    HW167463   3.681   0.544   7.833
18603SOL    HW267464   3.797   0.653   7.870
18604SOL     OW67465   8.380   7.815   4.575
18604SOL    HW167466   8.407   7.900   4.620
18604SOL    HW267467   8.363   7.745   4.644
18605SOL     OW67468   7.334   0.659   3.312
18605SOL    HW167469   7.331   0.696   3.405
18605SOL    HW267470   7.428   0.661   3.278
18606SOL     OW67471   8.433   5.380   1.618
18606SOL    HW167472   8.431   5.447   1.692
18606SOL    HW267473   8.365   5.404   1.549
18607SOL     OW67474   7.963   5.409   7.391
18607SOL    HW167475   7.971   5.323   7.340
18607SOL    HW267476   8.053   5.438   7.423
18608SOL     OW67477   6.139   9.198   1.522
18608SOL    HW167478   6.144   9.125   1.591
18608SOL    HW267479   6.203   9.271   1.546
18609SOL     OW67480   9.722   8.986   7.448
18609SOL    HW167481   9.717   9.033   7.536
18609SOL    HW267482   9.816   8.989   7.415
18610SOL     OW67483   6.706   2.989   4.414
18610SOL    HW167484   6.695   3.014   4.318
18610SOL    HW267485   6.620   2.953   4.450
18611SOL     OW67486   3.099   6.167   4.048
18611SOL    HW167487   3.085   6.070   4.026
18611SOL    HW267488   3.022   6.220   4.012
18612SOL     OW67489   4.161   9.897   3.235
18612SOL    HW167490   4.239   9.959   3.248
18612SOL    HW267491   4.158   9.831   3.310
18613SOL     OW67492   0.263   6.708   0.927
18613SOL    HW167493   0.352   6.733   0.889
18613SOL    HW267494   0.208   6.663   0.856
18614SOL     OW67495   8.887   9.902   1.800
18614SOL    HW167496   8.972   9.887   1.751
18614SOL    HW267497   8.810   9.869   1.745
18615SOL     OW67498   4.129   4.834   2.199
18615SOL    HW167499   4.192   4.830   2.277
18615SOL    HW267500   4.062   4.761   2.206
18616SOL     OW67501   7.160   4.230   2.435
18616SOL    HW167502   7.095   4.276   2.375
18616SOL    HW267503   7.201   4.297   2.497
18617SOL     OW67504   1.737   7.940   4.376
18617SOL    HW167505   1.826   7.984   4.390
18617SOL    HW267506   1.696   7.975   4.292
18618SOL     OW67507   8.505   8.656   0.990
18618SOL    HW167508   8.572   8.603   0.938
18618SOL    HW267509   8.414   8.640   0.953
18619SOL     OW67510   7.329   3.312   7.499
18619SOL    HW167511   7.252   3.372   7.519
18619SOL    HW267512   7.319   3.227   7.551
18620SOL     OW67513   3.215   2.401   1.517
18620SOL    HW167514   3.256   2.393   1.607
18620SOL    HW267515   3.280   2.369   1.448
18621SOL     OW67516   3.461   8.457   5.458
18621SOL    HW167517   3.513   8.461   5.543
18621SOL    HW267518   3.451   8.548   5.419
18622SOL     OW67519   4.930   7.893   5.926
18622SOL    HW167520   4.894   7.958   5.859
18622SOL    HW267521   4.999   7.835   5.882
18623SOL     OW67522   8.486   2.409   1.596
18623SOL    HW167523   8.428   2.484   1.564
18623SOL    HW267524   8.552   2.386   1.525
18624SOL     OW67525   7.389   6.300   0.364
18624SOL    HW167526   7.439   6.347   0.436
18624SOL    HW267527   7.318   6.243   0.404
18625SOL     OW67528   0.427   3.095   0.842
18625SOL    HW167529   0.476   3.082   0.756
18625SOL    HW267530   0.331   3.067   0.830
18626SOL     OW67531   7.816   8.142   4.438
18626SOL    HW167532   7.823   8.072   4.366
18626SOL    HW267533   7.798   8.231   4.396
18627SOL     OW67534   9.673   4.234   5.532
18627SOL    HW167535   9.593   4.190   5.492
18627SOL    HW267536   9.683   4.206   5.628
18628SOL     OW67537   8.538   5.214   1.829
18628SOL    HW167538   8.536   5.264   1.915
18628SOL    HW267539   8.495   5.269   1.757
18629SOL     OW67540   7.655   6.600   7.350
18629SOL    HW167541   7.670   6.690   7.390
18629SOL    HW267542   7.717   6.588   7.272
18630SOL     OW67543   6.845   5.797   0.150
18630SOL    HW167544   6.885   5.841   0.069
18630SOL    HW267545   6.745   5.793   0.139
18631SOL     OW67546   3.715   7.293   3.509
18631SOL    HW167547   3.811   7.318   3.505
18631SOL    HW267548   3.704   7.208   3.561
18632SOL     OW67549   6.364   2.817   0.717
18632SOL    HW167550   6.280   2.865   0.740
18632SOL    HW267551   6.343   2.729   0.675
18633SOL     OW67552   4.118   0.864   2.472
18633SOL    HW167553   4.198   0.866   2.412
18633SOL    HW267554   4.147   0.881   2.566
18634SOL     OW67555   2.718   5.256   6.257
18634SOL    HW167556   2.726   5.276   6.354
18634SOL    HW267557   2.621   5.250   6.232
18635SOL     OW67558   1.289   7.670   7.388
18635SOL    HW167559   1.220   7.616   7.438
18635SOL    HW267560   1.276   7.767   7.409
18636SOL     OW67561   7.336   1.727   4.737
18636SOL    HW167562   7.322   1.807   4.796
18636SOL    HW267563   7.254   1.711   4.682
18637SOL     OW67564   2.224   3.291   3.599
18637SOL    HW167565   2.172   3.364   3.644
18637SOL    HW267566   2.289   3.332   3.535
18638SOL     OW67567   1.368   4.494   6.956
18638SOL    HW167568   1.424   4.435   7.014
18638SOL    HW267569   1.285   4.445   6.929
18639SOL     OW67570   7.592   2.434   5.360
18639SOL    HW167571   7.679   2.385   5.348
18639SOL    HW267572   7.588   2.472   5.453
18640SOL     OW67573   7.690   9.166   1.880
18640SOL    HW167574   7.714   9.076   1.915
18640SOL    HW267575   7.595   9.186   1.903
18641SOL     OW67576   0.868   2.738   4.271
18641SOL    HW167577   0.775   2.700   4.270
18641SOL    HW267578   0.870   2.819   4.330
18642SOL     OW67579   8.360   1.607   0.286
18642SOL    HW167580   8.402   1.517   0.276
18642SOL    HW267581   8.319   1.614   0.377
18643SOL     OW67582   7.998   6.183   0.192
18643SOL    HW167583   7.900   6.164   0.192
18643SOL    HW267584   8.036   6.164   0.101
18644SOL     OW67585   3.198   8.874   4.243
18644SOL    HW167586   3.172   8.779   4.261
18644SOL    HW267587   3.284   8.894   4.289
18645SOL     OW67588   4.917   9.009   3.485
18645SOL    HW167589   4.858   8.988   3.563
18645SOL    HW267590   4.861   9.044   3.410
18646SOL     OW67591   3.315   0.681   5.673
18646SOL    HW167592   3.412   0.658   5.668
18646SOL    HW267593   3.268   0.649   5.591
18647SOL     OW67594   3.553   2.383   0.051
18647SOL    HW167595   3.632   2.332   0.085
18647SOL    HW267596   3.580   2.441  10.056
18648SOL     OW67597   8.114   3.255   5.617
18648SOL    HW167598   8.196   3.229   5.565
18648SOL    HW267599   8.106   3.355   5.619
18649SOL     OW67600   3.393   0.592   0.940
18649SOL    HW167601   3.383   0.676   0.994
18649SOL    HW267602   3.372   0.513   0.997
18650SOL     OW67603   9.393   4.790   1.579
18650SOL    HW167604   9.445   4.704   1.575
18650SOL    HW267605   9.363   4.814   1.487
18651SOL     OW67606   1.789   3.875   4.851
18651SOL    HW167607   1.830   3.964   4.832
18651SOL    HW267608   1.822   3.841   4.939
18652SOL     OW67609   5.057   9.031   3.164
18652SOL    HW167610   5.091   9.118   3.128
18652SOL    HW267611   4.961   9.042   3.192
18653SOL     OW67612   2.754   0.383   3.907
18653SOL    HW167613   2.765   0.323   3.828
18653SOL    HW267614   2.674   0.442   3.893
18654SOL     OW67615   9.549   4.078   2.058
18654SOL    HW167616   9.455   4.105   2.038
18654SOL    HW267617   9.550   3.984   2.089
18655SOL     OW67618   6.970   2.007   1.079
18655SOL    HW167619   6.890   2.053   1.117
18655SOL    HW267620   6.951   1.910   1.067
18656SOL     OW67621   9.999   9.916   5.661
18656SOL    HW167622   9.927   9.929   5.593
18656SOL    HW267623   0.034   9.823   5.655
18657SOL     OW67624   7.525   4.507   7.486
18657SOL    HW167625   7.474   4.543   7.564
18657SOL    HW267626   7.480   4.534   7.401
18658SOL     OW67627   1.817   2.989   1.259
18658SOL    HW167628   1.752   3.037   1.200
18658SOL    HW267629   1.871   3.055   1.311
18659SOL     OW67630   9.243   0.879   1.552
18659SOL    HW167631   9.263   0.887   1.650
18659SOL    HW267632   9.210   0.966   1.518
18660SOL     OW67633   1.521   4.617   2.710
18660SOL    HW167634   1.580   4.547   2.669
18660SOL    HW267635   1.470   4.665   2.639
18661SOL     OW67636   0.255   6.554   2.125
18661SOL    HW167637   0.297   6.627   2.070
18661SOL    HW267638   0.299   6.467   2.104
18662SOL     OW67639   0.071   7.555   0.819
18662SOL    HW167640   0.098   7.543   0.915
18662SOL    HW267641   9.975   7.527   0.808
18663SOL     OW67642   0.560   0.750   7.683
18663SOL    HW167643   0.523   0.841   7.703
18663SOL    HW267644   0.486   0.690   7.653
18664SOL     OW67645   2.075   5.335   1.014
18664SOL    HW167646   2.019   5.352   0.933
18664SOL    HW267647   2.029   5.371   1.095
18665SOL     OW67648   8.247   1.574   4.390
18665SOL    HW167649   8.310   1.612   4.458
18665SOL    HW267650   8.287   1.580   4.299
18666SOL     OW67651   0.710   3.037   3.481
18666SOL    HW167652   0.684   2.946   3.511
18666SOL    HW267653   0.755   3.085   3.557
18667SOL     OW67654   2.314   0.108   6.476
18667SOL    HW167655   2.376   0.185   6.492
18667SOL    HW267656   2.356   0.045   6.411
18668SOL     OW67657   3.084   2.524   2.560
18668SOL    HW167658   2.997   2.552   2.518
18668SOL    HW267659   3.074   2.431   2.597
18669SOL     OW67660   9.136   9.401   6.122
18669SOL    HW167661   9.075   9.480   6.133
18669SOL    HW267662   9.087   9.318   6.148
18670SOL     OW67663   4.064   2.108   7.870
18670SOL    HW167664   4.058   2.140   7.964
18670SOL    HW267665   4.032   2.180   7.808
18671SOL     OW67666   0.826   1.798   6.039
18671SOL    HW167667   0.843   1.842   6.127
18671SOL    HW267668   0.734   1.822   6.008
18672SOL     OW67669   0.222   1.115   2.944
18672SOL    HW167670   0.319   1.098   2.961
18672SOL    HW267671   0.167   1.056   3.002
18673SOL     OW67672   8.966   6.697   3.666
18673SOL    HW167673   9.051   6.723   3.621
18673SOL    HW267674   8.986   6.657   3.755
18674SOL     OW67675   4.379   2.949   7.934
18674SOL    HW167676   4.407   3.021   7.998
18674SOL    HW267677   4.279   2.949   7.925
18675SOL     OW67678   2.226   3.134   0.824
18675SOL    HW167679   2.182   3.198   0.887
18675SOL    HW267680   2.172   3.050   0.820
18676SOL     OW67681   6.214   9.035   7.152
18676SOL    HW167682   6.314   9.037   7.141
18676SOL    HW267683   6.182   8.941   7.157
18677SOL     OW67684   8.687   0.035   6.112
18677SOL    HW167685   8.649   0.081   6.032
18677SOL    HW267686   8.626   0.048   6.190
18678SOL     OW67687   0.087   2.334   1.429
18678SOL    HW167688   0.101   2.428   1.398
18678SOL    HW267689   0.041   2.335   1.518
18679SOL     OW67690   1.427   0.786   7.885
18679SOL    HW167691   1.479   0.700   7.890
18679SOL    HW267692   1.489   0.863   7.895
18680SOL     OW67693   8.347   5.861   7.067
18680SOL    HW167694   8.396   5.907   6.992
18680SOL    HW267695   8.327   5.927   7.139
18681SOL     OW67696   9.777   1.253   6.369
18681SOL    HW167697   9.716   1.179   6.338
18681SOL    HW267698   9.841   1.217   6.436
18682SOL     OW67699   2.742   6.147   3.127
18682SOL    HW167700   2.731   6.115   3.221
18682SOL    HW267701   2.698   6.083   3.064
18683SOL     OW67702   2.158   5.521   3.225
18683SOL    HW167703   2.244   5.550   3.183
18683SOL    HW267704   2.089   5.593   3.214
18684SOL     OW67705   4.205   0.779   4.866
18684SOL    HW167706   4.160   0.796   4.954
18684SOL    HW267707   4.258   0.860   4.840
18685SOL     OW67708   0.743   4.511   5.209
18685SOL    HW167709   0.652   4.471   5.202
18685SOL    HW267710   0.807   4.461   5.151
18686SOL     OW67711   2.729   5.437   2.420
18686SOL    HW167712   2.747   5.377   2.342
18686SOL    HW267713   2.733   5.384   2.504
18687SOL     OW67714   2.502   7.761   6.751
18687SOL    HW167715   2.531   7.667   6.767
18687SOL    HW267716   2.511   7.814   6.836
18688SOL     OW67717   7.667   6.769   6.576
18688SOL    HW167718   7.764   6.777   6.556
18688SOL    HW267719   7.624   6.859   6.572
18689SOL     OW67720   3.222   5.242   5.671
18689SOL    HW167721   3.189   5.337   5.674
18689SOL    HW267722   3.145   5.180   5.686
18690SOL     OW67723   8.729   1.571   0.183
18690SOL    HW167724   8.676   1.650   0.212
18690SOL    HW267725   8.668   1.493   0.168
18691SOL     OW67726   7.490   9.458   1.684
18691SOL    HW167727   7.454   9.523   1.617
18691SOL    HW267728   7.416   9.396   1.713
18692SOL     OW67729   8.590   3.340   1.702
18692SOL    HW167730   8.547   3.344   1.792
18692SOL    HW267731   8.570   3.251   1.660
18693SOL     OW67732   7.955   6.870   1.501
18693SOL    HW167733   8.025   6.910   1.443
18693SOL    HW267734   7.962   6.908   1.593
18694SOL     OW67735   5.157   2.095   7.804
18694SOL    HW167736   5.147   2.185   7.846
18694SOL    HW267737   5.076   2.076   7.748
18695SOL     OW67738   1.937   2.933   5.462
18695SOL    HW167739   2.016   2.978   5.421
18695SOL    HW267740   1.884   3.000   5.514
18696SOL     OW67741   1.103   5.487   0.468
18696SOL    HW167742   1.085   5.582   0.442
18696SOL    HW267743   1.043   5.461   0.543
18697SOL     OW67744   2.364   1.127   1.332
18697SOL    HW167745   2.276   1.171   1.353
18697SOL    HW267746   2.436   1.169   1.386
18698SOL     OW67747   9.922   9.186   2.897
18698SOL    HW167748   9.926   9.284   2.879
18698SOL    HW267749   9.878   9.170   2.986
18699SOL     OW67750   8.295   4.779   3.345
18699SOL    HW167751   8.394   4.765   3.353
18699SOL    HW267752   8.265   4.751   3.254
18700SOL     OW67753   3.879   4.254   1.386
18700SOL    HW167754   3.935   4.336   1.396
18700SOL    HW267755   3.808   4.271   1.317
18701SOL     OW67756   8.598   3.172   1.344
18701SOL    HW167757   8.550   3.161   1.431
18701SOL    HW267758   8.558   3.111   1.276
18702SOL     OW67759   0.509   5.753   7.791
18702SOL    HW167760   0.585   5.789   7.844
18702SOL    HW267761   0.545   5.704   7.711
18703SOL     OW67762   9.577   6.524   0.623
18703SOL    HW167763   9.639   6.453   0.656
18703SOL    HW267764   9.627   6.610   0.615
18704SOL     OW67765   8.396   7.619   1.079
18704SOL    HW167766   8.307   7.607   1.036
18704SOL    HW267767   8.467   7.581   1.020
18705SOL     OW67768   9.036   0.874   6.045
18705SOL    HW167769   9.122   0.841   6.084
18705SOL    HW267770   9.051   0.901   5.949
18706SOL     OW67771   0.115   6.137   3.207
18706SOL    HW167772   0.197   6.127   3.151
18706SOL    HW267773   0.056   6.209   3.169
18707SOL     OW67774   8.300   5.626   0.481
18707SOL    HW167775   8.255   5.544   0.445
18707SOL    HW267776   8.399   5.611   0.484
18708SOL     OW67777   3.751   4.710   4.784
18708SOL    HW167778   3.678   4.653   4.746
18708SOL    HW267779   3.837   4.658   4.782
18709SOL     OW67780   8.779   9.509   6.263
18709SOL    HW167781   8.854   9.553   6.214
18709SOL    HW267782   8.759   9.560   6.346
18710SOL     OW67783   7.216   8.534   4.131
18710SOL    HW167784   7.142   8.586   4.090
18710SOL    HW267785   7.244   8.579   4.217
18711SOL     OW67786   6.730   0.698   7.085
18711SOL    HW167787   6.643   0.717   7.039
18711SOL    HW267788   6.805   0.727   7.026
18712SOL     OW67789   8.290   6.922   7.513
18712SOL    HW167790   8.364   6.943   7.448
18712SOL    HW267791   8.202   6.931   7.467
18713SOL     OW67792   1.528   7.538   0.742
18713SOL    HW167793   1.534   7.467   0.672
18713SOL    HW267794   1.598   7.608   0.724
18714SOL     OW67795   7.692   5.753   6.701
18714SOL    HW167796   7.614   5.768   6.762
18714SOL    HW267797   7.758   5.827   6.710
18715SOL     OW67798   3.831   8.893   1.779
18715SOL    HW167799   3.886   8.877   1.861
18715SOL    HW267800   3.830   8.810   1.723
18716SOL     OW67801   1.380   9.212   2.689
18716SOL    HW167802   1.448   9.273   2.649
18716SOL    HW267803   1.422   9.124   2.711
18717SOL     OW67804   1.251   6.046   3.987
18717SOL    HW167805   1.155   6.027   3.965
18717SOL    HW267806   1.256   6.127   4.045
18718SOL     OW67807   4.990   9.200   1.472
18718SOL    HW167808   4.985   9.278   1.409
18718SOL    HW267809   4.898   9.165   1.489
18719SOL     OW67810   7.025   5.109   2.700
18719SOL    HW167811   6.944   5.165   2.716
18719SOL    HW267812   7.107   5.164   2.715
18720SOL     OW67813   3.905   8.758   6.824
18720SOL    HW167814   3.959   8.699   6.765
18720SOL    HW267815   3.962   8.790   6.900
18721SOL     OW67816   2.462   5.760   2.680
18721SOL    HW167817   2.495   5.716   2.597
18721SOL    HW267818   2.497   5.712   2.760
18722SOL     OW67819   3.148   0.174   6.975
18722SOL    HW167820   3.207   0.254   6.975
18722SOL    HW267821   3.107   0.163   6.884
18723SOL     OW67822   9.639   4.479   4.228
18723SOL    HW167823   9.545   4.508   4.212
18723SOL    HW267824   9.640   4.401   4.290
18724SOL     OW67825   7.464   8.358   2.018
18724SOL    HW167826   7.442   8.305   1.937
18724SOL    HW267827   7.388   8.353   2.083
18725SOL     OW67828   3.747   4.851   0.232
18725SOL    HW167829   3.817   4.783   0.209
18725SOL    HW267830   3.792   4.937   0.258
18726SOL     OW67831   9.217   3.196   3.609
18726SOL    HW167832   9.249   3.192   3.704
18726SOL    HW267833   9.240   3.285   3.570
18727SOL     OW67834   7.634   8.585   6.094
18727SOL    HW167835   7.635   8.517   6.021
18727SOL    HW267836   7.727   8.604   6.122
18728SOL     OW67837   2.778   7.190   4.207
18728SOL    HW167838   2.690   7.222   4.241
18728SOL    HW267839   2.843   7.266   4.203
18729SOL     OW67840   8.236   7.977   0.746
18729SOL    HW167841   8.294   8.041   0.696
18729SOL    HW267842   8.196   7.912   0.682
18730SOL     OW67843   9.805   1.636   5.280
18730SOL    HW167844   9.866   1.694   5.333
18730SOL    HW267845   9.809   1.662   5.184
18731SOL     OW67846   9.304   3.066   2.747
18731SOL    HW167847   9.222   3.078   2.803
18731SOL    HW267848   9.279   3.059   2.651
18732SOL     OW67849   9.975   2.238   2.519
18732SOL    HW167850   0.035   2.246   2.599
18732SOL    HW267851   0.015   2.288   2.442
18733SOL     OW67852   5.813   1.686   1.852
18733SOL    HW167853   5.889   1.745   1.882
18733SOL    HW267854   5.810   1.605   1.910
18734SOL     OW67855   5.066   8.035   6.379
18734SOL    HW167856   5.027   8.045   6.470
18734SOL    HW267857   5.134   7.962   6.379
18735SOL     OW67858   3.753   4.415   3.278
18735SOL    HW167859   3.784   4.444   3.368
18735SOL    HW267860   3.751   4.315   3.273
18736SOL     OW67861   4.373   7.134   3.477
18736SOL    HW167862   4.349   7.140   3.380
18736SOL    HW267863   4.346   7.044   3.512
18737SOL     OW67864   8.047   8.202   3.057
18737SOL    HW167865   8.109   8.130   3.027
18737SOL    HW267866   8.076   8.289   3.017
18738SOL     OW67867   2.220   2.139   0.553
18738SOL    HW167868   2.184   2.207   0.617
18738SOL    HW267869   2.211   2.048   0.593
18739SOL     OW67870   1.736   2.096   1.615
18739SOL    HW167871   1.822   2.092   1.665
18739SOL    HW267872   1.747   2.157   1.536
18740SOL     OW67873   7.233   9.729   4.811
18740SOL    HW167874   7.249   9.694   4.718
18740SOL    HW267875   7.308   9.791   4.835
18741SOL     OW67876   2.412   5.365   6.397
18741SOL    HW167877   2.460   5.451   6.410
18741SOL    HW267878   2.360   5.342   6.479
18742SOL     OW67879   8.602   9.072   6.704
18742SOL    HW167880   8.508   9.040   6.693
18742SOL    HW267881   8.654   9.006   6.757
18743SOL     OW67882   6.584   0.484   3.488
18743SOL    HW167883   6.609   0.557   3.551
18743SOL    HW267884   6.525   0.521   3.416
18744SOL     OW67885   2.892   3.781   4.827
18744SOL    HW167886   2.882   3.736   4.738
18744SOL    HW267887   2.903   3.880   4.814
18745SOL     OW67888   8.009   0.115   3.531
18745SOL    HW167889   7.989   0.123   3.433
18745SOL    HW267890   7.937   0.161   3.583
18746SOL     OW67891   7.762   8.577   5.293
18746SOL    HW167892   7.755   8.572   5.193
18746SOL    HW267893   7.677   8.543   5.333
18747SOL     OW67894   8.889   3.269   5.748
18747SOL    HW167895   8.909   3.349   5.690
18747SOL    HW267896   8.840   3.201   5.694
18748SOL     OW67897   8.762   6.254   5.331
18748SOL    HW167898   8.719   6.341   5.307
18748SOL    HW267899   8.856   6.253   5.298
18749SOL     OW67900   1.895   8.186   1.570
18749SOL    HW167901   1.834   8.220   1.642
18749SOL    HW267902   1.940   8.262   1.525
18750SOL     OW67903   9.473   7.777   1.688
18750SOL    HW167904   9.414   7.852   1.657
18750SOL    HW267905   9.568   7.808   1.690
18751SOL     OW67906   0.729   8.010   3.639
18751SOL    HW167907   0.820   8.018   3.679
18751SOL    HW267908   0.669   8.079   3.679
18752SOL     OW67909   4.411   9.217   5.341
18752SOL    HW167910   4.400   9.316   5.347
18752SOL    HW267911   4.442   9.181   5.429
18753SOL     OW67912   4.566   0.411   4.405
18753SOL    HW167913   4.513   0.369   4.478
18753SOL    HW267914   4.546   0.367   4.318
18754SOL     OW67915   4.950   9.984   1.279
18754SOL    HW167916   4.877   9.917   1.291
18754SOL    HW267917   5.031   9.938   1.242
18755SOL     OW67918   3.064   6.098   7.316
18755SOL    HW167919   3.017   6.144   7.241
18755SOL    HW267920   3.028   6.005   7.326
18756SOL     OW67921   4.173   0.354   4.693
18756SOL    HW167922   4.168   0.402   4.780
18756SOL    HW267923   4.110   0.276   4.695
18757SOL     OW67924   8.030   7.583   7.793
18757SOL    HW167925   7.967   7.554   7.721
18757SOL    HW267926   7.981   7.591   7.880
18758SOL     OW67927   2.590   8.507   3.473
18758SOL    HW167928   2.611   8.472   3.382
18758SOL    HW267929   2.494   8.489   3.494
18759SOL     OW67930   2.532   7.768   6.307
18759SOL    HW167931   2.548   7.802   6.215
18759SOL    HW267932   2.571   7.677   6.317
18760SOL     OW67933   8.964   5.944   7.728
18760SOL    HW167934   8.897   5.870   7.734
18760SOL    HW267935   9.050   5.909   7.690
18761SOL     OW67936   0.254   6.829   6.654
18761SOL    HW167937   0.288   6.923   6.660
18761SOL    HW267938   0.180   6.825   6.586
18762SOL     OW67939   6.104   8.830   1.970
18762SOL    HW167940   6.136   8.744   1.933
18762SOL    HW267941   6.009   8.820   2.001
18763SOL     OW67942   6.061   8.591   4.812
18763SOL    HW167943   6.018   8.586   4.721
18763SOL    HW267944   6.123   8.670   4.814
18764SOL     OW67945   1.169   9.972   3.668
18764SOL    HW167946   1.252   9.925   3.699
18764SOL    HW267947   1.107   9.905   3.627
18765SOL     OW67948   3.251   8.564   3.007
18765SOL    HW167949   3.190   8.574   2.928
18765SOL    HW267950   3.295   8.474   3.003
18766SOL     OW67951   4.382   2.966   4.738
18766SOL    HW167952   4.471   2.935   4.703
18766SOL    HW267953   4.395   3.011   4.826
18767SOL     OW67954   7.660   3.968   2.510
18767SOL    HW167955   7.654   3.914   2.425
18767SOL    HW267956   7.567   3.988   2.542
18768SOL     OW67957   3.331   1.071   5.925
18768SOL    HW167958   3.300   1.043   6.016
18768SOL    HW267959   3.332   1.171   5.920
18769SOL     OW67960   7.487   7.872   6.836
18769SOL    HW167961   7.515   7.776   6.827
18769SOL    HW267962   7.510   7.922   6.753
18770SOL     OW67963   2.506   1.686   1.191
18770SOL    HW167964   2.476   1.591   1.198
18770SOL    HW267965   2.572   1.705   1.264
18771SOL     OW67966   0.712   3.404   3.824
18771SOL    HW167967   0.767   3.483   3.850
18771SOL    HW267968   0.650   3.381   3.899
18772SOL     OW67969   2.486   9.992   7.491
18772SOL    HW167970   2.423   0.070   7.488
18772SOL    HW267971   2.459   9.925   7.423
18773SOL     OW67972   9.361   2.302   3.547
18773SOL    HW167973   9.332   2.387   3.592
18773SOL    HW267974   9.411   2.325   3.463
18774SOL     OW67975   2.522   2.787   0.243
18774SOL    HW167976   2.552   2.698   0.210
18774SOL    HW267977   2.422   2.790   0.243
18775SOL     OW67978   0.348   4.092   5.228
18775SOL    HW167979   0.422   4.033   5.259
18775SOL    HW267980   0.289   4.116   5.306
18776SOL     OW67981   2.986   4.154   7.604
18776SOL    HW167982   3.055   4.171   7.675
18776SOL    HW267983   3.022   4.087   7.539
18777SOL     OW67984   6.042   7.611   5.670
18777SOL    HW167985   5.969   7.607   5.602
18777SOL    HW267986   6.129   7.589   5.626
18778SOL     OW67987   8.228   6.885   5.930
18778SOL    HW167988   8.153   6.932   5.978
18778SOL    HW267989   8.268   6.815   5.990
18779SOL     OW67990   8.590   7.821   4.172
18779SOL    HW167991   8.551   7.766   4.098
18779SOL    HW267992   8.688   7.835   4.156
18780SOL     OW67993   9.701   4.695   7.147
18780SOL    HW167994   9.707   4.775   7.088
18780SOL    HW267995   9.616   4.698   7.199
18781SOL     OW67996   2.889   8.022   2.599
18781SOL    HW167997   2.983   8.011   2.568
18781SOL    HW267998   2.864   8.119   2.594
18782SOL     OW67999   3.556   0.271   5.602
18782SOL    HW168000   3.505   0.216   5.535
18782SOL    HW268001   3.492   0.325   5.656
18783SOL     OW68002   3.933   2.202   6.045
18783SOL    HW168003   3.964   2.262   5.971
18783SOL    HW268004   4.012   2.165   6.093
18784SOL     OW68005   3.445   7.598   6.763
18784SOL    HW168006   3.463   7.648   6.678
18784SOL    HW268007   3.375   7.529   6.746
18785SOL     OW68008   5.025   2.207   6.959
18785SOL    HW168009   5.093   2.275   6.931
18785SOL    HW268010   5.024   2.200   7.058
18786SOL     OW68011   9.813   8.366   0.567
18786SOL    HW168012   9.837   8.463   0.560
18786SOL    HW268013   9.823   8.336   0.662
18787SOL     OW68014   8.871   4.387   7.561
18787SOL    HW168015   8.916   4.351   7.479
18787SOL    HW268016   8.935   4.447   7.610
18788SOL     OW68017   1.633   6.835   7.353
18788SOL    HW168018   1.552   6.881   7.389
18788SOL    HW268019   1.606   6.749   7.310
18789SOL     OW68020   3.093   8.938   3.832
18789SOL    HW168021   3.012   8.927   3.888
18789SOL    HW268022   3.092   9.028   3.788
18790SOL     OW68023   8.498   2.804   2.307
18790SOL    HW168024   8.530   2.709   2.296
18790SOL    HW268025   8.409   2.814   2.262
18791SOL     OW68026   0.499   5.394   0.198
18791SOL    HW168027   0.590   5.416   0.232
18791SOL    HW268028   0.436   5.468   0.222
18792SOL     OW68029   5.983   0.827   2.096
18792SOL    HW168030   6.018   0.800   2.006
18792SOL    HW268031   5.911   0.763   2.124
18793SOL     OW68032   6.701   1.718   0.293
18793SOL    HW168033   6.640   1.640   0.307
18793SOL    HW268034   6.738   1.715   0.200
18794SOL     OW68035   8.664   7.720   0.709
18794SOL    HW168036   8.622   7.802   0.748
18794SOL    HW268037   8.624   7.701   0.620
18795SOL     OW68038   7.424   7.629   3.963
18795SOL    HW168039   7.454   7.585   3.878
18795SOL    HW268040   7.468   7.584   4.040
18796SOL     OW68041   9.673   9.449   0.369
18796SOL    HW168042   9.707   9.377   0.309
18796SOL    HW268043   9.606   9.504   0.321
18797SOL     OW68044   7.374   1.542   7.629
18797SOL    HW168045   7.378   1.544   7.729
18797SOL    HW268046   7.301   1.480   7.600
18798SOL     OW68047   8.562   9.691   5.762
18798SOL    HW168048   8.611   9.729   5.841
18798SOL    HW268049   8.544   9.594   5.777
18799SOL     OW68050   6.642   1.434   2.547
18799SOL    HW168051   6.554   1.433   2.594
18799SOL    HW268052   6.716   1.442   2.613
18800SOL     OW68053   2.814   2.184   0.531
18800SOL    HW168054   2.849   2.272   0.500
18800SOL    HW268055   2.884   2.138   0.585
18801SOL     OW68056   1.340   4.236   0.824
18801SOL    HW168057   1.306   4.143   0.813
18801SOL    HW268058   1.403   4.240   0.901
18802SOL     OW68059   3.497   5.251   6.528
18802SOL    HW168060   3.481   5.243   6.627
18802SOL    HW268061   3.442   5.183   6.480
18803SOL     OW68062   4.373   0.630   2.481
18803SOL    HW168063   4.342   0.697   2.414
18803SOL    HW268064   4.331   0.541   2.461
18804SOL     OW68065   7.441   1.794   4.355
18804SOL    HW168066   7.493   1.877   4.377
18804SOL    HW268067   7.464   1.722   4.421
18805SOL     OW68068   1.211   6.622   3.202
18805SOL    HW168069   1.309   6.623   3.184
18805SOL    HW268070   1.194   6.587   3.295
18806SOL     OW68071   3.640   7.064   3.646
18806SOL    HW168072   3.551   7.096   3.679
18806SOL    HW268073   3.692   7.025   3.722
18807SOL     OW68074   5.075   2.704   0.314
18807SOL    HW168075   4.995   2.735   0.365
18807SOL    HW268076   5.047   2.667   0.226
18808SOL     OW68077   9.621   5.368   6.115
18808SOL    HW168078   9.656   5.279   6.146
18808SOL    HW268079   9.694   5.418   6.069
18809SOL     OW68080   0.943   4.650   7.746
18809SOL    HW168081   0.962   4.660   7.649
18809SOL    HW268082   0.880   4.573   7.760
18810SOL     OW68083   9.985   7.825   0.169
18810SOL    HW168084   9.918   7.775   0.115
18810SOL    HW268085   0.030   7.763   0.233
18811SOL     OW68086   4.209   6.616   1.417
18811SOL    HW168087   4.306   6.621   1.394
18811SOL    HW268088   4.198   6.587   1.512
18812SOL     OW68089   8.158   7.573   2.238
18812SOL    HW168090   8.194   7.513   2.309
18812SOL    HW268091   8.198   7.548   2.149
18813SOL     OW68092   0.216   4.117   7.940
18813SOL    HW168093   0.258   4.170   8.013
18813SOL    HW268094   0.118   4.136   7.937
18814SOL     OW68095   4.123   5.447   1.807
18814SOL    HW168096   4.170   5.454   1.896
18814SOL    HW268097   4.176   5.389   1.746
18815SOL     OW68098   0.983   2.067   6.937
18815SOL    HW168099   1.004   2.048   7.033
18815SOL    HW268100   1.057   2.122   6.897
18816SOL     OW68101   4.032   4.885   6.737
18816SOL    HW168102   3.975   4.825   6.792
18816SOL    HW268103   3.990   4.975   6.730
18817SOL     OW68104   3.570   3.090   2.271
18817SOL    HW168105   3.594   3.134   2.184
18817SOL    HW268106   3.577   2.991   2.262
18818SOL     OW68107   7.861   3.749   7.665
18818SOL    HW168108   7.837   3.787   7.754
18818SOL    HW268109   7.788   3.769   7.599
18819SOL     OW68110   1.391   3.065   7.738
18819SOL    HW168111   1.385   3.161   7.763
18819SOL    HW268112   1.342   3.049   7.652
18820SOL     OW68113   2.549   0.835   0.177
18820SOL    HW168114   2.450   0.848   0.171
18820SOL    HW268115   2.569   0.737   0.182
18821SOL     OW68116   7.815   0.971   1.820
18821SOL    HW168117   7.895   0.963   1.879
18821SOL    HW268118   7.777   0.881   1.803
18822SOL     OW68119   3.155   0.152   3.391
18822SOL    HW168120   3.169   0.069   3.337
18822SOL    HW268121   3.107   0.129   3.476
18823SOL     OW68122   3.760   5.592   5.051
18823SOL    HW168123   3.686   5.526   5.065
18823SOL    HW268124   3.735   5.680   5.091
18824SOL     OW68125   8.752   9.340   2.296
18824SOL    HW168126   8.705   9.312   2.212
18824SOL    HW268127   8.721   9.432   2.322
18825SOL     OW68128   3.850   2.285   4.750
18825SOL    HW168129   3.845   2.193   4.788
18825SOL    HW268130   3.924   2.290   4.683
18826SOL     OW68131   2.543   4.006   4.713
18826SOL    HW168132   2.482   4.027   4.789
18826SOL    HW268133   2.631   4.052   4.729
18827SOL     OW68134   7.119   6.721   4.755
18827SOL    HW168135   7.146   6.703   4.850
18827SOL    HW268136   7.199   6.711   4.695
18828SOL     OW68137   1.261   6.503   0.221
18828SOL    HW168138   1.249   6.435   0.293
18828SOL    HW268139   1.183   6.566   0.220
18829SOL     OW68140   2.179   1.798   2.118
18829SOL    HW168141   2.264   1.771   2.164
18829SOL    HW268142   2.159   1.733   2.045
18830SOL     OW68143   6.752   1.745   4.014
18830SOL    HW168144   6.660   1.785   4.017
18830SOL    HW268145   6.744   1.645   4.019
18831SOL     OW68146   3.853   5.167   4.290
18831SOL    HW168147   3.923   5.096   4.278
18831SOL    HW268148   3.859   5.233   4.215
18832SOL     OW68149   9.924   6.825   5.166
18832SOL    HW168150   9.876   6.911   5.152
18832SOL    HW268151   9.952   6.818   5.262
18833SOL     OW68152   3.412   4.427   1.311
18833SOL    HW168153   3.426   4.523   1.334
18833SOL    HW268154   3.364   4.381   1.385
18834SOL     OW68155   7.489   6.431   6.285
18834SOL    HW168156   7.577   6.389   6.262
18834SOL    HW268157   7.440   6.454   6.200
18835SOL     OW68158   3.638   9.025   5.696
18835SOL    HW168159   3.583   9.002   5.616
18835SOL    HW268160   3.702   8.950   5.715
18836SOL     OW68161   5.387   1.577   4.974
18836SOL    HW168162   5.333   1.589   4.890
18836SOL    HW268163   5.435   1.489   4.970
18837SOL     OW68164   1.140   6.843   4.864
18837SOL    HW168165   1.175   6.901   4.790
18837SOL    HW268166   1.154   6.889   4.951
18838SOL     OW68167   7.540   8.289   1.446
18838SOL    HW168168   7.527   8.381   1.410
18838SOL    HW268169   7.637   8.263   1.439
18839SOL     OW68170   0.378   1.450   3.348
18839SOL    HW168171   0.368   1.446   3.249
18839SOL    HW268172   0.457   1.506   3.372
18840SOL     OW68173   8.373   5.355   0.889
18840SOL    HW168174   8.414   5.423   0.948
18840SOL    HW268175   8.297   5.310   0.937
18841SOL     OW68176   3.469   6.779   2.105
18841SOL    HW168177   3.496   6.691   2.145
18841SOL    HW268178   3.531   6.802   2.030
18842SOL     OW68179   8.052   8.507   5.805
18842SOL    HW168180   7.954   8.520   5.792
18842SOL    HW268181   8.102   8.576   5.754
18843SOL     OW68182   1.441   0.352   6.206
18843SOL    HW168183   1.406   0.264   6.240
18843SOL    HW268184   1.450   0.416   6.282
18844SOL     OW68185   2.379   3.909   1.469
18844SOL    HW168186   2.325   3.905   1.553
18844SOL    HW268187   2.348   3.987   1.414
18845SOL     OW68188   3.486   9.764   4.173
18845SOL    HW168189   3.408   9.748   4.233
18845SOL    HW268190   3.518   9.677   4.137
18846SOL     OW68191   3.663   5.826   5.161
18846SOL    HW168192   3.713   5.847   5.245
18846SOL    HW268193   3.670   5.902   5.098
18847SOL     OW68194   8.961   2.936   7.765
18847SOL    HW168195   8.992   2.947   7.671
18847SOL    HW268196   9.041   2.932   7.826
18848SOL     OW68197   9.511   9.076   2.839
18848SOL    HW168198   9.466   9.074   2.928
18848SOL    HW268199   9.499   9.167   2.798
18849SOL     OW68200   0.847   1.962   5.291
18849SOL    HW168201   0.890   1.897   5.354
18849SOL    HW268202   0.845   1.923   5.199
18850SOL     OW68203   1.831   5.013   6.910
18850SOL    HW168204   1.926   4.982   6.915
18850SOL    HW268205   1.771   4.943   6.949
18851SOL     OW68206   1.605   7.770   3.594
18851SOL    HW168207   1.559   7.714   3.663
18851SOL    HW268208   1.658   7.711   3.533
18852SOL     OW68209   8.931   7.394   0.875
18852SOL    HW168210   8.942   7.482   0.828
18852SOL    HW268211   8.929   7.409   0.974
18853SOL     OW68212   0.141   5.000   6.702
18853SOL    HW168213   0.044   5.023   6.712
18853SOL    HW268214   0.189   5.022   6.786
18854SOL     OW68215   9.717   7.489   0.520
18854SOL    HW168216   9.731   7.587   0.528
18854SOL    HW268217   9.639   7.471   0.459
18855SOL     OW68218   2.987   8.507   4.065
18855SOL    HW168219   2.928   8.581   4.034
18855SOL    HW268220   3.036   8.468   3.986
18856SOL     OW68221   0.898   3.163   4.259
18856SOL    HW168222   0.919   3.261   4.262
18856SOL    HW268223   0.809   3.149   4.215
18857SOL     OW68224   3.169   1.313   4.710
18857SOL    HW168225   3.169   1.306   4.810
18857SOL    HW268226   3.145   1.224   4.671
18858SOL     OW68227   9.690   0.568   7.711
18858SOL    HW168228   9.723   0.477   7.687
18858SOL    HW268229   9.594   0.563   7.737
18859SOL     OW68230   3.052   0.683   1.133
18859SOL    HW168231   3.066   0.772   1.177
18859SOL    HW268232   3.061   0.692   1.034
18860SOL     OW68233   4.048   9.406   1.236
18860SOL    HW168234   4.071   9.345   1.312
18860SOL    HW268235   3.950   9.428   1.240
18861SOL     OW68236   2.445   3.810   6.261
18861SOL    HW168237   2.345   3.807   6.264
18861SOL    HW268238   2.476   3.904   6.273
18862SOL     OW68239   4.977   5.953   2.359
18862SOL    HW168240   5.032   5.908   2.429
18862SOL    HW268241   4.880   5.942   2.380
18863SOL     OW68242   3.222   0.896   7.761
18863SOL    HW168243   3.268   0.983   7.747
18863SOL    HW268244   3.286   0.830   7.801
18864SOL     OW68245   8.242   7.109   5.192
18864SOL    HW168246   8.148   7.132   5.166
18864SOL    HW268247   8.243   7.071   5.285
18865SOL     OW68248   7.258   8.733   7.775
18865SOL    HW168249   7.338   8.780   7.812
18865SOL    HW268250   7.269   8.720   7.677
18866SOL     OW68251   6.073   4.086   2.165
18866SOL    HW168252   5.993   4.041   2.203
18866SOL    HW268253   6.118   4.025   2.100
18867SOL     OW68254   9.597   3.759   6.248
18867SOL    HW168255   9.676   3.721   6.297
18867SOL    HW268256   9.516   3.703   6.268
18868SOL     OW68257   4.992   8.943   1.227
18868SOL    HW168258   4.967   8.851   1.259
18868SOL    HW268259   4.911   9.002   1.231
18869SOL     OW68260   6.637   1.752   1.046
18869SOL    HW168261   6.608   1.836   1.001
18869SOL    HW268262   6.737   1.750   1.051
18870SOL     OW68263   9.261   9.602   5.039
18870SOL    HW168264   9.292   9.520   5.089
18870SOL    HW268265   9.190   9.576   4.973
18871SOL     OW68266   0.776   9.309   1.263
18871SOL    HW168267   0.722   9.391   1.245
18871SOL    HW268268   0.817   9.277   1.177
18872SOL     OW68269   2.860   9.985   4.371
18872SOL    HW168270   2.813   0.056   4.318
18872SOL    HW268271   2.958   0.003   4.372
18873SOL     OW68272   2.387   3.439   3.434
18873SOL    HW168273   2.407   3.528   3.474
18873SOL    HW268274   2.348   3.451   3.343
18874SOL     OW68275   3.328   1.704   5.463
18874SOL    HW168276   3.333   1.710   5.562
18874SOL    HW268277   3.294   1.791   5.426
18875SOL     OW68278   1.220   3.445   7.552
18875SOL    HW168279   1.200   3.392   7.469
18875SOL    HW268280   1.284   3.518   7.530
18876SOL     OW68281   6.235   9.040   3.865
18876SOL    HW168282   6.205   9.120   3.814
18876SOL    HW268283   6.302   8.989   3.811
18877SOL     OW68284   0.498   2.789   3.282
18877SOL    HW168285   0.453   2.878   3.272
18877SOL    HW268286   0.549   2.787   3.369
18878SOL     OW68287   3.088   8.255   4.836
18878SOL    HW168288   3.158   8.285   4.772
18878SOL    HW268289   3.132   8.212   4.915
18879SOL     OW68290   6.438   4.252   0.109
18879SOL    HW168291   6.398   4.269   0.199
18879SOL    HW268292   6.383   4.296   0.039
18880SOL     OW68293   8.865   6.887   4.442
18880SOL    HW168294   8.844   6.792   4.420
18880SOL    HW268295   8.845   6.945   4.362
18881SOL     OW68296   8.900   8.200   3.620
18881SOL    HW168297   8.903   8.107   3.654
18881SOL    HW268298   8.992   8.228   3.591
18882SOL     OW68299   9.847   3.796   0.648
18882SOL    HW168300   9.884   3.888   0.657
18882SOL    HW268301   9.747   3.799   0.658
18883SOL     OW68302   2.937   7.456   0.271
18883SOL    HW168303   2.898   7.539   0.311
18883SOL    HW268304   2.912   7.377   0.327
18884SOL     OW68305   3.849   6.291   1.143
18884SOL    HW168306   3.860   6.380   1.099
18884SOL    HW268307   3.776   6.296   1.211
18885SOL     OW68308   0.398   1.606   2.843
18885SOL    HW168309   0.353   1.693   2.862
18885SOL    HW268310   0.376   1.577   2.750
18886SOL     OW68311   5.425   1.120   0.237
18886SOL    HW168312   5.375   1.033   0.246
18886SOL    HW268313   5.522   1.104   0.252
18887SOL     OW68314   0.164   3.161   7.828
18887SOL    HW168315   0.081   3.112   7.803
18887SOL    HW268316   0.166   3.250   7.781
18888SOL     OW68317   3.124   2.719   2.759
18888SOL    HW168318   3.188   2.788   2.726
18888SOL    HW268319   3.111   2.649   2.688
18889SOL     OW68320   2.614   4.272   3.105
18889SOL    HW168321   2.634   4.260   3.008
18889SOL    HW268322   2.516   4.257   3.121
18890SOL     OW68323   8.396   4.320   2.800
18890SOL    HW168324   8.306   4.349   2.833
18890SOL    HW268325   8.385   4.242   2.738
18891SOL     OW68326   3.536   1.446   1.885
18891SOL    HW168327   3.608   1.377   1.885
18891SOL    HW268328   3.520   1.478   1.791
18892SOL     OW68329   9.556   6.153   6.746
18892SOL    HW168330   9.575   6.064   6.704
18892SOL    HW268331   9.531   6.140   6.842
18893SOL     OW68332   9.532   2.648   0.401
18893SOL    HW168333   9.439   2.649   0.364
18893SOL    HW268334   9.595   2.688   0.334
18894SOL     OW68335   5.053   2.219   0.917
18894SOL    HW168336   4.998   2.142   0.887
18894SOL    HW268337   5.113   2.191   0.992
18895SOL     OW68338   0.216   8.330   7.338
18895SOL    HW168339   0.178   8.238   7.333
18895SOL    HW268340   0.256   8.355   7.250
18896SOL     OW68341   7.809   6.690   0.443
18896SOL    HW168342   7.879   6.757   0.420
18896SOL    HW268343   7.825   6.606   0.390
18897SOL     OW68344   0.224   7.507   6.374
18897SOL    HW168345   0.246   7.601   6.400
18897SOL    HW268346   0.275   7.482   6.292
18898SOL     OW68347   8.966   2.762   1.759
18898SOL    HW168348   8.928   2.706   1.686
18898SOL    HW268349   8.936   2.726   1.847
18899SOL     OW68350   9.301   4.796   2.024
18899SOL    HW168351   9.354   4.717   1.994
18899SOL    HW268352   9.362   4.870   2.051
18900SOL     OW68353   4.280   4.136   1.765
18900SOL    HW168354   4.363   4.159   1.817
18900SOL    HW268355   4.298   4.145   1.668
18901SOL     OW68356   1.658   5.084   4.459
18901SOL    HW168357   1.663   5.157   4.390
18901SOL    HW268358   1.739   5.026   4.452
18902SOL     OW68359   7.121   1.377   0.232
18902SOL    HW168360   7.206   1.384   0.180
18902SOL    HW268361   7.078   1.288   0.214
18903SOL     OW68362   2.156   3.591   6.957
18903SOL    HW168363   2.162   3.551   6.866
18903SOL    HW268364   2.242   3.637   6.979
18904SOL     OW68365   1.904   7.899   2.963
18904SOL    HW168366   1.822   7.937   3.008
18904SOL    HW268367   1.974   7.881   3.032
18905SOL     OW68368   5.602   0.638   4.937
18905SOL    HW168369   5.528   0.608   4.998
18905SOL    HW268370   5.632   0.729   4.963
18906SOL     OW68371   1.967   4.645   5.610
18906SOL    HW168372   1.909   4.610   5.537
18906SOL    HW268373   1.979   4.575   5.680
18907SOL     OW68374   8.867   5.687   3.555
18907SOL    HW168375   8.773   5.657   3.540
18907SOL    HW268376   8.868   5.760   3.624
18908SOL     OW68377   1.463   0.202   5.531
18908SOL    HW168378   1.365   0.207   5.549
18908SOL    HW268379   1.478   0.208   5.432
18909SOL     OW68380   8.014   0.004   5.792
18909SOL    HW168381   7.941   0.034   5.854
18909SOL    HW268382   8.013   0.061   5.710
18910SOL     OW68383   9.752   8.031   1.453
18910SOL    HW168384   9.660   8.027   1.413
18910SOL    HW268385   9.752   7.983   1.541
18911SOL     OW68386   0.832   5.852   1.925
18911SOL    HW168387   0.858   5.873   2.020
18911SOL    HW268388   0.740   5.812   1.924
18912SOL     OW68389   1.838   8.662   7.672
18912SOL    HW168390   1.818   8.726   7.746
18912SOL    HW268391   1.789   8.689   7.590
18913SOL     OW68392   5.424   0.912   3.725
18913SOL    HW168393   5.377   0.872   3.646
18913SOL    HW268394   5.503   0.964   3.693
18914SOL     OW68395   0.285   2.142   5.029
18914SOL    HW168396   0.350   2.129   5.103
18914SOL    HW268397   0.203   2.189   5.063
18915SOL     OW68398   9.989   1.207   0.627
18915SOL    HW168399   9.920   1.197   0.699
18915SOL    HW268400   9.982   1.298   0.586
18916SOL     OW68401   1.141   5.794   1.281
18916SOL    HW168402   1.062   5.854   1.294
18916SOL    HW268403   1.161   5.747   1.368
18917SOL     OW68404   4.295   1.420   0.228
18917SOL    HW168405   4.337   1.510   0.217
18917SOL    HW268406   4.196   1.428   0.217
18918SOL     OW68407   9.006   4.358   1.844
18918SOL    HW168408   8.989   4.435   1.907
18918SOL    HW268409   8.934   4.356   1.775
18919SOL     OW68410   4.846   0.707   0.869
18919SOL    HW168411   4.915   0.694   0.797
18919SOL    HW268412   4.775   0.769   0.837
18920SOL     OW68413   0.349   4.952   7.460
18920SOL    HW168414   0.256   4.918   7.441
18920SOL    HW268415   0.383   4.911   7.544
18921SOL     OW68416   6.925   8.839   3.561
18921SOL    HW168417   6.929   8.935   3.533
18921SOL    HW268418   6.914   8.781   3.481
18922SOL     OW68419   2.369   8.857   3.246
18922SOL    HW168420   2.445   8.905   3.291
18922SOL    HW268421   2.323   8.919   3.183
18923SOL     OW68422   4.862   8.536   2.659
18923SOL    HW168423   4.882   8.485   2.575
18923SOL    HW268424   4.763   8.553   2.665
18924SOL     OW68425   1.987   9.966   5.388
18924SOL    HW168426   1.910   0.021   5.357
18924SOL    HW268427   1.954   9.890   5.444
18925SOL     OW68428   9.684   8.986   5.922
18925SOL    HW168429   9.596   8.984   5.971
18925SOL    HW268430   9.723   8.894   5.920
18926SOL     OW68431   0.890   8.103   1.747
18926SOL    HW168432   0.840   8.023   1.714
18926SOL    HW268433   0.938   8.147   1.670
18927SOL     OW68434   0.342   7.048   7.270
18927SOL    HW168435   0.354   7.148   7.273
18927SOL    HW268436   0.249   7.026   7.300
18928SOL     OW68437   4.037   8.435   0.513
18928SOL    HW168438   4.063   8.340   0.529
18928SOL    HW268439   4.075   8.466   0.425
18929SOL     OW68440   0.490   9.543   0.573
18929SOL    HW168441   0.565   9.476   0.577
18929SOL    HW268442   0.521   9.625   0.526
18930SOL     OW68443   6.947   5.655   0.922
18930SOL    HW168444   6.975   5.732   0.979
18930SOL    HW268445   7.027   5.601   0.897
18931SOL     OW68446   1.431   6.976   5.804
18931SOL    HW168447   1.380   6.892   5.790
18931SOL    HW268448   1.518   6.956   5.851
18932SOL     OW68449   0.611   0.655   7.256
18932SOL    HW168450   0.519   0.625   7.281
18932SOL    HW268451   0.666   0.665   7.338
18933SOL     OW68452   1.350   8.129   5.466
18933SOL    HW168453   1.373   8.097   5.374
18933SOL    HW268454   1.412   8.202   5.493
18934SOL     OW68455   8.198   1.046   5.791
18934SOL    HW168456   8.102   1.059   5.765
18934SOL    HW268457   8.234   0.964   5.747
18935SOL     OW68458   4.176   0.975   3.828
18935SOL    HW168459   4.245   0.950   3.897
18935SOL    HW268460   4.149   0.893   3.778
18936SOL     OW68461   9.715   3.535   0.585
18936SOL    HW168462   9.772   3.616   0.572
18936SOL    HW268463   9.717   3.478   0.503
18937SOL     OW68464   8.724   2.944   2.239
18937SOL    HW168465   8.639   2.898   2.263
18937SOL    HW268466   8.744   3.016   2.306
18938SOL     OW68467   5.518   1.815   6.992
18938SOL    HW168468   5.432   1.866   6.992
18938SOL    HW268469   5.562   1.823   7.082
18939SOL     OW68470   9.153   9.326   7.286
18939SOL    HW168471   9.125   9.349   7.380
18939SOL    HW268472   9.249   9.299   7.286
18940SOL     OW68473   3.555   6.060   1.665
18940SOL    HW168474   3.491   6.071   1.740
18940SOL    HW268475   3.509   6.017   1.587
18941SOL     OW68476   8.352   1.561   3.652
18941SOL    HW168477   8.409   1.496   3.603
18941SOL    HW268478   8.338   1.643   3.596
18942SOL     OW68479   0.015   3.776   4.026
18942SOL    HW168480   9.993   3.678   4.023
18942SOL    HW268481   9.943   3.825   4.075
18943SOL     OW68482   2.381   1.198   4.172
18943SOL    HW168483   2.323   1.258   4.227
18943SOL    HW268484   2.476   1.230   4.176
18944SOL     OW68485   5.911   8.705   6.041
18944SOL    HW168486   5.840   8.773   6.055
18944SOL    HW268487   5.946   8.711   5.948
18945SOL     OW68488   0.908   0.481   0.259
18945SOL    HW168489   0.961   0.494   0.343
18945SOL    HW268490   0.964   0.505   0.180
18946SOL     OW68491   0.685   3.517   1.337
18946SOL    HW168492   0.627   3.593   1.367
18946SOL    HW268493   0.645   3.431   1.367
18947SOL     OW68494   9.920   3.643   3.479
18947SOL    HW168495   9.952   3.561   3.433
18947SOL    HW268496   9.830   3.669   3.443
18948SOL     OW68497   5.799   0.638   4.710
18948SOL    HW168498   5.855   0.720   4.716
18948SOL    HW268499   5.736   0.635   4.788
18949SOL     OW68500   4.847   8.452   2.974
18949SOL    HW168501   4.927   8.392   2.969
18949SOL    HW268502   4.836   8.500   2.887
18950SOL     OW68503   1.064   9.153   0.214
18950SOL    HW168504   0.969   9.125   0.203
18950SOL    HW268505   1.111   9.090   0.277
18951SOL     OW68506   0.405   6.817   2.380
18951SOL    HW168507   0.336   6.745   2.390
18951SOL    HW268508   0.476   6.785   2.317
18952SOL     OW68509   1.062   7.455   7.254
18952SOL    HW168510   1.028   7.532   7.200
18952SOL    HW268511   1.063   7.480   7.350
18953SOL     OW68512   0.985   5.403   3.055
18953SOL    HW168513   1.071   5.354   3.075
18953SOL    HW268514   0.909   5.339   3.062
18954SOL     OW68515   6.327   7.611   4.821
18954SOL    HW168516   6.363   7.704   4.821
18954SOL    HW268517   6.317   7.579   4.915
18955SOL     OW68518   1.176   8.287   6.236
18955SOL    HW168519   1.127   8.274   6.323
18955SOL    HW268520   1.146   8.219   6.170
18956SOL     OW68521   0.011   0.561   0.924
18956SOL    HW168522   9.993   0.602   0.835
18956SOL    HW268523   0.052   0.471   0.912
18957SOL     OW68524   2.474   2.827   2.339
18957SOL    HW168525   2.501   2.923   2.327
18957SOL    HW268526   2.377   2.816   2.318
18958SOL     OW68527   9.274   2.336   7.595
18958SOL    HW168528   9.283   2.250   7.545
18958SOL    HW268529   9.362   2.360   7.636
18959SOL     OW68530   3.394   8.961   7.396
18959SOL    HW168531   3.426   8.996   7.308
18959SOL    HW268532   3.369   8.865   7.387
18960SOL     OW68533   4.309   1.608   7.227
18960SOL    HW168534   4.237   1.661   7.273
18960SOL    HW268535   4.275   1.576   7.139
18961SOL     OW68536   2.506   0.306   6.550
18961SOL    HW168537   2.470   0.346   6.634
18961SOL    HW268538   2.595   0.263   6.568
18962SOL     OW68539   3.582   8.740   7.760
18962SOL    HW168540   3.592   8.822   7.703
18962SOL    HW268541   3.487   8.707   7.754
18963SOL     OW68542   9.258   3.631   5.688
18963SOL    HW168543   9.293   3.672   5.772
18963SOL    HW268544   9.303   3.543   5.673
18964SOL     OW68545   3.028   9.577   0.684
18964SOL    HW168546   2.997   9.666   0.718
18964SOL    HW268547   2.951   9.528   0.644
18965SOL     OW68548   1.318   2.104   7.197
18965SOL    HW168549   1.226   2.070   7.179
18965SOL    HW268550   1.385   2.034   7.175
18966SOL     OW68551   7.628   5.890   4.727
18966SOL    HW168552   7.642   5.972   4.781
18966SOL    HW268553   7.531   5.863   4.732
18967SOL     OW68554   2.970   5.840   4.695
18967SOL    HW168555   2.958   5.883   4.605
18967SOL    HW268556   2.890   5.856   4.751
18968SOL     OW68557   0.640   9.073   2.428
18968SOL    HW168558   0.737   9.054   2.419
18968SOL    HW268559   0.613   9.068   2.524
18969SOL     OW68560   2.141   1.427   4.944
18969SOL    HW168561   2.180   1.450   4.855
18969SOL    HW268562   2.089   1.505   4.979
18970SOL     OW68563   1.629   0.643   3.118
18970SOL    HW168564   1.559   0.698   3.164
18970SOL    HW268565   1.708   0.700   3.097
18971SOL     OW68566   6.403   2.847   2.832
18971SOL    HW168567   6.408   2.834   2.733
18971SOL    HW268568   6.492   2.826   2.873
18972SOL     OW68569   2.759   8.924   1.831
18972SOL    HW168570   2.795   9.017   1.839
18972SOL    HW268571   2.834   8.858   1.839
18973SOL     OW68572   7.753   0.960   3.568
18973SOL    HW168573   7.681   0.929   3.507
18973SOL    HW268574   7.728   1.049   3.607
18974SOL     OW68575   7.436   3.986   4.014
18974SOL    HW168576   7.474   3.963   4.104
18974SOL    HW268577   7.354   3.931   3.998
18975SOL     OW68578   0.676   7.695   7.818
18975SOL    HW168579   0.662   7.602   7.852
18975SOL    HW268580   0.703   7.754   7.893
18976SOL     OW68581   6.232   0.965   4.182
18976SOL    HW168582   6.293   0.926   4.252
18976SOL    HW268583   6.252   0.923   4.094
18977SOL     OW68584   5.406   0.214   2.762
18977SOL    HW168585   5.395   0.313   2.752
18977SOL    HW268586   5.320   0.174   2.794
18978SOL     OW68587   2.251   1.027   2.883
18978SOL    HW168588   2.213   1.017   2.975
18978SOL    HW268589   2.351   1.020   2.887
18979SOL     OW68590   6.819   8.539   6.843
18979SOL    HW168591   6.815   8.460   6.782
18979SOL    HW268592   6.893   8.525   6.909
18980SOL     OW68593   9.161   0.767   5.590
18980SOL    HW168594   9.255   0.734   5.579
18980SOL    HW268595   9.107   0.741   5.509
18981SOL     OW68596   6.558   0.018   4.228
18981SOL    HW168597   6.540   0.093   4.165
18981SOL    HW268598   6.475   9.962   4.237
18982SOL     OW68599   7.974   9.244   3.228
18982SOL    HW168600   8.012   9.334   3.207
18982SOL    HW268601   8.044   9.174   3.213
18983SOL     OW68602   4.963   9.997   5.102
18983SOL    HW168603   4.992   9.968   5.193
18983SOL    HW268604   4.987   0.093   5.089
18984SOL     OW68605   7.390   9.896   6.346
18984SOL    HW168606   7.345   9.901   6.257
18984SOL    HW268607   7.476   9.947   6.343
18985SOL     OW68608   8.825   7.777   2.176
18985SOL    HW168609   8.840   7.703   2.241
18985SOL    HW268610   8.906   7.836   2.174
18986SOL     OW68611   3.466   8.581   1.817
18986SOL    HW168612   3.447   8.576   1.915
18986SOL    HW268613   3.381   8.572   1.766
18987SOL     OW68614   1.904   4.393   3.542
18987SOL    HW168615   1.969   4.467   3.559
18987SOL    HW268616   1.950   4.319   3.492
18988SOL     OW68617   9.195   3.790   0.317
18988SOL    HW168618   9.143   3.782   0.232
18988SOL    HW268619   9.137   3.831   0.387
18989SOL     OW68620   0.575   2.078   7.893
18989SOL    HW168621   0.623   2.165   7.901
18989SOL    HW268622   0.513   2.067   7.970
18990SOL     OW68623   7.944   9.959   5.398
18990SOL    HW168624   7.970   0.024   5.469
18990SOL    HW268625   7.943   9.866   5.435
18991SOL     OW68626   0.203   9.400   6.908
18991SOL    HW168627   0.298   9.371   6.916
18991SOL    HW268628   0.146   9.322   6.880
18992SOL     OW68629   3.623   2.062   6.695
18992SOL    HW168630   3.565   2.139   6.720
18992SOL    HW268631   3.703   2.060   6.754
18993SOL     OW68632   2.561   0.560   3.088
18993SOL    HW168633   2.535   0.493   3.018
18993SOL    HW268634   2.639   0.613   3.056
18994SOL     OW68635   5.781   4.789   2.727
18994SOL    HW168636   5.797   4.785   2.826
18994SOL    HW268637   5.867   4.808   2.680
18995SOL     OW68638   8.347   3.163   5.490
18995SOL    HW168639   8.385   3.183   5.580
18995SOL    HW268640   8.418   3.177   5.421
18996SOL     OW68641   3.655   0.562   4.454
18996SOL    HW168642   3.747   0.602   4.451
18996SOL    HW268643   3.641   0.505   4.373
18997SOL     OW68644   8.610   0.301   1.838
18997SOL    HW168645   8.676   0.334   1.771
18997SOL    HW268646   8.522   0.284   1.793
18998SOL     OW68647   8.842   9.109   0.931
18998SOL    HW168648   8.886   9.151   0.852
18998SOL    HW268649   8.846   9.009   0.922
18999SOL     OW68650   6.181   8.984   1.752
18999SOL    HW168651   6.145   8.936   1.832
18999SOL    HW268652   6.280   8.973   1.749
19000SOL     OW68653   7.688   8.287   1.763
19000SOL    HW168654   7.738   8.259   1.845
19000SOL    HW268655   7.753   8.309   1.690
19001SOL     OW68656   5.690   1.745   6.771
19001SOL    HW168657   5.629   1.785   6.839
19001SOL    HW268658   5.706   1.812   6.698
19002SOL     OW68659   4.063   8.136   6.673
19002SOL    HW168660   3.996   8.080   6.722
19002SOL    HW268661   4.104   8.083   6.599
19003SOL     OW68662   4.559   2.868   7.517
19003SOL    HW168663   4.518   2.935   7.579
19003SOL    HW268664   4.573   2.781   7.564
19004SOL     OW68665   6.602   7.659   5.852
19004SOL    HW168666   6.698   7.638   5.832
19004SOL    HW268667   6.595   7.703   5.941
19005SOL     OW68668   9.109   5.272   2.373
19005SOL    HW168669   9.123   5.238   2.466
19005SOL    HW268670   9.063   5.202   2.318
19006SOL     OW68671   2.936   3.559   3.265
19006SOL    HW168672   2.992   3.639   3.287
19006SOL    HW268673   2.883   3.578   3.181
19007SOL     OW68674   7.285   5.956   0.746
19007SOL    HW168675   7.215   6.025   0.728
19007SOL    HW268676   7.286   5.935   0.844
19008SOL     OW68677   0.780   6.235   5.120
19008SOL    HW168678   0.855   6.196   5.065
19008SOL    HW268679   0.720   6.288   5.060
19009SOL     OW68680   0.990   1.283   4.511
19009SOL    HW168681   0.921   1.352   4.534
19009SOL    HW268682   0.957   1.193   4.541
19010SOL     OW68683   1.156   4.749   2.708
19010SOL    HW168684   1.105   4.829   2.738
19010SOL    HW268685   1.092   4.679   2.676
19011SOL     OW68686   1.059   5.331   7.585
19011SOL    HW168687   1.089   5.321   7.491
19011SOL    HW268688   1.079   5.247   7.636
19012SOL     OW68689   4.079   1.204   3.937
19012SOL    HW168690   4.107   1.117   3.898
19012SOL    HW268691   3.979   1.210   3.936
19013SOL     OW68692   1.745   5.712   1.029
19013SOL    HW168693   1.687   5.692   1.107
19013SOL    HW268694   1.761   5.629   0.976
19014SOL     OW68695   3.269   7.810   6.815
19014SOL    HW168696   3.345   7.745   6.813
19014SOL    HW268697   3.182   7.760   6.815
19015SOL     OW68698   5.584   1.750   6.342
19015SOL    HW168699   5.643   1.807   6.399
19015SOL    HW268700   5.505   1.720   6.396
19016SOL     OW68701   2.955   7.829   5.233
19016SOL    HW168702   2.911   7.918   5.241
19016SOL    HW268703   3.025   7.833   5.161
19017SOL     OW68704   5.292   5.851   1.561
19017SOL    HW168705   5.202   5.891   1.574
19017SOL    HW268706   5.359   5.900   1.617
19018SOL     OW68707   9.944   4.514   7.492
19018SOL    HW168708   0.030   4.505   7.542
19018SOL    HW268709   9.868   4.517   7.556
19019SOL     OW68710   8.657   6.767   7.244
19019SOL    HW168711   8.658   6.685   7.302
19019SOL    HW268712   8.599   6.749   7.164
19020SOL     OW68713   8.631   2.475   6.786
19020SOL    HW168714   8.552   2.447   6.732
19020SOL    HW268715   8.640   2.415   6.866
19021SOL     OW68716   3.297   4.838   3.136
19021SOL    HW168717   3.219   4.778   3.119
19021SOL    HW268718   3.271   4.909   3.201
19022SOL     OW68719   3.048   1.403   2.099
19022SOL    HW168720   2.986   1.467   2.144
19022SOL    HW268721   3.138   1.446   2.087
19023SOL     OW68722   9.342   0.347   5.346
19023SOL    HW168723   9.355   0.249   5.330
19023SOL    HW268724   9.317   0.362   5.442
19024SOL     OW68725   4.593   9.408   3.047
19024SOL    HW168726   4.496   9.385   3.041
19024SOL    HW268727   4.611   9.458   3.131
19025SOL     OW68728   6.047   4.505   0.419
19025SOL    HW168729   6.005   4.426   0.376
19025SOL    HW268730   6.113   4.475   0.488
19026SOL     OW68731   4.460   9.325   4.068
19026SOL    HW168732   4.374   9.322   4.118
19026SOL    HW268733   4.533   9.358   4.129
19027SOL     OW68734   1.213   6.450   6.904
19027SOL    HW168735   1.201   6.427   6.807
19027SOL    HW268736   1.268   6.380   6.949
19028SOL     OW68737   6.966   6.042   2.786
19028SOL    HW168738   6.907   6.009   2.712
19028SOL    HW268739   7.025   5.968   2.817
19029SOL     OW68740   4.007   4.313   0.411
19029SOL    HW168741   4.038   4.240   0.350
19029SOL    HW268742   4.081   4.379   0.423
19030SOL     OW68743   0.463   6.531   7.006
19030SOL    HW168744   0.501   6.571   7.089
19030SOL    HW268745   0.388   6.588   6.973
19031SOL     OW68746   8.215   0.668   1.113
19031SOL    HW168747   8.295   0.661   1.173
19031SOL    HW268748   8.212   0.760   1.073
19032SOL     OW68749   0.061   1.995   2.779
19032SOL    HW168750   0.080   2.093   2.771
19032SOL    HW268751   9.996   1.980   2.853
19033SOL     OW68752   1.837   8.338   3.150
19033SOL    HW168753   1.774   8.368   3.078
19033SOL    HW268754   1.815   8.244   3.177
19034SOL     OW68755   7.403   2.047   0.955
19034SOL    HW168756   7.460   2.087   0.883
19034SOL    HW268757   7.306   2.061   0.932
19035SOL     OW68758   9.963   4.974   1.189
19035SOL    HW168759   9.942   5.016   1.277
19035SOL    HW268760   0.053   4.930   1.194
19036SOL     OW68761   4.861   9.967   5.792
19036SOL    HW168762   4.788   9.898   5.788
19036SOL    HW268763   4.824   0.057   5.769
19037SOL     OW68764   9.213   4.405   6.091
19037SOL    HW168765   9.280   4.358   6.149
19037SOL    HW268766   9.249   4.410   5.997
19038SOL     OW68767   1.406   6.428   7.594
19038SOL    HW168768   1.498   6.457   7.567
19038SOL    HW268769   1.362   6.380   7.518
19039SOL     OW68770   2.805   8.428   0.969
19039SOL    HW168771   2.776   8.417   0.875
19039SOL    HW268772   2.875   8.500   0.974
19040SOL     OW68773   2.216   5.006   4.559
19040SOL    HW168774   2.171   5.029   4.472
19040SOL    HW268775   2.295   5.067   4.572
19041SOL     OW68776   2.858   4.893   7.335
19041SOL    HW168777   2.954   4.909   7.358
19041SOL    HW268778   2.815   4.981   7.313
19042SOL     OW68779   1.362   2.190   1.512
19042SOL    HW168780   1.368   2.274   1.457
19042SOL    HW268781   1.404   2.206   1.602
19043SOL     OW68782   5.659   1.223   3.877
19043SOL    HW168783   5.653   1.306   3.821
19043SOL    HW268784   5.601   1.233   3.958
19044SOL     OW68785   3.418   7.160   3.772
19044SOL    HW168786   3.447   7.150   3.867
19044SOL    HW268787   3.325   7.124   3.761
19045SOL     OW68788   0.339   9.462   6.474
19045SOL    HW168789   0.394   9.535   6.433
19045SOL    HW268790   0.377   9.373   6.450
19046SOL     OW68791   4.938   9.988   6.124
19046SOL    HW168792   4.967   9.913   6.065
19046SOL    HW268793   4.940   9.958   6.219
19047SOL     OW68794   0.732   9.475   6.433
19047SOL    HW168795   0.710   9.538   6.358
19047SOL    HW268796   0.798   9.519   6.494
19048SOL     OW68797   1.322   0.834   1.095
19048SOL    HW168798   1.341   0.930   1.114
19048SOL    HW268799   1.297   0.788   1.180
19049SOL     OW68800   7.290   3.528   3.494
19049SOL    HW168801   7.336   3.580   3.567
19049SOL    HW268802   7.344   3.446   3.473
19050SOL     OW68803   4.440   8.677   5.608
19050SOL    HW168804   4.431   8.770   5.572
19050SOL    HW268805   4.409   8.611   5.539
19051SOL     OW68806   3.185   8.108   5.041
19051SOL    HW168807   3.168   8.121   5.139
19051SOL    HW268808   3.201   8.011   5.024
19052SOL     OW68809   2.775   2.464   2.707
19052SOL    HW168810   2.820   2.439   2.792
19052SOL    HW268811   2.676   2.473   2.723
19053SOL     OW68812   1.029   1.952   0.853
19053SOL    HW168813   1.102   2.020   0.849
19053SOL    HW268814   1.032   1.895   0.771
19054SOL     OW68815   7.816   2.665   4.378
19054SOL    HW168816   7.818   2.717   4.293
19054SOL    HW268817   7.864   2.715   4.449
19055SOL     OW68818   0.269   3.672   6.325
19055SOL    HW168819   0.300   3.726   6.403
19055SOL    HW268820   0.338   3.673   6.253
19056SOL     OW68821   3.660   0.781   7.018
19056SOL    HW168822   3.745   0.831   7.035
19056SOL    HW268823   3.582   0.837   7.046
19057SOL     OW68824   6.632   1.527   6.563
19057SOL    HW168825   6.600   1.549   6.471
19057SOL    HW268826   6.723   1.485   6.557
19058SOL     OW68827   5.797   1.074   4.066
19058SOL    HW168828   5.764   1.124   3.986
19058SOL    HW268829   5.719   1.029   4.111
19059SOL     OW68830   8.762   4.705   6.912
19059SOL    HW168831   8.760   4.755   6.826
19059SOL    HW268832   8.669   4.685   6.942
19060SOL     OW68833   5.592   1.809   1.569
19060SOL    HW168834   5.523   1.808   1.496
19060SOL    HW268835   5.631   1.717   1.579
19061SOL     OW68836   9.701   0.447   4.478
19061SOL    HW168837   9.691   0.546   4.465
19061SOL    HW268838   9.628   0.400   4.429
19062SOL     OW68839   3.672   0.341   7.467
19062SOL    HW168840   3.707   0.247   7.473
19062SOL    HW268841   3.722   0.391   7.397
19063SOL     OW68842   4.030   0.806   4.106
19063SOL    HW168843   3.994   0.818   4.198
19063SOL    HW268844   3.980   0.867   4.043
19064SOL     OW68845   8.227   0.788   6.954
19064SOL    HW168846   8.227   0.873   7.006
19064SOL    HW268847   8.144   0.782   6.899
19065SOL     OW68848   7.312   9.990   7.270
19065SOL    HW168849   7.310   9.918   7.201
19065SOL    HW268850   7.267   9.958   7.354
19066SOL     OW68851   0.414   7.293   1.407
19066SOL    HW168852   0.354   7.220   1.374
19066SOL    HW268853   0.488   7.306   1.341
19067SOL     OW68854   2.059   7.432   6.596
19067SOL    HW168855   2.051   7.423   6.696
19067SOL    HW268856   1.970   7.416   6.554
19068SOL     OW68857   8.842   2.994   0.844
19068SOL    HW168858   8.913   2.936   0.884
19068SOL    HW268859   8.884   3.069   0.794
19069SOL     OW68860   6.647   9.418   6.318
19069SOL    HW168861   6.570   9.480   6.300
19069SOL    HW268862   6.729   9.454   6.273
19070SOL     OW68863   9.336   3.877   4.221
19070SOL    HW168864   9.266   3.889   4.152
19070SOL    HW268865   9.296   3.887   4.312
19071SOL     OW68866   1.101   6.771   2.220
19071SOL    HW168867   1.173   6.724   2.168
19071SOL    HW268868   1.089   6.863   2.183
19072SOL     OW68869   8.366   1.785   2.352
19072SOL    HW168870   8.295   1.776   2.422
19072SOL    HW268871   8.432   1.855   2.379
19073SOL     OW68872   7.612   3.703   0.817
19073SOL    HW168873   7.566   3.670   0.735
19073SOL    HW268874   7.624   3.802   0.811
19074SOL     OW68875   2.530   5.066   0.613
19074SOL    HW168876   2.433   5.087   0.622
19074SOL    HW268877   2.554   5.061   0.516
19075SOL     OW68878   9.547   4.003   3.746
19075SOL    HW168879   9.536   3.940   3.822
19075SOL    HW268880   9.582   4.091   3.780
19076SOL     OW68881   0.393   1.150   3.395
19076SOL    HW168882   0.394   1.248   3.374
19076SOL    HW268883   0.482   1.111   3.374
19077SOL     OW68884   0.833   5.601   5.432
19077SOL    HW168885   0.741   5.636   5.414
19077SOL    HW268886   0.900   5.671   5.412
19078SOL     OW68887   9.230   1.809   5.918
19078SOL    HW168888   9.291   1.885   5.893
19078SOL    HW268889   9.208   1.756   5.836
19079SOL     OW68890   7.525   2.051   1.832
19079SOL    HW168891   7.599   2.000   1.876
19079SOL    HW268892   7.437   2.011   1.860
19080SOL     OW68893   8.556   7.790   5.913
19080SOL    HW168894   8.527   7.735   5.835
19080SOL    HW268895   8.584   7.730   5.988
19081SOL     OW68896   1.623   7.682   7.629
19081SOL    HW168897   1.655   7.760   7.576
19081SOL    HW268898   1.690   7.608   7.625
19082SOL     OW68899   0.039   7.169   3.054
19082SOL    HW168900   9.948   7.178   3.013
19082SOL    HW268901   0.032   7.116   3.139
19083SOL     OW68902   3.976   4.984   7.718
19083SOL    HW168903   3.984   5.083   7.710
19083SOL    HW268904   4.002   4.955   7.810
19084SOL     OW68905   7.124   0.542   4.379
19084SOL    HW168906   7.111   0.458   4.326
19084SOL    HW268907   7.213   0.538   4.424
19085SOL     OW68908   8.485   0.880   2.767
19085SOL    HW168909   8.517   0.850   2.677
19085SOL    HW268910   8.497   0.979   2.776
19086SOL     OW68911   2.375   4.439   5.668
19086SOL    HW168912   2.321   4.356   5.678
19086SOL    HW268913   2.325   4.504   5.611
19087SOL     OW68914   3.821   2.618   2.618
19087SOL    HW168915   3.749   2.688   2.615
19087SOL    HW268916   3.869   2.622   2.705
19088SOL     OW68917   2.633   9.779   2.819
19088SOL    HW168918   2.604   9.845   2.749
19088SOL    HW268919   2.586   9.692   2.805
19089SOL     OW68920   1.578   7.129   6.220
19089SOL    HW168921   1.651   7.086   6.166
19089SOL    HW268922   1.531   7.198   6.165
19090SOL     OW68923   0.855   6.173   5.564
19090SOL    HW168924   0.786   6.164   5.491
19090SOL    HW268925   0.943   6.141   5.530
19091SOL     OW68926   0.267   9.342   4.320
19091SOL    HW168927   0.326   9.309   4.394
19091SOL    HW268928   0.191   9.395   4.358
19092SOL     OW68929   1.643   8.171   5.925
19092SOL    HW168930   1.681   8.149   6.015
19092SOL    HW268931   1.599   8.090   5.886
19093SOL     OW68932   4.193   9.491   2.402
19093SOL    HW168933   4.200   9.584   2.439
19093SOL    HW268934   4.192   9.495   2.302
19094SOL     OW68935   6.745   3.917   0.327
19094SOL    HW168936   6.658   3.941   0.284
19094SOL    HW268937   6.728   3.880   0.418
19095SOL     OW68938   8.431   5.941   3.095
19095SOL    HW168939   8.389   5.995   3.168
19095SOL    HW268940   8.439   5.996   3.013
19096SOL     OW68941   1.649   8.212   7.108
19096SOL    HW168942   1.562   8.197   7.061
19096SOL    HW268943   1.723   8.167   7.058
19097SOL     OW68944   2.793   5.747   7.923
19097SOL    HW168945   2.795   5.651   7.896
19097SOL    HW268946   2.791   5.753   8.023
19098SOL     OW68947   4.484   8.509   5.185
19098SOL    HW168948   4.574   8.482   5.151
19098SOL    HW268949   4.413   8.452   5.142
19099SOL     OW68950   9.394   1.493   0.559
19099SOL    HW168951   9.402   1.592   0.542
19099SOL    HW268952   9.325   1.454   0.498
19100SOL     OW68953   5.053   3.405   0.267
19100SOL    HW168954   5.031   3.465   0.344
19100SOL    HW268955   5.033   3.310   0.292
19101SOL     OW68956   4.503   5.695   1.338
19101SOL    HW168957   4.595   5.662   1.316
19101SOL    HW268958   4.470   5.752   1.263
19102SOL     OW68959   9.095   6.464   4.203
19102SOL    HW168960   9.072   6.385   4.146
19102SOL    HW268961   9.060   6.450   4.296
19103SOL     OW68962   8.995   3.709   5.687
19103SOL    HW168963   9.087   3.677   5.709
19103SOL    HW268964   8.945   3.636   5.639
19104SOL     OW68965   1.650   6.743   4.098
19104SOL    HW168966   1.689   6.835   4.103
19104SOL    HW268967   1.686   6.687   4.172
19105SOL     OW68968   7.979   1.779   1.734
19105SOL    HW168969   7.920   1.774   1.653
19105SOL    HW268970   8.064   1.731   1.716
19106SOL     OW68971   3.142   1.106   7.355
19106SOL    HW168972   3.066   1.045   7.372
19106SOL    HW268973   3.223   1.074   7.404
19107SOL     OW68974   9.066   0.321   3.954
19107SOL    HW168975   9.093   0.239   4.005
19107SOL    HW268976   8.971   0.344   3.975
19108SOL     OW68977   8.295   3.860   2.004
19108SOL    HW168978   8.368   3.856   1.936
19108SOL    HW268979   8.291   3.951   2.044
19109SOL     OW68980   8.691   5.065   3.014
19109SOL    HW168981   8.784   5.067   3.053
19109SOL    HW268982   8.638   5.140   3.052
19110SOL     OW68983   2.332   6.967   6.928
19110SOL    HW168984   2.421   6.922   6.925
19110SOL    HW268985   2.330   7.041   6.861
19111SOL     OW68986   2.641   3.302   0.906
19111SOL    HW168987   2.629   3.260   0.815
19111SOL    HW268988   2.682   3.235   0.968
19112SOL     OW68989   7.657   2.792   3.122
19112SOL    HW168990   7.664   2.849   3.204
19112SOL    HW268991   7.675   2.848   3.041
19113SOL     OW68992   0.172   1.712   3.813
19113SOL    HW168993   0.128   1.802   3.814
19113SOL    HW268994   0.271   1.723   3.811
19114SOL     OW68995   2.043   5.373   3.011
19114SOL    HW168996   2.079   5.443   2.949
19114SOL    HW268997   2.071   5.393   3.105
19115SOL     OW68998   6.865   3.763   0.131
19115SOL    HW168999   6.831   3.820   0.206
19115SOL    HW269000   6.827   3.795   0.045
19116SOL     OW69001   1.421   5.308   4.460
19116SOL    HW169002   1.463   5.394   4.488
19116SOL    HW269003   1.426   5.242   4.535
19117SOL     OW69004   3.040   0.602   3.471
19117SOL    HW169005   3.093   0.567   3.548
19117SOL    HW269006   3.070   0.557   3.387
19118SOL     OW69007   7.819   4.701   0.225
19118SOL    HW169008   7.783   4.634   0.160
19118SOL    HW269009   7.780   4.684   0.316
19119SOL     OW69010   3.534   6.591   7.393
19119SOL    HW169011   3.513   6.685   7.420
19119SOL    HW269012   3.628   6.569   7.418
19120SOL     OW69013   8.822   0.509   6.934
19120SOL    HW169014   8.781   0.466   6.854
19120SOL    HW269015   8.769   0.589   6.961
19121SOL     OW69016   2.617   8.476   5.853
19121SOL    HW169017   2.668   8.404   5.899
19121SOL    HW269018   2.553   8.435   5.788
19122SOL     OW69019   9.421   8.438   0.309
19122SOL    HW169020   9.485   8.391   0.370
19122SOL    HW269021   9.389   8.374   0.238
19123SOL     OW69022   8.410   2.492   3.399
19123SOL    HW169023   8.352   2.413   3.379
19123SOL    HW269024   8.495   2.485   3.348
19124SOL     OW69025   4.938   6.770   1.399
19124SOL    HW169026   4.968   6.714   1.321
19124SOL    HW269027   4.854   6.732   1.437
19125SOL     OW69028   6.584   7.709   3.061
19125SOL    HW169029   6.663   7.703   3.122
19125SOL    HW269030   6.540   7.799   3.071
19126SOL     OW69031   5.007   8.581   7.691
19126SOL    HW169032   4.999   8.658   7.629
19126SOL    HW269033   5.010   8.496   7.639
19127SOL     OW69034   1.788   0.158   5.331
19127SOL    HW169035   1.811   0.197   5.420
19127SOL    HW269036   1.693   0.181   5.308
19128SOL     OW69037   2.905   9.285   1.255
19128SOL    HW169038   2.828   9.239   1.298
19128SOL    HW269039   2.975   9.217   1.233
19129SOL     OW69040   4.327   6.162   1.170
19129SOL    HW169041   4.305   6.227   1.242
19129SOL    HW269042   4.272   6.079   1.182
19130SOL     OW69043   5.289   4.954   0.732
19130SOL    HW169044   5.371   4.978   0.679
19130SOL    HW269045   5.276   4.855   0.731
19131SOL     OW69046   2.054   4.454   5.792
19131SOL    HW169047   2.096   4.372   5.753
19131SOL    HW269048   2.022   4.433   5.885
19132SOL     OW69049   4.687   8.912   0.812
19132SOL    HW169050   4.780   8.896   0.844
19132SOL    HW269051   4.691   8.951   0.719
19133SOL     OW69052   3.016   0.582   0.034
19133SOL    HW169053   2.929   0.538   0.055
19133SOL    HW269054   3.090   0.514   0.040
19134SOL     OW69055   2.954   1.486   7.685
19134SOL    HW169056   3.003   1.442   7.759
19134SOL    HW269057   2.856   1.464   7.692
19135SOL     OW69058   8.247   5.241   2.793
19135SOL    HW169059   8.259   5.149   2.758
19135SOL    HW269060   8.326   5.297   2.768
19136SOL     OW69061   8.195   7.849   2.218
19136SOL    HW169062   8.190   7.897   2.306
19136SOL    HW269063   8.180   7.751   2.233
19137SOL     OW69064   5.132   6.015   0.175
19137SOL    HW169065   5.214   5.998   0.230
19137SOL    HW269066   5.128   6.111   0.149
19138SOL     OW69067   8.522   4.520   3.896
19138SOL    HW169068   8.457   4.501   3.822
19138SOL    HW269069   8.477   4.503   3.984
19139SOL     OW69070   1.099   7.529   7.526
19139SOL    HW169071   1.026   7.579   7.572
19139SOL    HW269072   1.149   7.474   7.592
19140SOL     OW69073   0.793   7.467   6.527
19140SOL    HW169074   0.757   7.383   6.486
19140SOL    HW269075   0.724   7.507   6.587
19141SOL     OW69076   1.631   9.734   4.560
19141SOL    HW169077   1.641   9.815   4.503
19141SOL    HW269078   1.635   9.760   4.656
19142SOL     OW69079   9.420   2.372   6.342
19142SOL    HW169080   9.417   2.437   6.418
19142SOL    HW269081   9.333   2.375   6.292
19143SOL     OW69082   0.490   8.021   5.587
19143SOL    HW169083   0.515   7.978   5.501
19143SOL    HW269084   0.495   7.953   5.661
19144SOL     OW69085   4.131   9.280   1.467
19144SOL    HW169086   4.218   9.233   1.480
19144SOL    HW269087   4.131   9.365   1.520
19145SOL     OW69088   4.969   3.609   0.488
19145SOL    HW169089   4.899   3.627   0.419
19145SOL    HW269090   4.956   3.671   0.566
19146SOL     OW69091   0.137   5.448   6.667
19146SOL    HW169092   0.087   5.531   6.690
19146SOL    HW269093   0.232   5.456   6.696
19147SOL     OW69094   1.758   8.432   3.643
19147SOL    HW169095   1.846   8.448   3.687
19147SOL    HW269096   1.761   8.466   3.549
19148SOL     OW69097   0.543   8.430   1.381
19148SOL    HW169098   0.558   8.344   1.430
19148SOL    HW269099   0.501   8.497   1.442
19149SOL     OW69100   3.510   3.999   7.619
19149SOL    HW169101   3.488   3.941   7.697
19149SOL    HW269102   3.607   3.990   7.597
19150SOL     OW69103   2.185   0.754   2.445
19150SOL    HW169104   2.179   0.833   2.384
19150SOL    HW269105   2.171   0.784   2.539
19151SOL     OW69106   3.651   1.164   0.152
19151SOL    HW169107   3.633   1.068   0.173
19151SOL    HW269108   3.603   1.190   0.068
19152SOL     OW69109   7.493   2.700   1.134
19152SOL    HW169110   7.541   2.776   1.177
19152SOL    HW269111   7.452   2.732   1.048
19153SOL     OW69112   5.288   8.028   5.218
19153SOL    HW169113   5.231   8.106   5.189
19153SOL    HW269114   5.383   8.058   5.226
19154SOL     OW69115   1.133   5.756   7.071
19154SOL    HW169116   1.160   5.684   7.134
19154SOL    HW269117   1.061   5.722   7.011
19155SOL     OW69118   8.576   5.579   5.252
19155SOL    HW169119   8.521   5.648   5.300
19155SOL    HW269120   8.571   5.595   5.154
19156SOL     OW69121   1.331   3.713   1.330
19156SOL    HW169122   1.391   3.793   1.329
19156SOL    HW269123   1.278   3.712   1.414
19157SOL     OW69124   9.910   7.493   4.760
19157SOL    HW169125   9.871   7.403   4.782
19157SOL    HW269126   9.932   7.540   4.845
19158SOL     OW69127   0.153   2.755   7.666
19158SOL    HW169128   0.102   2.717   7.744
19158SOL    HW269129   0.248   2.771   7.693
19159SOL     OW69130   5.983   8.749   3.060
19159SOL    HW169131   5.884   8.735   3.063
19159SOL    HW269132   6.006   8.806   2.981
19160SOL     OW69133   4.543   4.425   5.648
19160SOL    HW169134   4.627   4.381   5.616
19160SOL    HW269135   4.489   4.361   5.701
19161SOL     OW69136   9.172   4.125   0.405
19161SOL    HW169137   9.131   4.183   0.334
19161SOL    HW269138   9.271   4.141   0.408
19162SOL     OW69139   2.533   3.648   7.204
19162SOL    HW169140   2.483   3.650   7.117
19162SOL    HW269141   2.533   3.555   7.241
19163SOL     OW69142   6.308   6.202   0.233
19163SOL    HW169143   6.291   6.289   0.279
19163SOL    HW269144   6.404   6.175   0.246
19164SOL     OW69145   0.421   7.589   7.275
19164SOL    HW169146   0.488   7.646   7.227
19164SOL    HW269147   0.435   7.598   7.374
19165SOL     OW69148   8.066   1.300   7.485
19165SOL    HW169149   8.094   1.389   7.520
19165SOL    HW269150   8.039   1.242   7.561
19166SOL     OW69151   2.768   1.665   6.004
19166SOL    HW169152   2.672   1.691   5.997
19166SOL    HW269153   2.795   1.615   5.921
19167SOL     OW69154   5.342   2.078   4.698
19167SOL    HW169155   5.390   2.006   4.648
19167SOL    HW269156   5.245   2.077   4.675
19168SOL     OW69157   9.364   3.913   2.786
19168SOL    HW169158   9.398   3.919   2.880
19168SOL    HW269159   9.269   3.882   2.787
19169SOL     OW69160   1.935   9.099   4.569
19169SOL    HW169161   1.948   9.027   4.500
19169SOL    HW269162   1.997   9.175   4.551
19170SOL     OW69163   0.757   7.854   1.979
19170SOL    HW169164   0.833   7.919   1.980
19170SOL    HW269165   0.773   7.783   2.048
19171SOL     OW69166   1.974   7.091   3.289
19171SOL    HW169167   1.923   7.021   3.238
19171SOL    HW269168   2.072   7.079   3.274
19172SOL     OW69169   7.208   4.915   1.382
19172SOL    HW169170   7.194   4.858   1.300
19172SOL    HW269171   7.192   4.860   1.464
19173SOL     OW69172   3.949   5.459   0.468
19173SOL    HW169173   3.891   5.506   0.535
19173SOL    HW269174   3.894   5.394   0.416
19174SOL     OW69175   2.984   2.332   2.275
19174SOL    HW169176   2.923   2.299   2.203
19174SOL    HW269177   2.934   2.338   2.361
19175SOL     OW69178   9.717   6.075   1.417
19175SOL    HW169179   9.649   6.085   1.345
19175SOL    HW269180   9.745   5.979   1.423
19176SOL     OW69181   2.787   3.575   3.025
19176SOL    HW169182   2.792   3.649   2.958
19176SOL    HW269183   2.820   3.490   2.984
19177SOL     OW69184   8.385   3.533   2.412
19177SOL    HW169185   8.398   3.586   2.328
19177SOL    HW269186   8.300   3.562   2.457
19178SOL     OW69187   1.897   7.232   6.104
19178SOL    HW169188   1.852   7.218   6.016
19178SOL    HW269189   1.898   7.329   6.127
19179SOL     OW69190   3.451   7.670   0.450
19179SOL    HW169191   3.430   7.586   0.399
19179SOL    HW269192   3.523   7.650   0.517
19180SOL     OW69193   9.160   0.666   3.225
19180SOL    HW169194   9.188   0.695   3.317
19180SOL    HW269195   9.106   0.583   3.231
19181SOL     OW69196   5.707   1.891   4.898
19181SOL    HW169197   5.744   1.848   4.980
19181SOL    HW269198   5.619   1.934   4.919
19182SOL     OW69199   3.286   7.979   6.588
19182SOL    HW169200   3.331   8.068   6.596
19182SOL    HW269201   3.280   7.937   6.679
19183SOL     OW69202   5.340   1.920   0.838
19183SOL    HW169203   5.397   1.978   0.897
19183SOL    HW269204   5.392   1.838   0.813
19184SOL     OW69205   9.101   5.754   1.402
19184SOL    HW169206   9.031   5.702   1.450
19184SOL    HW269207   9.061   5.794   1.319
19185SOL     OW69208   3.511   1.007   4.934
19185SOL    HW169209   3.526   0.961   5.022
19185SOL    HW269210   3.413   1.011   4.915
19186SOL     OW69211   1.389   0.398   4.725
19186SOL    HW169212   1.468   0.427   4.671
19186SOL    HW269213   1.305   0.432   4.681
19187SOL     OW69214   9.324   5.585   4.896
19187SOL    HW169215   9.297   5.495   4.862
19187SOL    HW269216   9.262   5.655   4.861
19188SOL     OW69217   0.884   8.362   2.868
19188SOL    HW169218   0.805   8.342   2.926
19188SOL    HW269219   0.853   8.374   2.773
19189SOL     OW69220   4.493   9.361   2.137
19189SOL    HW169221   4.576   9.417   2.146
19189SOL    HW269222   4.469   9.323   2.226
19190SOL     OW69223   2.941   3.191   3.601
19190SOL    HW169224   2.912   3.239   3.518
19190SOL    HW269225   2.978   3.258   3.666
19191SOL     OW69226   2.867   0.723   6.517
19191SOL    HW169227   2.820   0.798   6.471
19191SOL    HW269228   2.820   0.703   6.603
19192SOL     OW69229   7.672   1.924   2.422
19192SOL    HW169230   7.772   1.914   2.424
19192SOL    HW269231   7.643   1.977   2.501
19193SOL     OW69232   3.985   7.897   5.706
19193SOL    HW169233   3.906   7.857   5.659
19193SOL    HW269234   3.956   7.978   5.757
19194SOL     OW69235   8.138   7.737   4.235
19194SOL    HW169236   8.130   7.644   4.270
19194SOL    HW269237   8.234   7.757   4.214
19195SOL     OW69238   8.700   9.868   4.151
19195SOL    HW169239   8.640   9.789   4.168
19195SOL    HW269240   8.753   9.887   4.233
19196SOL     OW69241   8.588   7.453   4.062
19196SOL    HW169242   8.550   7.537   4.024
19196SOL    HW269243   8.619   7.393   3.988
19197SOL     OW69244   3.920   9.173   2.026
19197SOL    HW169245   3.907   9.222   2.112
19197SOL    HW269246   3.832   9.156   1.983
19198SOL     OW69247   2.422   6.123   5.581
19198SOL    HW169248   2.416   6.190   5.655
19198SOL    HW269249   2.416   6.170   5.493
19199SOL     OW69250   4.597   3.064   2.030
19199SOL    HW169251   4.512   3.032   1.988
19199SOL    HW269252   4.654   2.986   2.053
19200SOL     OW69253   8.704   1.570   6.240
19200SOL    HW169254   8.772   1.607   6.176
19200SOL    HW269255   8.700   1.471   6.230
19201SOL     OW69256   8.099   7.013   4.385
19201SOL    HW169257   8.097   6.931   4.442
19201SOL    HW269258   8.151   6.995   4.301
19202SOL     OW69259   6.868   9.162   7.752
19202SOL    HW169260   6.787   9.212   7.719
19202SOL    HW269261   6.865   9.068   7.717
19203SOL     OW69262   5.957   9.051   3.659
19203SOL    HW169263   6.010   8.968   3.673
19203SOL    HW269264   6.015   9.131   3.680
19204SOL     OW69265   6.744   1.927   6.130
19204SOL    HW169266   6.657   1.975   6.140
19204SOL    HW269267   6.791   1.959   6.048
19205SOL     OW69268   9.419   2.989   1.152
19205SOL    HW169269   9.354   3.060   1.124
19205SOL    HW269270   9.475   3.023   1.228
19206SOL     OW69271   3.203   4.162   2.478
19206SOL    HW169272   3.297   4.195   2.480
19206SOL    HW269273   3.144   4.224   2.529
19207SOL     OW69274   6.099   1.259   1.513
19207SOL    HW169275   6.019   1.243   1.454
19207SOL    HW269276   6.155   1.177   1.516
19208SOL     OW69277   6.646   7.086   3.590
19208SOL    HW169278   6.660   7.098   3.491
19208SOL    HW269279   6.574   7.149   3.621
19209SOL     OW69280   9.759   8.234   7.738
19209SOL    HW169281   9.839   8.229   7.678
19209SOL    HW269282   9.764   8.317   7.793
19210SOL     OW69283   3.685   8.723   0.648
19210SOL    HW169284   3.725   8.743   0.738
19210SOL    HW269285   3.726   8.640   0.611
19211SOL     OW69286   9.055   4.494   2.726
19211SOL    HW169287   9.040   4.452   2.636
19211SOL    HW269288   9.047   4.425   2.797
19212SOL     OW69289   6.863   2.962   5.167
19212SOL    HW169290   6.864   3.013   5.253
19212SOL    HW269291   6.947   2.981   5.116
19213SOL     OW69292   3.575   6.217   4.800
19213SOL    HW169293   3.626   6.238   4.716
19213SOL    HW269294   3.479   6.240   4.787
19214SOL     OW69295   4.942   8.634   0.749
19214SOL    HW169296   4.996   8.710   0.786
19214SOL    HW269297   4.944   8.558   0.815
19215SOL     OW69298   2.120   0.853   2.699
19215SOL    HW169299   2.023   0.878   2.690
19215SOL    HW269300   2.166   0.918   2.759
19216SOL     OW69301   3.725   2.700   0.143
19216SOL    HW169302   3.647   2.762   0.154
19216SOL    HW269303   3.708   2.617   0.195
19217SOL     OW69304   7.046   9.542   6.657
19217SOL    HW169305   7.101   9.608   6.709
19217SOL    HW269306   7.074   9.544   6.561
19218SOL     OW69307   2.006   9.460   0.718
19218SOL    HW169308   2.085   9.418   0.763
19218SOL    HW269309   2.037   9.522   0.647
19219SOL     OW69310   8.620   9.494   2.583
19219SOL    HW169311   8.637   9.529   2.491
19219SOL    HW269312   8.691   9.527   2.645
19220SOL     OW69313   7.550   7.262   2.402
19220SOL    HW169314   7.451   7.262   2.383
19220SOL    HW269315   7.582   7.356   2.413
19221SOL     OW69316   0.468   3.881   4.251
19221SOL    HW169317   0.396   3.875   4.182
19221SOL    HW269318   0.427   3.866   4.342
19222SOL     OW69319   2.665   0.052   7.682
19222SOL    HW169320   2.601   0.029   7.609
19222SOL    HW269321   2.751   0.085   7.643
19223SOL     OW69322   3.791   2.839   7.175
19223SOL    HW169323   3.832   2.810   7.262
19223SOL    HW269324   3.789   2.939   7.171
19224SOL     OW69325   1.480   6.672   0.198
19224SOL    HW169326   1.400   6.612   0.207
19224SOL    HW269327   1.559   6.618   0.171
19225SOL     OW69328   8.281   5.197   3.762
19225SOL    HW169329   8.337   5.259   3.816
19225SOL    HW269330   8.330   5.170   3.679
19226SOL     OW69331   8.700   3.149   4.029
19226SOL    HW169332   8.724   3.074   4.090
19226SOL    HW269333   8.652   3.114   3.949
19227SOL     OW69334   9.923   9.858   5.925
19227SOL    HW169335   9.948   9.898   5.836
19227SOL    HW269336   9.936   9.758   5.921
19228SOL     OW69337   7.456   9.153   3.790
19228SOL    HW169338   7.444   9.070   3.844
19228SOL    HW269339   7.394   9.151   3.711
19229SOL     OW69340   2.440   3.844   7.374
19229SOL    HW169341   2.380   3.908   7.328
19229SOL    HW269342   2.478   3.779   7.308
19230SOL     OW69343   6.632   9.484   2.361
19230SOL    HW169344   6.600   9.396   2.397
19230SOL    HW269345   6.692   9.468   2.282
19231SOL     OW69346   1.333   0.416   5.226
19231SOL    HW169347   1.301   0.417   5.131
19231SOL    HW269348   1.263   0.456   5.285
19232SOL     OW69349   0.832   8.624   2.137
19232SOL    HW169350   0.838   8.532   2.176
19232SOL    HW269351   0.840   8.619   2.037
19233SOL     OW69352   2.202   3.006   6.131
19233SOL    HW169353   2.180   2.909   6.145
19233SOL    HW269354   2.290   3.013   6.084
19234SOL     OW69355   7.663   7.972   7.496
19234SOL    HW169356   7.591   8.002   7.558
19234SOL    HW269357   7.671   8.037   7.420
19235SOL     OW69358   9.283   1.620   1.155
19235SOL    HW169359   9.362   1.575   1.196
19235SOL    HW269360   9.222   1.652   1.226
19236SOL     OW69361   8.788   8.721   2.826
19236SOL    HW169362   8.735   8.668   2.892
19236SOL    HW269363   8.876   8.675   2.810
19237SOL     OW69364   1.458   1.224   2.555
19237SOL    HW169365   1.395   1.263   2.488
19237SOL    HW269366   1.520   1.296   2.586
19238SOL     OW69367   7.616   6.214   3.021
19238SOL    HW169368   7.546   6.143   3.009
19238SOL    HW269369   7.641   6.220   3.117
19239SOL     OW69370   0.617   5.703   4.324
19239SOL    HW169371   0.672   5.683   4.242
19239SOL    HW269372   0.678   5.727   4.399
19240SOL     OW69373   6.735   7.811   6.510
19240SOL    HW169374   6.744   7.719   6.550
19240SOL    HW269375   6.643   7.846   6.528
19241SOL     OW69376   5.427   3.451   7.032
19241SOL    HW169377   5.510   3.494   6.996
19241SOL    HW269378   5.436   3.439   7.131
19242SOL     OW69379   8.884   4.125   5.102
19242SOL    HW169380   8.799   4.145   5.054
19242SOL    HW269381   8.863   4.089   5.193
19243SOL     OW69382   4.226   1.321   4.814
19243SOL    HW169383   4.322   1.298   4.797
19243SOL    HW269384   4.168   1.242   4.794
19244SOL     OW69385   4.316   0.695   4.618
19244SOL    HW169386   4.279   0.715   4.708
19244SOL    HW269387   4.247   0.649   4.563
19245SOL     OW69388   6.887   1.920   4.960
19245SOL    HW169389   6.787   1.923   4.960
19245SOL    HW269390   6.918   1.827   4.976
19246SOL     OW69391   9.522   4.458   6.584
19246SOL    HW169392   9.586   4.401   6.531
19246SOL    HW269393   9.475   4.521   6.522
19247SOL     OW69394   2.507   0.536   5.297
19247SOL    HW169395   2.452   0.618   5.309
19247SOL    HW269396   2.471   0.462   5.354
19248SOL     OW69397   1.010   2.267   4.651
19248SOL    HW169398   0.988   2.360   4.683
19248SOL    HW269399   1.027   2.268   4.553
19249SOL     OW69400   0.378   4.850   1.021
19249SOL    HW169401   0.456   4.906   0.992
19249SOL    HW269402   0.373   4.767   0.966
19250SOL     OW69403   2.600   0.471   1.700
19250SOL    HW169404   2.608   0.373   1.718
19250SOL    HW269405   2.655   0.521   1.767
19251SOL     OW69406   1.001   1.512   0.722
19251SOL    HW169407   1.050   1.523   0.809
19251SOL    HW269408   0.911   1.471   0.740
19252SOL     OW69409   4.195   0.046   4.148
19252SOL    HW169410   4.205   9.957   4.103
19252SOL    HW269411   4.233   0.041   4.240
19253SOL     OW69412   8.780   3.135   3.618
19253SOL    HW169413   8.843   3.207   3.649
19253SOL    HW269414   8.769   3.140   3.519
19254SOL     OW69415   8.020   2.047   4.183
19254SOL    HW169416   8.001   2.058   4.281
19254SOL    HW269417   8.084   1.972   4.169
19255SOL     OW69418   2.045   7.209   0.667
19255SOL    HW169419   2.081   7.153   0.742
19255SOL    HW269420   1.948   7.190   0.654
19256SOL     OW69421   6.774   2.938   0.466
19256SOL    HW169422   6.852   2.879   0.445
19256SOL    HW269423   6.805   3.032   0.475
19257SOL     OW69424   8.903   7.780   7.222
19257SOL    HW169425   8.965   7.811   7.295
19257SOL    HW269426   8.848   7.858   7.190
19258SOL     OW69427   9.064   7.908   1.658
19258SOL    HW169428   9.031   7.939   1.747
19258SOL    HW269429   9.158   7.939   1.644
19259SOL     OW69430   7.301   6.137   2.463
19259SOL    HW169431   7.340   6.195   2.535
19259SOL    HW269432   7.373   6.108   2.400
19260SOL     OW69433   1.648   9.835   4.819
19260SOL    HW169434   1.655   9.770   4.895
19260SOL    HW269435   1.705   9.915   4.838
19261SOL     OW69436   5.004   0.566   6.164
19261SOL    HW169437   5.050   0.648   6.198
19261SOL    HW269438   4.994   0.501   6.239
19262SOL     OW69439   3.696   5.721   5.946
19262SOL    HW169440   3.719   5.710   6.043
19262SOL    HW269441   3.681   5.631   5.905
19263SOL     OW69442   5.503   4.827   1.815
19263SOL    HW169443   5.533   4.907   1.763
19263SOL    HW269444   5.552   4.824   1.902
19264SOL     OW69445   0.933   3.438   4.271
19264SOL    HW169446   0.980   3.520   4.304
19264SOL    HW269447   0.836   3.457   4.258
19265SOL     OW69448   9.661   3.406   2.048
19265SOL    HW169449   9.681   3.488   2.102
19265SOL    HW269450   9.606   3.343   2.103
19266SOL     OW69451   1.078   3.761   0.695
19266SOL    HW169452   1.011   3.730   0.761
19266SOL    HW269453   1.131   3.683   0.661
19267SOL     OW69454   9.564   0.732   0.355
19267SOL    HW169455   9.631   0.658   0.351
19267SOL    HW269456   9.480   0.698   0.398
19268SOL     OW69457   2.304   6.704   0.875
19268SOL    HW169458   2.225   6.747   0.918
19268SOL    HW269459   2.293   6.604   0.876
19269SOL     OW69460   3.801   7.861   0.608
19269SOL    HW169461   3.765   7.936   0.551
19269SOL    HW269462   3.896   7.881   0.632
19270SOL     OW69463   7.158   6.879   3.546
19270SOL    HW169464   7.068   6.883   3.589
19270SOL    HW269465   7.166   6.793   3.496
19271SOL     OW69466   3.199   7.583   3.191
19271SOL    HW169467   3.295   7.557   3.182
19271SOL    HW269468   3.162   7.546   3.277
19272SOL     OW69469   9.163   6.827   1.394
19272SOL    HW169470   9.107   6.780   1.326
19272SOL    HW269471   9.229   6.762   1.433
19273SOL     OW69472   4.312   3.125   5.637
19273SOL    HW169473   4.243   3.067   5.596
19273SOL    HW269474   4.312   3.215   5.593
19274SOL     OW69475   0.041   2.327   7.833
19274SOL    HW169476   0.032   2.229   7.815
19274SOL    HW269477   9.978   2.378   7.775
19275SOL     OW69478   0.184   9.114   6.571
19275SOL    HW169479   0.274   9.119   6.614
19275SOL    HW269480   0.192   9.144   6.475
19276SOL     OW69481   1.596   2.720   2.408
19276SOL    HW169482   1.568   2.671   2.326
19276SOL    HW269483   1.624   2.655   2.478
19277SOL     OW69484   7.211   0.463   4.042
19277SOL    HW169485   7.184   0.410   4.121
19277SOL    HW269486   7.187   0.414   3.958
19278SOL     OW69487   1.684   3.874   4.596
19278SOL    HW169488   1.725   3.873   4.687
19278SOL    HW269489   1.677   3.780   4.562
19279SOL     OW69490   4.818   4.355   5.850
19279SOL    HW169491   4.731   4.344   5.898
19279SOL    HW269492   4.890   4.309   5.902
19280SOL     OW69493   9.169   3.474   7.312
19280SOL    HW169494   9.192   3.506   7.220
19280SOL    HW269495   9.070   3.469   7.322
19281SOL     OW69496   0.770   4.835   7.860
19281SOL    HW169497   0.831   4.764   7.825
19281SOL    HW269498   0.723   4.801   7.941
19282SOL     OW69499   2.169   9.011   0.097
19282SOL    HW169500   2.143   8.914   0.093
19282SOL    HW269501   2.109   9.063   0.035
19283SOL     OW69502   8.390   4.803   0.203
19283SOL    HW169503   8.359   4.730   0.142
19283SOL    HW269504   8.395   4.768   0.297
19284SOL     OW69505   0.937   7.768   5.068
19284SOL    HW169506   0.991   7.709   5.009
19284SOL    HW269507   0.903   7.846   5.015
19285SOL     OW69508   3.362   5.384   3.023
19285SOL    HW169509   3.296   5.458   3.014
19285SOL    HW269510   3.353   5.322   2.945
19286SOL     OW69511   4.059   9.344   6.034
19286SOL    HW169512   4.090   9.361   6.128
19286SOL    HW269513   4.105   9.409   5.972
19287SOL     OW69514   6.672   9.790   3.690
19287SOL    HW169515   6.577   9.769   3.715
19287SOL    HW269516   6.698   9.878   3.729
19288SOL     OW69517   7.836   3.665   3.654
19288SOL    HW169518   7.788   3.581   3.681
19288SOL    HW269519   7.914   3.641   3.596
19289SOL     OW69520   9.535   8.696   2.953
19289SOL    HW169521   9.449   8.746   2.942
19289SOL    HW269522   9.596   8.747   3.013
19290SOL     OW69523   2.718   1.703   7.593
19290SOL    HW169524   2.797   1.758   7.566
19290SOL    HW269525   2.638   1.730   7.539
19291SOL     OW69526   6.902   7.795   2.901
19291SOL    HW169527   6.963   7.815   2.977
19291SOL    HW269528   6.874   7.698   2.904
19292SOL     OW69529   0.481   8.546   4.206
19292SOL    HW169530   0.430   8.499   4.135
19292SOL    HW269531   0.551   8.485   4.243
19293SOL     OW69532   2.971   9.311   4.923
19293SOL    HW169533   3.043   9.271   4.981
19293SOL    HW269534   2.974   9.410   4.930
19294SOL     OW69535   8.659   1.090   3.052
19294SOL    HW169536   8.678   0.995   3.078
19294SOL    HW269537   8.613   1.092   2.964
19295SOL     OW69538   0.724   1.732   2.471
19295SOL    HW169539   0.730   1.659   2.540
19295SOL    HW269540   0.774   1.812   2.504
19296SOL     OW69541   6.111   9.869   5.934
19296SOL    HW169542   6.204   9.881   5.968
19296SOL    HW269543   6.047   9.875   6.011
19297SOL     OW69544   0.472   9.668   6.356
19297SOL    HW169545   0.451   9.757   6.397
19297SOL    HW269546   0.560   9.674   6.307
19298SOL     OW69547   3.093   9.900   1.472
19298SOL    HW169548   3.186   9.928   1.498
19298SOL    HW269549   3.097   9.852   1.384
19299SOL     OW69550   5.019   5.014   0.754
19299SOL    HW169551   5.003   5.097   0.807
19299SOL    HW269552   5.117   5.005   0.736
19300SOL     OW69553   4.181   0.877   2.742
19300SOL    HW169554   4.242   0.801   2.762
19300SOL    HW269555   4.187   0.946   2.815
19301SOL     OW69556   7.443   7.144   7.478
19301SOL    HW169557   7.411   7.105   7.565
19301SOL    HW269558   7.485   7.233   7.495
19302SOL     OW69559   9.124   8.421   7.103
19302SOL    HW169560   9.183   8.340   7.096
19302SOL    HW269561   9.028   8.393   7.108
19303SOL     OW69562   9.913   7.196   4.542
19303SOL    HW169563   9.989   7.134   4.562
19303SOL    HW269564   9.864   7.216   4.626
19304SOL     OW69565   3.621   0.046   5.187
19304SOL    HW169566   3.550   0.052   5.117
19304SOL    HW269567   3.704   0.092   5.155
19305SOL     OW69568   8.903   8.239   7.746
19305SOL    HW169569   8.987   8.280   7.709
19305SOL    HW269570   8.927   8.166   7.810
19306SOL     OW69571   9.211   4.672   1.134
19306SOL    HW169572   9.226   4.586   1.087
19306SOL    HW269573   9.114   4.684   1.153
19307SOL     OW69574   1.195   7.221   5.581
19307SOL    HW169575   1.263   7.267   5.524
19307SOL    HW269576   1.104   7.237   5.544
19308SOL     OW69577   2.309   2.925   1.462
19308SOL    HW169578   2.336   2.930   1.365
19308SOL    HW269579   2.251   2.845   1.476
19309SOL     OW69580   0.525   6.426   0.297
19309SOL    HW169581   0.491   6.423   0.391
19309SOL    HW269582   0.447   6.429   0.234
19310SOL     OW69583   7.660   6.411   4.078
19310SOL    HW169584   7.597   6.482   4.106
19310SOL    HW269585   7.654   6.334   4.142
19311SOL     OW69586   1.036   9.329   7.198
19311SOL    HW169587   1.021   9.416   7.245
19311SOL    HW269588   1.075   9.347   7.108
19312SOL     OW69589   2.762   1.964   2.951
19312SOL    HW169590   2.779   2.000   3.043
19312SOL    HW269591   2.785   2.034   2.884
19313SOL     OW69592   0.949   4.159   2.341
19313SOL    HW169593   0.851   4.152   2.328
19313SOL    HW269594   0.992   4.191   2.257
19314SOL     OW69595   7.167   3.899   0.372
19314SOL    HW169596   7.193   3.819   0.426
19314SOL    HW269597   7.205   3.891   0.280
19315SOL     OW69598   7.991   5.181   4.318
19315SOL    HW169599   7.951   5.090   4.306
19315SOL    HW269600   8.085   5.173   4.352
19316SOL     OW69601   1.282   6.608   2.082
19316SOL    HW169602   1.284   6.533   2.149
19316SOL    HW269603   1.250   6.573   1.994
19317SOL     OW69604   3.570   9.800   3.582
19317SOL    HW169605   3.611   9.882   3.540
19317SOL    HW269606   3.483   9.780   3.538
19318SOL     OW69607   9.848   5.125   2.797
19318SOL    HW169608   9.792   5.092   2.721
19318SOL    HW269609   9.945   5.118   2.773
19319SOL     OW69610   1.631   0.862   6.880
19319SOL    HW169611   1.681   0.934   6.833
19319SOL    HW269612   1.626   0.883   6.978
19320SOL     OW69613   0.001   5.687   6.735
19320SOL    HW169614   0.085   5.732   6.765
19320SOL    HW269615   9.947   5.750   6.680
19321SOL     OW69616   8.411   8.858   0.296
19321SOL    HW169617   8.420   8.780   0.234
19321SOL    HW269618   8.401   8.942   0.244
19322SOL     OW69619   1.953   5.908   4.011
19322SOL    HW169620   1.874   5.969   4.002
19322SOL    HW269621   1.975   5.896   4.108
19323SOL     OW69622   0.397   7.052   0.776
19323SOL    HW169623   0.342   7.122   0.822
19323SOL    HW269624   0.477   7.029   0.831
19324SOL     OW69625   9.274   6.010   1.253
19324SOL    HW169626   9.197   6.052   1.300
19324SOL    HW269627   9.308   5.933   1.306
19325SOL     OW69628   9.954   9.589   5.860
19325SOL    HW169629   9.857   9.564   5.862
19325SOL    HW269630   9.987   9.587   5.765
19326SOL     OW69631   8.827   6.600   4.454
19326SOL    HW169632   8.744   6.576   4.403
19326SOL    HW269633   8.891   6.523   4.452
19327SOL     OW69634   3.540   0.838   2.281
19327SOL    HW169635   3.525   0.899   2.203
19327SOL    HW269636   3.612   0.772   2.259
19328SOL     OW69637   6.991   1.668   4.992
19328SOL    HW169638   7.072   1.704   5.039
19328SOL    HW269639   7.013   1.580   4.951
19329SOL     OW69640   8.266   3.105   2.162
19329SOL    HW169641   8.243   3.149   2.076
19329SOL    HW269642   8.322   3.166   2.217
19330SOL     OW69643   2.243   2.600   3.669
19330SOL    HW169644   2.290   2.594   3.581
19330SOL    HW269645   2.281   2.532   3.731
19331SOL     OW69646   0.061   0.445   4.867
19331SOL    HW169647   0.095   0.536   4.891
19331SOL    HW269648   0.103   0.416   4.781
19332SOL     OW69649   6.553   9.955   6.720
19332SOL    HW169650   6.470   0.011   6.716
19332SOL    HW269651   6.609   9.984   6.798
19333SOL     OW69652   9.070   8.625   6.704
19333SOL    HW169653   9.166   8.625   6.676
19333SOL    HW269654   9.064   8.636   6.803
19334SOL     OW69655   0.101   7.816   5.265
19334SOL    HW169656   0.025   7.811   5.330
19334SOL    HW269657   0.069   7.856   5.179
19335SOL     OW69658   1.772   6.920   1.074
19335SOL    HW169659   1.869   6.932   1.097
19335SOL    HW269660   1.760   6.831   1.029
19336SOL     OW69661   4.744   3.129   4.634
19336SOL    HW169662   4.717   3.222   4.610
19336SOL    HW269663   4.798   3.129   4.718
19337SOL     OW69664   9.047   1.935   3.199
19337SOL    HW169665   9.109   1.994   3.249
19337SOL    HW269666   8.953   1.969   3.208
19338SOL     OW69667   9.524   4.391   3.117
19338SOL    HW169668   9.535   4.422   3.212
19338SOL    HW269669   9.574   4.453   3.057
19339SOL     OW69670   2.678   8.915   3.735
19339SOL    HW169671   2.596   8.959   3.699
19339SOL    HW269672   2.707   8.842   3.674
19340SOL     OW69673   7.970   1.056   4.587
19340SOL    HW169674   7.962   1.048   4.687
19340SOL    HW269675   7.906   1.126   4.555
19341SOL     OW69676   8.293   7.012   4.937
19341SOL    HW169677   8.286   7.034   5.035
19341SOL    HW269678   8.288   7.096   4.883
19342SOL     OW69679   1.390   5.857   1.182
19342SOL    HW169680   1.385   5.893   1.089
19342SOL    HW269681   1.299   5.833   1.214
19343SOL     OW69682   3.095   6.508   2.679
19343SOL    HW169683   3.175   6.463   2.719
19343SOL    HW269684   3.123   6.593   2.633
19344SOL     OW69685   4.498   5.212   1.377
19344SOL    HW169686   4.495   5.301   1.422
19344SOL    HW269687   4.547   5.220   1.290
19345SOL     OW69688   2.230   7.496   6.386
19345SOL    HW169689   2.163   7.461   6.452
19345SOL    HW269690   2.321   7.490   6.424
19346SOL     OW69691   1.201   3.533   0.605
19346SOL    HW169692   1.271   3.488   0.662
19346SOL    HW269693   1.124   3.471   0.592
19347SOL     OW69694   5.351   8.756   5.873
19347SOL    HW169695   5.418   8.829   5.885
19347SOL    HW269696   5.319   8.725   5.963
19348SOL     OW69697   0.626   0.140   4.462
19348SOL    HW169698   0.675   0.078   4.524
19348SOL    HW269699   0.559   0.193   4.514
19349SOL     OW69700   2.508   6.118   4.339
19349SOL    HW169701   2.443   6.183   4.379
19349SOL    HW269702   2.457   6.045   4.294
19350SOL     OW69703   2.093   4.880   3.822
19350SOL    HW169704   2.074   4.814   3.749
19350SOL    HW269705   2.009   4.930   3.844
19351SOL     OW69706   8.452   3.501   3.493
19351SOL    HW169707   8.434   3.431   3.424
19351SOL    HW269708   8.383   3.494   3.566
19352SOL     OW69709   0.494   2.179   4.846
19352SOL    HW169710   0.413   2.168   4.903
19352SOL    HW269711   0.573   2.140   4.892
19353SOL     OW69712   6.890   1.373   6.123
19353SOL    HW169713   6.899   1.434   6.045
19353SOL    HW269714   6.904   1.425   6.208
19354SOL     OW69715   3.752   6.737   7.839
19354SOL    HW169716   3.716   6.645   7.822
19354SOL    HW269717   3.779   6.746   7.934
19355SOL     OW69718   8.655   4.834   2.215
19355SOL    HW169719   8.689   4.758   2.270
19355SOL    HW269720   8.609   4.798   2.134
19356SOL     OW69721   6.442   0.211   1.225
19356SOL    HW169722   6.539   0.222   1.246
19356SOL    HW269723   6.426   0.120   1.187
19357SOL     OW69724   8.040   3.583   3.492
19357SOL    HW169725   8.101   3.662   3.490
19357SOL    HW269726   8.094   3.499   3.489
19358SOL     OW69727   7.111   4.906   1.736
19358SOL    HW169728   7.017   4.936   1.722
19358SOL    HW269729   7.133   4.833   1.671
19359SOL     OW69730   1.008   9.293   5.298
19359SOL    HW169731   0.954   9.209   5.295
19359SOL    HW269732   1.088   9.284   5.239
19360SOL     OW69733   2.674   1.144   6.659
19360SOL    HW169734   2.586   1.172   6.697
19360SOL    HW269735   2.733   1.224   6.647
19361SOL     OW69736   1.949   7.200   5.674
19361SOL    HW169737   1.978   7.214   5.580
19361SOL    HW269738   2.016   7.144   5.722
19362SOL     OW69739   7.920   2.007   1.406
19362SOL    HW169740   8.016   2.018   1.433
19362SOL    HW269741   7.882   1.927   1.452
19363SOL     OW69742   4.133   7.859   0.429
19363SOL    HW169743   4.188   7.898   0.356
19363SOL    HW269744   4.069   7.792   0.390
19364SOL     OW69745   0.495   0.326   3.285
19364SOL    HW169746   0.480   0.349   3.381
19364SOL    HW269747   0.497   0.409   3.231
19365SOL     OW69748   7.910   9.764   3.977
19365SOL    HW169749   8.003   9.759   3.940
19365SOL    HW269750   7.898   9.852   4.025
19366SOL     OW69751   5.149   9.258   1.101
19366SOL    HW169752   5.078   9.284   1.037
19366SOL    HW269753   5.178   9.164   1.083
19367SOL     OW69754   5.388   8.182   5.532
19367SOL    HW169755   5.442   8.200   5.450
19367SOL    HW269756   5.330   8.102   5.518
19368SOL     OW69757   2.216   4.599   5.501
19368SOL    HW169758   2.126   4.611   5.542
19368SOL    HW269759   2.231   4.670   5.432
19369SOL     OW69760   0.429   7.228   2.545
19369SOL    HW169761   0.482   7.147   2.520
19369SOL    HW269762   0.490   7.307   2.552
19370SOL     OW69763   3.747   2.738   6.270
19370SOL    HW169764   3.702   2.691   6.347
19370SOL    HW269765   3.731   2.687   6.186
19371SOL     OW69766   2.879   4.121   6.387
19371SOL    HW169767   2.930   4.109   6.302
19371SOL    HW269768   2.807   4.190   6.373
19372SOL     OW69769   3.363   9.089   3.825
19372SOL    HW169770   3.290   9.038   3.871
19372SOL    HW269771   3.353   9.079   3.726
19373SOL     OW69772   9.211   3.466   2.243
19373SOL    HW169773   9.232   3.553   2.288
19373SOL    HW269774   9.247   3.391   2.298
19374SOL     OW69775   9.961   6.983   3.247
19374SOL    HW169776   9.864   6.986   3.268
19374SOL    HW269777   9.977   6.923   3.168
19375SOL     OW69778   4.207   9.812   4.991
19375SOL    HW169779   4.217   9.722   5.032
19375SOL    HW269780   4.271   9.876   5.035
19376SOL     OW69781   4.965   8.281   1.618
19376SOL    HW169782   4.867   8.263   1.609
19376SOL    HW269783   4.981   8.337   1.699
19377SOL     OW69784   3.204   0.237   2.875
19377SOL    HW169785   3.252   0.281   2.951
19377SOL    HW269786   3.237   0.274   2.788
19378SOL     OW69787   4.238   0.653   5.767
19378SOL    HW169788   4.284   0.592   5.831
19378SOL    HW269789   4.239   0.746   5.804
19379SOL     OW69790   2.155   1.664   5.564
19379SOL    HW169791   2.068   1.695   5.602
19379SOL    HW269792   2.165   1.700   5.471
19380SOL     OW69793   0.941   2.442   6.783
19380SOL    HW169794   1.021   2.439   6.723
19380SOL    HW269795   0.916   2.537   6.800
19381SOL     OW69796   5.716   6.406   1.505
19381SOL    HW169797   5.710   6.311   1.538
19381SOL    HW269798   5.794   6.451   1.548
19382SOL     OW69799   0.161   8.430   2.069
19382SOL    HW169800   0.146   8.527   2.087
19382SOL    HW269801   0.244   8.418   2.016
19383SOL     OW69802   4.213   4.605   5.837
19383SOL    HW169803   4.217   4.705   5.839
19383SOL    HW269804   4.128   4.575   5.882
19384SOL     OW69805   8.546   9.863   2.334
19384SOL    HW169806   8.537   9.937   2.401
19384SOL    HW269807   8.623   9.883   2.273
19385SOL     OW69808   6.433   8.896   3.731
19385SOL    HW169809   6.502   8.828   3.707
19385SOL    HW269810   6.457   8.984   3.691
19386SOL     OW69811   9.756   5.229   7.828
19386SOL    HW169812   9.693   5.236   7.906
19386SOL    HW269813   9.826   5.299   7.837
19387SOL     OW69814   7.409   7.015   6.131
19387SOL    HW169815   7.496   6.966   6.121
19387SOL    HW269816   7.384   7.019   6.228
19388SOL     OW69817   9.565   1.609   6.708
19388SOL    HW169818   9.599   1.588   6.799
19388SOL    HW269819   9.594   1.701   6.682
19389SOL     OW69820   0.992   2.114   6.110
19389SOL    HW169821   0.948   2.044   6.166
19389SOL    HW269822   1.081   2.137   6.149
19390SOL     OW69823   3.981   9.914   1.711
19390SOL    HW169824   4.023   9.867   1.789
19390SOL    HW269825   3.961   9.847   1.639
19391SOL     OW69826   8.239   1.750   7.464
19391SOL    HW169827   8.289   1.781   7.383
19391SOL    HW269828   8.190   1.827   7.505
19392SOL     OW69829   1.971   3.401   0.319
19392SOL    HW169830   1.875   3.410   0.293
19392SOL    HW269831   1.980   3.331   0.389
19393SOL     OW69832   5.731   6.287   1.249
19393SOL    HW169833   5.714   6.193   1.278
19393SOL    HW269834   5.747   6.345   1.329
19394SOL     OW69835   9.915   5.389   4.320
19394SOL    HW169836   9.928   5.395   4.221
19394SOL    HW269837   9.847   5.318   4.340
19395SOL     OW69838   6.448   1.614   5.595
19395SOL    HW169839   6.482   1.646   5.507
19395SOL    HW269840   6.356   1.576   5.583
19396SOL     OW69841   4.951   6.667   0.417
19396SOL    HW169842   4.871   6.727   0.418
19396SOL    HW269843   4.991   6.664   0.509
19397SOL     OW69844   9.043   2.708   0.739
19397SOL    HW169845   9.047   2.766   0.820
19397SOL    HW269846   9.119   2.729   0.679
19398SOL     OW69847   2.315   8.361   3.792
19398SOL    HW169848   2.245   8.360   3.864
19398SOL    HW269849   2.387   8.296   3.815
19399SOL     OW69850   2.077   4.585   7.801
19399SOL    HW169851   2.133   4.522   7.747
19399SOL    HW269852   2.129   4.669   7.818
19400SOL     OW69853   0.043   3.442   2.691
19400SOL    HW169854   0.064   3.464   2.595
19400SOL    HW269855   0.025   3.344   2.700
19401SOL     OW69856   8.170   8.002   2.443
19401SOL    HW169857   8.235   8.015   2.519
19401SOL    HW269858   8.084   7.966   2.478
19402SOL     OW69859   0.101   7.414   0.186
19402SOL    HW169860   0.113   7.316   0.201
19402SOL    HW269861   0.177   7.449   0.131
19403SOL     OW69862   3.331   0.475   4.347
19403SOL    HW169863   3.419   0.443   4.313
19403SOL    HW269864   3.346   0.543   4.419
19404SOL     OW69865   7.178   7.828   4.948
19404SOL    HW169866   7.085   7.843   4.981
19404SOL    HW269867   7.204   7.732   4.965
19405SOL     OW69868   4.137   3.087   3.000
19405SOL    HW169869   4.161   3.184   3.007
19405SOL    HW269870   4.172   3.050   2.914
19406SOL     OW69871   2.184   9.088   5.897
19406SOL    HW169872   2.110   9.026   5.926
19406SOL    HW269873   2.258   9.085   5.965
19407SOL     OW69874   7.060   7.604   5.215
19407SOL    HW169875   7.030   7.560   5.130
19407SOL    HW269876   6.982   7.645   5.261
19408SOL     OW69877   9.697   8.855   6.733
19408SOL    HW169878   9.764   8.929   6.743
19408SOL    HW269879   9.732   8.788   6.668
19409SOL     OW69880   4.912   0.791   7.434
19409SOL    HW169881   4.907   0.887   7.459
19409SOL    HW269882   4.822   0.749   7.445
19410SOL     OW69883   2.668   4.093   5.651
19410SOL    HW169884   2.713   4.174   5.689
19410SOL    HW269885   2.631   4.037   5.725
19411SOL     OW69886   0.413   3.348   7.081
19411SOL    HW169887   0.389   3.314   7.172
19411SOL    HW269888   0.334   3.338   7.021
19412SOL     OW69889   1.663   9.678   1.760
19412SOL    HW169890   1.623   9.716   1.677
19412SOL    HW269891   1.599   9.612   1.800
19413SOL     OW69892   9.715   2.158   1.913
19413SOL    HW169893   9.675   2.131   2.001
19413SOL    HW269894   9.752   2.078   1.866
19414SOL     OW69895   7.877   0.494   1.720
19414SOL    HW169896   7.820   0.425   1.763
19414SOL    HW269897   7.886   0.475   1.622
19415SOL     OW69898   9.071   3.026   0.215
19415SOL    HW169899   8.982   2.983   0.201
19415SOL    HW269900   9.141   2.979   0.161
19416SOL     OW69901   0.166   6.274   0.996
19416SOL    HW169902   0.067   6.270   0.988
19416SOL    HW269903   0.208   6.216   0.925
19417SOL     OW69904   0.779   7.299   3.352
19417SOL    HW169905   0.870   7.332   3.326
19417SOL    HW269906   0.753   7.339   3.440
19418SOL     OW69907   8.563   8.197   3.110
19418SOL    HW169908   8.656   8.225   3.135
19418SOL    HW269909   8.498   8.241   3.171
19419SOL     OW69910   4.942   6.784   2.675
19419SOL    HW169911   5.003   6.858   2.650
19419SOL    HW269912   4.895   6.750   2.594
19420SOL     OW69913   1.880   9.813   0.669
19420SOL    HW169914   1.815   9.737   0.676
19420SOL    HW269915   1.886   9.843   0.574
19421SOL     OW69916   3.679   8.187   4.213
19421SOL    HW169917   3.610   8.258   4.196
19421SOL    HW269918   3.770   8.228   4.210
19422SOL     OW69919   7.968   0.611   6.591
19422SOL    HW169920   7.942   0.520   6.624
19422SOL    HW269921   7.938   0.622   6.496
19423SOL     OW69922   0.684   5.732   0.387
19423SOL    HW169923   0.589   5.765   0.393
19423SOL    HW269924   0.746   5.810   0.387
19424SOL     OW69925   1.791   4.530   4.260
19424SOL    HW169926   1.834   4.543   4.171
19424SOL    HW269927   1.771   4.433   4.274
19425SOL     OW69928   5.899   9.429   6.387
19425SOL    HW169929   5.885   9.505   6.323
19425SOL    HW269930   5.977   9.449   6.446
19426SOL     OW69931   2.710   1.437   2.895
19426SOL    HW169932   2.611   1.432   2.886
19426SOL    HW269933   2.739   1.533   2.896
19427SOL     OW69934   2.442   2.099   2.285
19427SOL    HW169935   2.389   2.178   2.316
19427SOL    HW269936   2.532   2.100   2.330
19428SOL     OW69937   9.871   3.125   3.298
19428SOL    HW169938   9.852   3.128   3.396
19428SOL    HW269939   9.962   3.084   3.283
19429SOL     OW69940   3.706   7.903   6.274
19429SOL    HW169941   3.732   7.815   6.314
19429SOL    HW269942   3.753   7.914   6.187
19430SOL     OW69943   6.176   7.032   4.233
19430SOL    HW169944   6.230   7.057   4.313
19430SOL    HW269945   6.232   6.977   4.171
19431SOL     OW69946   1.484   2.080   0.768
19431SOL    HW169947   1.477   2.076   0.669
19431SOL    HW269948   1.393   2.094   0.808
19432SOL     OW69949   4.137   5.623   7.037
19432SOL    HW169950   4.229   5.592   7.013
19432SOL    HW269951   4.143   5.703   7.096
19433SOL     OW69952   7.409   4.960   0.135
19433SOL    HW169953   7.398   4.914   0.223
19433SOL    HW269954   7.353   4.914   0.067
19434SOL     OW69955   8.575   9.538   6.078
19434SOL    HW169956   8.577   9.482   5.995
19434SOL    HW269957   8.646   9.506   6.141
19435SOL     OW69958   9.155   7.653   2.125
19435SOL    HW169959   9.216   7.674   2.049
19435SOL    HW269960   9.097   7.575   2.102
19436SOL     OW69961   9.471   7.217   4.585
19436SOL    HW169962   9.375   7.243   4.571
19436SOL    HW269963   9.490   7.212   4.683
19437SOL     OW69964   3.604   1.896   2.164
19437SOL    HW169965   3.672   1.911   2.235
19437SOL    HW269966   3.521   1.856   2.205
19438SOL     OW69967   5.138   5.414   1.849
19438SOL    HW169968   5.080   5.363   1.912
19438SOL    HW269969   5.082   5.454   1.776
19439SOL     OW69970   0.958   3.827   0.451
19439SOL    HW169971   1.010   3.817   0.536
19439SOL    HW269972   0.861   3.810   0.469
19440SOL     OW69973   8.145   2.185   5.215
19440SOL    HW169974   8.098   2.111   5.167
19440SOL    HW269975   8.239   2.192   5.182
19441SOL     OW69976   9.038   4.534   0.278
19441SOL    HW169977   9.016   4.553   0.373
19441SOL    HW269978   8.960   4.560   0.220
19442SOL     OW69979   3.051   4.481   7.258
19442SOL    HW169980   3.013   4.465   7.349
19442SOL    HW269981   3.135   4.535   7.265
19443SOL     OW69982   4.493   7.633   5.965
19443SOL    HW169983   4.546   7.701   6.017
19443SOL    HW269984   4.442   7.575   6.027
19444SOL     OW69985   8.751   1.951   4.661
19444SOL    HW169986   8.708   1.912   4.742
19444SOL    HW269987   8.693   1.937   4.582
19445SOL     OW69988   4.810   4.593   5.710
19445SOL    HW169989   4.729   4.643   5.742
19445SOL    HW269990   4.823   4.511   5.766
19446SOL     OW69991   6.552   2.788   1.545
19446SOL    HW169992   6.594   2.874   1.574
19446SOL    HW269993   6.541   2.789   1.446
19447SOL     OW69994   8.656   4.776   7.570
19447SOL    HW169995   8.604   4.698   7.533
19447SOL    HW269996   8.753   4.762   7.553
19448SOL     OW69997   9.473   7.033   4.002
19448SOL    HW169998   9.380   7.007   3.974
19448SOL    HW269999   9.470   7.074   4.093
19449SOL     OW70000   2.883   7.624   6.198
19449SOL    HW170001   2.978   7.599   6.214
19449SOL    HW270002   2.877   7.692   6.126
19450SOL     OW70003   0.252   1.352   0.282
19450SOL    HW170004   0.331   1.338   0.222
19450SOL    HW270005   0.277   1.413   0.357
19451SOL     OW70006   1.632   2.832   3.719
19451SOL    HW170007   1.575   2.848   3.638
19451SOL    HW270008   1.726   2.860   3.699
19452SOL     OW70009   8.981   0.697   6.668
19452SOL    HW170010   8.966   0.604   6.633
19452SOL    HW270011   9.078   0.720   6.662
19453SOL     OW70012   2.672   4.946   5.421
19453SOL    HW170013   2.731   5.020   5.455
19453SOL    HW270014   2.681   4.941   5.321
19454SOL     OW70015   2.126   7.596   0.444
19454SOL    HW170016   2.135   7.692   0.470
19454SOL    HW270017   2.173   7.538   0.510
19455SOL     OW70018   0.773   9.931   4.609
19455SOL    HW170019   0.839   9.892   4.672
19455SOL    HW270020   0.685   9.885   4.621
19456SOL     OW70021   8.944   5.912   3.707
19456SOL    HW170022   8.907   5.973   3.638
19456SOL    HW270023   9.044   5.922   3.710
19457SOL     OW70024   5.485   3.670   1.603
19457SOL    HW170025   5.574   3.682   1.647
19457SOL    HW270026   5.417   3.725   1.650
19458SOL     OW70027   2.323   8.911   0.977
19458SOL    HW170028   2.412   8.866   0.982
19458SOL    HW270029   2.252   8.843   0.961
19459SOL     OW70030   8.607   0.126   4.103
19459SOL    HW170031   8.525   0.126   4.046
19459SOL    HW270032   8.644   0.034   4.109
19460SOL     OW70033   7.916   9.987   4.666
19460SOL    HW170034   7.817   9.980   4.655
19460SOL    HW270035   7.952   9.900   4.700
19461SOL     OW70036   2.293   5.889   5.647
19461SOL    HW170037   2.211   5.875   5.592
19461SOL    HW270038   2.333   5.979   5.628
19462SOL     OW70039   4.015   6.069   3.809
19462SOL    HW170040   4.004   5.995   3.876
19462SOL    HW270041   4.035   6.155   3.856
19463SOL     OW70042   9.592   1.045   6.331
19463SOL    HW170043   9.558   1.080   6.419
19463SOL    HW270044   9.603   0.946   6.338
19464SOL     OW70045   8.952   2.681   4.758
19464SOL    HW170046   9.035   2.651   4.805
19464SOL    HW270047   8.895   2.601   4.738
19465SOL     OW70048   3.353   9.672   5.154
19465SOL    HW170049   3.324   9.580   5.177
19465SOL    HW270050   3.453   9.675   5.149
19466SOL     OW70051   2.587   4.177   1.767
19466SOL    HW170052   2.557   4.231   1.688
19466SOL    HW270053   2.514   4.114   1.792
19467SOL     OW70054   3.528   4.608   4.173
19467SOL    HW170055   3.459   4.540   4.150
19467SOL    HW270056   3.483   4.689   4.210
19468SOL     OW70057   2.728   8.384   0.705
19468SOL    HW170058   2.672   8.302   0.720
19468SOL    HW270059   2.801   8.363   0.640
19469SOL     OW70060   0.383   9.568   3.103
19469SOL    HW170061   0.407   9.663   3.123
19469SOL    HW270062   0.444   9.534   3.031
19470SOL     OW70063   9.853   0.879   7.021
19470SOL    HW170064   9.757   0.873   7.047
19470SOL    HW270065   9.860   0.884   6.921
19471SOL     OW70066   2.314   2.687   7.369
19471SOL    HW170067   2.263   2.616   7.417
19471SOL    HW270068   2.267   2.775   7.380
19472SOL     OW70069   0.122   1.132   5.749
19472SOL    HW170070   0.084   1.182   5.827
19472SOL    HW270071   0.119   1.189   5.667
19473SOL     OW70072   3.129   5.289   6.366
19473SOL    HW170073   3.180   5.374   6.375
19473SOL    HW270074   3.088   5.283   6.275
19474SOL     OW70075   1.521   4.269   1.048
19474SOL    HW170076   1.480   4.358   1.066
19474SOL    HW270077   1.615   4.269   1.081
19475SOL     OW70078   6.763   1.888   2.126
19475SOL    HW170079   6.790   1.912   2.220
19475SOL    HW270080   6.844   1.862   2.074
19476SOL     OW70081   2.190   3.607   0.639
19476SOL    HW170082   2.115   3.629   0.702
19476SOL    HW270083   2.216   3.511   0.652
19477SOL     OW70084   8.922   5.415   0.995
19477SOL    HW170085   8.897   5.447   0.904
19477SOL    HW270086   8.961   5.324   0.989
19478SOL     OW70087   3.688   2.140   4.103
19478SOL    HW170088   3.633   2.154   4.021
19478SOL    HW270089   3.771   2.089   4.080
19479SOL     OW70090   4.367   4.673   6.576
19479SOL    HW170091   4.273   4.671   6.542
19479SOL    HW270092   4.374   4.739   6.651
19480SOL     OW70093   3.893   9.366   4.729
19480SOL    HW170094   3.951   9.428   4.675
19480SOL    HW270095   3.915   9.271   4.705
19481SOL     OW70096   2.031   5.726   4.686
19481SOL    HW170097   2.100   5.798   4.698
19481SOL    HW270098   2.001   5.693   4.776
19482SOL     OW70099   9.802   0.296   7.729
19482SOL    HW170100   9.800   0.330   7.823
19482SOL    HW270101   9.896   0.272   7.705
19483SOL     OW70102   7.203   1.223   6.362
19483SOL    HW170103   7.132   1.180   6.306
19483SOL    HW270104   7.210   1.320   6.337
19484SOL     OW70105   7.860   8.283   6.908
19484SOL    HW170106   7.924   8.303   6.982
19484SOL    HW270107   7.887   8.198   6.862
19485SOL     OW70108   9.343   4.798   7.509
19485SOL    HW170109   9.252   4.839   7.514
19485SOL    HW270110   9.403   4.841   7.577
19486SOL     OW70111   6.167   2.075   1.213
19486SOL    HW170112   6.213   2.004   1.159
19486SOL    HW270113   6.213   2.163   1.199
19487SOL     OW70114   1.056   1.590   0.310
19487SOL    HW170115   1.002   1.666   0.345
19487SOL    HW270116   1.069   1.522   0.383
19488SOL     OW70117   9.759   3.596   5.869
19488SOL    HW170118   9.763   3.507   5.914
19488SOL    HW270119   9.729   3.585   5.775
19489SOL     OW70120   0.856   1.965   2.538
19489SOL    HW170121   0.808   2.052   2.548
19489SOL    HW270122   0.896   1.959   2.446
19490SOL     OW70123   1.365   0.416   7.580
19490SOL    HW170124   1.441   0.407   7.515
19490SOL    HW270125   1.329   0.510   7.576
19491SOL     OW70126   6.001   7.384   4.283
19491SOL    HW170127   5.971   7.297   4.245
19491SOL    HW270128   6.093   7.405   4.251
19492SOL     OW70129   8.553   7.779   2.249
19492SOL    HW170130   8.501   7.835   2.184
19492SOL    HW270131   8.651   7.784   2.226
19493SOL     OW70132   0.580   7.207   3.191
19493SOL    HW170133   0.662   7.245   3.232
19493SOL    HW270134   0.522   7.282   3.158
19494SOL     OW70135   7.240   4.716   2.212
19494SOL    HW170136   7.224   4.751   2.120
19494SOL    HW270137   7.297   4.635   2.208
19495SOL     OW70138   3.187   3.221   0.474
19495SOL    HW170139   3.099   3.181   0.447
19495SOL    HW270140   3.184   3.320   0.458
19496SOL     OW70141   3.542   2.307   3.641
19496SOL    HW170142   3.444   2.296   3.625
19496SOL    HW270143   3.565   2.404   3.638
19497SOL     OW70144   7.694   1.488   4.296
19497SOL    HW170145   7.778   1.455   4.254
19497SOL    HW270146   7.708   1.580   4.333
19498SOL     OW70147   9.924   0.726   6.103
19498SOL    HW170148   9.939   0.824   6.092
19498SOL    HW270149   9.974   0.676   6.031
19499SOL     OW70150   3.401   1.744   6.170
19499SOL    HW170151   3.368   1.662   6.216
19499SOL    HW270152   3.405   1.820   6.235
19500SOL     OW70153   5.958   8.395   3.426
19500SOL    HW170154   6.021   8.350   3.363
19500SOL    HW270155   5.918   8.327   3.488
19501SOL     OW70156   7.197   0.580   1.077
19501SOL    HW170157   7.189   0.592   1.176
19501SOL    HW270158   7.260   0.505   1.058
19502SOL     OW70159   1.160   5.280   5.270
19502SOL    HW170160   1.214   5.217   5.326
19502SOL    HW270161   1.084   5.231   5.227
19503SOL     OW70162   3.858   2.974   1.674
19503SOL    HW170163   3.930   2.906   1.686
19503SOL    HW270164   3.800   2.977   1.756
19504SOL     OW70165   8.438   8.254   4.495
19504SOL    HW170166   8.369   8.218   4.433
19504SOL    HW270167   8.403   8.336   4.540
19505SOL     OW70168   4.938   8.426   2.422
19505SOL    HW170169   4.958   8.330   2.437
19505SOL    HW270170   4.966   8.453   2.330
19506SOL     OW70171   9.531   5.475   5.727
19506SOL    HW170172   9.444   5.479   5.678
19506SOL    HW270173   9.515   5.438   5.819
19507SOL     OW70174   9.912   5.010   7.749
19507SOL    HW170175   9.936   4.942   7.818
19507SOL    HW270176   9.853   5.080   7.790
19508SOL     OW70177   9.058   1.774   4.434
19508SOL    HW170178   9.114   1.694   4.414
19508SOL    HW270179   9.079   1.847   4.369
19509SOL     OW70180   1.440   9.286   1.688
19509SOL    HW170181   1.345   9.258   1.696
19509SOL    HW270182   1.464   9.295   1.591
19510SOL     OW70183   0.573   0.908   1.632
19510SOL    HW170184   0.657   0.938   1.586
19510SOL    HW270185   0.494   0.943   1.583
19511SOL     OW70186   1.430   9.528   7.881
19511SOL    HW170187   1.475   9.590   7.816
19511SOL    HW270188   1.411   9.441   7.836
19512SOL     OW70189   7.013   3.206   3.995
19512SOL    HW170190   6.918   3.177   3.982
19512SOL    HW270191   7.026   3.234   4.091
19513SOL     OW70192   1.973   2.675   6.187
19513SOL    HW170193   2.070   2.694   6.201
19513SOL    HW270194   1.928   2.665   6.276
19514SOL     OW70195   3.488   0.757   7.790
19514SOL    HW170196   3.561   0.719   7.848
19514SOL    HW270197   3.439   0.683   7.744
19515SOL     OW70198   1.231   7.895   7.886
19515SOL    HW170199   1.265   7.850   7.968
19515SOL    HW270200   1.292   7.873   7.809
19516SOL     OW70201   1.880   9.619   7.195
19516SOL    HW170202   1.962   9.650   7.146
19516SOL    HW270203   1.800   9.628   7.136
19517SOL     OW70204   9.526   7.463   3.191
19517SOL    HW170205   9.469   7.454   3.110
19517SOL    HW270206   9.489   7.534   3.251
19518SOL     OW70207   6.679   5.452   2.545
19518SOL    HW170208   6.684   5.550   2.565
19518SOL    HW270209   6.678   5.439   2.446
19519SOL     OW70210   0.889   2.084   1.924
19519SOL    HW170211   0.796   2.055   1.900
19519SOL    HW270212   0.930   2.130   1.846
19520SOL     OW70213   6.112   8.086   3.499
19520SOL    HW170214   6.020   8.114   3.526
19520SOL    HW270215   6.174   8.097   3.577
19521SOL     OW70216   0.901   4.108   1.845
19521SOL    HW170217   0.890   4.150   1.755
19521SOL    HW270218   0.994   4.072   1.854
19522SOL     OW70219   3.252   7.087   5.527
19522SOL    HW170220   3.290   7.177   5.504
19522SOL    HW270221   3.250   7.030   5.444
19523SOL     OW70222   5.245   4.993   7.482
19523SOL    HW170223   5.196   4.924   7.535
19523SOL    HW270224   5.219   4.986   7.386
19524SOL     OW70225   2.169   5.566   5.602
19524SOL    HW170226   2.111   5.569   5.521
19524SOL    HW270227   2.122   5.608   5.680
19525SOL     OW70228   3.120   0.121   6.252
19525SOL    HW170229   3.183   0.043   6.257
19525SOL    HW270230   3.155   0.195   6.310
19526SOL     OW70231   3.649   2.734   7.527
19526SOL    HW170232   3.633   2.827   7.561
19526SOL    HW270233   3.738   2.730   7.481
19527SOL     OW70234   1.449   4.628   3.574
19527SOL    HW170235   1.365   4.611   3.626
19527SOL    HW270236   1.518   4.560   3.599
19528SOL     OW70237   4.632   5.934   2.170
19528SOL    HW170238   4.573   5.854   2.157
19528SOL    HW270239   4.669   5.934   2.262
19529SOL     OW70240   1.584   2.997   7.145
19529SOL    HW170241   1.513   2.993   7.215
19529SOL    HW270242   1.652   2.925   7.162
19530SOL     OW70243   9.100   6.134   6.809
19530SOL    HW170244   9.142   6.196   6.875
19530SOL    HW270245   9.159   6.054   6.797
19531SOL     OW70246   4.626   0.991   7.854
19531SOL    HW170247   4.540   0.970   7.901
19531SOL    HW270248   4.696   0.925   7.883
19532SOL     OW70249   3.221   1.482   5.344
19532SOL    HW170250   3.216   1.500   5.245
19532SOL    HW270251   3.263   1.560   5.390
19533SOL     OW70252   5.864   0.040   1.527
19533SOL    HW170253   5.959   0.065   1.512
19533SOL    HW270254   5.805   0.118   1.504
19534SOL     OW70255   2.114   4.688   4.239
19534SOL    HW170256   2.146   4.770   4.191
19534SOL    HW270257   2.065   4.715   4.322
19535SOL     OW70258   6.338   3.564   2.123
19535SOL    HW170259   6.307   3.469   2.134
19535SOL    HW270260   6.428   3.565   2.079
19536SOL     OW70261   0.627   7.447   6.231
19536SOL    HW170262   0.662   7.535   6.261
19536SOL    HW270263   0.637   7.380   6.304
19537SOL     OW70264   6.258   7.523   5.526
19537SOL    HW170265   6.272   7.426   5.547
19537SOL    HW270266   6.193   7.531   5.450
19538SOL     OW70267   4.275   1.620   6.031
19538SOL    HW170268   4.282   1.573   6.119
19538SOL    HW270269   4.180   1.646   6.014
19539SOL     OW70270   7.545   6.095   6.719
19539SOL    HW170271   7.598   6.080   6.802
19539SOL    HW270272   7.464   6.036   6.720
19540SOL     OW70273   8.292   0.162   0.706
19540SOL    HW170274   8.314   0.217   0.787
19540SOL    HW270275   8.363   0.093   0.692
19541SOL     OW70276   2.729   2.245   3.884
19541SOL    HW170277   2.714   2.340   3.856
19541SOL    HW270278   2.816   2.238   3.933
19542SOL     OW70279   3.072   7.599   0.713
19542SOL    HW170280   2.983   7.624   0.675
19542SOL    HW270281   3.142   7.663   0.679
19543SOL     OW70282   6.987   6.883   6.959
19543SOL    HW170283   6.988   6.788   6.929
19543SOL    HW270284   7.081   6.917   6.966
19544SOL     OW70285   0.823   4.770   5.111
19544SOL    HW170286   0.749   4.819   5.064
19544SOL    HW270287   0.790   4.681   5.140
19545SOL     OW70288   0.216   6.178   7.742
19545SOL    HW170289   0.239   6.237   7.664
19545SOL    HW270290   0.255   6.087   7.727
19546SOL     OW70291   8.348   7.892   5.589
19546SOL    HW170292   8.411   7.918   5.516
19546SOL    HW270293   8.270   7.844   5.550
19547SOL     OW70294   1.435   4.795   6.254
19547SOL    HW170295   1.523   4.834   6.282
19547SOL    HW270296   1.449   4.728   6.181
19548SOL     OW70297   8.861   7.128   6.833
19548SOL    HW170298   8.925   7.074   6.779
19548SOL    HW270299   8.884   7.120   6.930
19549SOL     OW70300   0.803   2.276   6.944
19549SOL    HW170301   0.855   2.344   6.892
19549SOL    HW270302   0.859   2.193   6.954
19550SOL     OW70303   9.181   9.285   4.956
19550SOL    HW170304   9.219   9.313   5.044
19550SOL    HW270305   9.131   9.361   4.914
19551SOL     OW70306   7.933   6.013   1.543
19551SOL    HW170307   7.973   5.951   1.610
19551SOL    HW270308   7.881   5.961   1.475
19552SOL     OW70309   7.680   1.705   3.410
19552SOL    HW170310   7.603   1.737   3.355
19552SOL    HW270311   7.674   1.742   3.502
19553SOL     OW70312   7.813   0.571   5.055
19553SOL    HW170313   7.839   0.477   5.076
19553SOL    HW270314   7.753   0.571   4.975
19554SOL     OW70315   4.703   7.972   0.670
19554SOL    HW170316   4.756   8.048   0.632
19554SOL    HW270317   4.637   7.939   0.602
19555SOL     OW70318   8.036   4.947   3.371
19555SOL    HW170319   8.095   5.026   3.382
19555SOL    HW270320   8.091   4.868   3.343
19556SOL     OW70321   5.543   8.401   5.964
19556SOL    HW170322   5.557   8.336   5.889
19556SOL    HW270323   5.631   8.419   6.008
19557SOL     OW70324   7.631   5.884   5.581
19557SOL    HW170325   7.654   5.792   5.612
19557SOL    HW270326   7.536   5.885   5.549
19558SOL     OW70327   0.231   9.780   6.919
19558SOL    HW170328   0.309   9.787   6.981
19558SOL    HW270329   0.250   9.712   6.849
19559SOL     OW70330   4.307   5.497   2.588
19559SOL    HW170331   4.342   5.542   2.670
19559SOL    HW270332   4.212   5.525   2.573
19560SOL     OW70333   6.701   3.601   1.125
19560SOL    HW170334   6.613   3.568   1.091
19560SOL    HW270335   6.716   3.566   1.217
19561SOL     OW70336   1.171   4.975   4.165
19561SOL    HW170337   1.252   5.015   4.209
19561SOL    HW270338   1.159   4.881   4.197
19562SOL     OW70339   2.524   2.495   3.213
19562SOL    HW170340   2.582   2.422   3.249
19562SOL    HW270341   2.467   2.532   3.286
19563SOL     OW70342   3.652   8.895   4.899
19563SOL    HW170343   3.751   8.902   4.891
19563SOL    HW270344   3.611   8.985   4.880
19564SOL     OW70345   5.742   1.367   7.368
19564SOL    HW170346   5.793   1.281   7.358
19564SOL    HW270347   5.741   1.416   7.282
19565SOL     OW70348   4.299   0.278   2.962
19565SOL    HW170349   4.366   0.330   2.910
19565SOL    HW270350   4.311   0.297   3.060
19566SOL     OW70351   7.943   0.674  10.079
19566SOL    HW170352   7.845   0.694   0.004
19566SOL    HW270353   7.965   0.647   9.986
19567SOL     OW70354   7.851   5.978   6.727
19567SOL    HW170355   7.822   6.033   6.649
19567SOL    HW270356   7.819   6.021   6.812
19568SOL     OW70357   1.855   2.686   5.767
19568SOL    HW170358   1.807   2.650   5.687
19568SOL    HW270359   1.822   2.778   5.787
19569SOL     OW70360   8.836   7.545   4.924
19569SOL    HW170361   8.917   7.566   4.869
19569SOL    HW270362   8.839   7.450   4.953
19570SOL     OW70363   7.064   7.913   6.994
19570SOL    HW170364   7.132   7.964   6.941
19570SOL    HW270365   6.991   7.882   6.934
19571SOL     OW70366   5.974   1.416   1.155
19571SOL    HW170367   6.070   1.412   1.181
19571SOL    HW270368   5.962   1.374   1.065
19572SOL     OW70369   8.147   9.744   1.707
19572SOL    HW170370   8.121   9.677   1.776
19572SOL    HW270371   8.196   9.698   1.633
19573SOL     OW70372   2.463   1.887   0.448
19573SOL    HW170373   2.370   1.853   0.465
19573SOL    HW270374   2.515   1.884   0.533
19574SOL     OW70375   1.613   5.432   7.774
19574SOL    HW170376   1.698   5.484   7.769
19574SOL    HW270377   1.535   5.492   7.753
19575SOL     OW70378   8.112   2.227   3.368
19575SOL    HW170379   8.207   2.217   3.339
19575SOL    HW270380   8.071   2.306   3.322
19576SOL     OW70381   8.827   9.421   7.453
19576SOL    HW170382   8.835   9.519   7.470
19576SOL    HW270383   8.791   9.406   7.361
19577SOL     OW70384   3.430   1.705   3.424
19577SOL    HW170385   3.521   1.675   3.450
19577SOL    HW270386   3.426   1.721   3.326
19578SOL     OW70387   6.610   4.118   2.941
19578SOL    HW170388   6.649   4.084   3.026
19578SOL    HW270389   6.560   4.045   2.895
19579SOL     OW70390   4.527   7.980   0.887
19579SOL    HW170391   4.581   8.001   0.968
19579SOL    HW270392   4.587   7.972   0.808
19580SOL     OW70393   9.526   6.121   1.206
19580SOL    HW170394   9.531   6.210   1.250
19580SOL    HW270395   9.435   6.082   1.220
19581SOL     OW70396   4.757   2.604   0.689
19581SOL    HW170397   4.818   2.542   0.739
19581SOL    HW270398   4.665   2.598   0.727
19582SOL     OW70399   9.481   9.180   1.815
19582SOL    HW170400   9.502   9.139   1.903
19582SOL    HW270401   9.418   9.257   1.829
19583SOL     OW70402   1.539   1.531   0.755
19583SOL    HW170403   1.549   1.445   0.705
19583SOL    HW270404   1.590   1.526   0.841
19584SOL     OW70405   9.235   5.414   7.335
19584SOL    HW170406   9.236   5.419   7.235
19584SOL    HW270407   9.236   5.318   7.363
19585SOL     OW70408   1.471   8.886   7.572
19585SOL    HW170409   1.493   8.982   7.556
19585SOL    HW270410   1.547   8.829   7.542
19586SOL     OW70411   1.508   6.877   6.311
19586SOL    HW170412   1.410   6.861   6.315
19586SOL    HW270413   1.525   6.970   6.278
19587SOL     OW70414   2.200   8.488   5.191
19587SOL    HW170415   2.286   8.532   5.166
19587SOL    HW270416   2.132   8.558   5.214
19588SOL     OW70417   6.712   1.258   2.187
19588SOL    HW170418   6.706   1.188   2.259
19588SOL    HW270419   6.807   1.267   2.158
19589SOL     OW70420   6.789   0.060   7.049
19589SOL    HW170421   6.860   0.030   7.112
19589SOL    HW270422   6.700   0.027   7.081
19590SOL     OW70423   4.360   0.208   7.752
19590SOL    HW170424   4.287   0.230   7.687
19590SOL    HW270425   4.387   0.113   7.741
19591SOL     OW70426   7.250   6.634   4.997
19591SOL    HW170427   7.324   6.600   4.938
19591SOL    HW270428   7.197   6.558   5.032
19592SOL     OW70429   8.457   5.392   2.707
19592SOL    HW170430   8.519   5.326   2.664
19592SOL    HW270431   8.434   5.464   2.642
19593SOL     OW70432   2.267   3.158   3.176
19593SOL    HW170433   2.170   3.142   3.154
19593SOL    HW270434   2.299   3.238   3.126
19594SOL     OW70435   6.642   3.032   4.151
19594SOL    HW170436   6.676   3.075   4.067
19594SOL    HW270437   6.618   2.937   4.132
19595SOL     OW70438   9.212   8.263   4.624
19595SOL    HW170439   9.282   8.198   4.592
19595SOL    HW270440   9.231   8.289   4.719
19596SOL     OW70441   9.167   2.650   6.650
19596SOL    HW170442   9.118   2.732   6.621
19596SOL    HW270443   9.175   2.650   6.750
19597SOL     OW70444   2.334   7.136   1.213
19597SOL    HW170445   2.433   7.119   1.208
19597SOL    HW270446   2.311   7.214   1.155
19598SOL     OW70447   0.361   2.802   3.588
19598SOL    HW170448   0.316   2.715   3.605
19598SOL    HW270449   0.293   2.876   3.588
19599SOL     OW70450   5.916   0.580   1.045
19599SOL    HW170451   5.869   0.644   1.106
19599SOL    HW270452   5.956   0.506   1.099
19600SOL     OW70453   2.422   2.412   3.811
19600SOL    HW170454   2.425   2.340   3.742
19600SOL    HW270455   2.512   2.454   3.820
19601SOL     OW70456   4.281   2.641   7.523
19601SOL    HW170457   4.259   2.672   7.431
19601SOL    HW270458   4.347   2.566   7.519
19602SOL     OW70459   3.556   8.929   1.179
19602SOL    HW170460   3.587   8.934   1.274
19602SOL    HW270461   3.577   8.838   1.143
19603SOL     OW70462   9.753   1.758   6.055
19603SOL    HW170463   9.718   1.848   6.084
19603SOL    HW270464   9.851   1.752   6.077
19604SOL     OW70465   0.235   4.162   3.446
19604SOL    HW170466   0.237   4.197   3.352
19604SOL    HW270467   0.253   4.063   3.445
19605SOL     OW70468   9.368   5.034   0.822
19605SOL    HW170469   9.368   4.950   0.877
19605SOL    HW270470   9.438   5.027   0.751
19606SOL     OW70471   3.779   1.987   0.708
19606SOL    HW170472   3.837   2.044   0.766
19606SOL    HW270473   3.722   1.929   0.766
19607SOL     OW70474   7.720   4.380   1.167
19607SOL    HW170475   7.637   4.367   1.221
19607SOL    HW270476   7.718   4.320   1.087
19608SOL     OW70477   4.746   3.290   5.857
19608SOL    HW170478   4.816   3.340   5.806
19608SOL    HW270479   4.743   3.195   5.825
19609SOL     OW70480   1.656   1.374   3.976
19609SOL    HW170481   1.730   1.428   3.936
19609SOL    HW270482   1.583   1.435   4.008
19610SOL     OW70483   7.338   8.744   6.840
19610SOL    HW170484   7.316   8.756   6.743
19610SOL    HW270485   7.431   8.708   6.849
19611SOL     OW70486   5.826   0.574   5.557
19611SOL    HW170487   5.786   0.534   5.475
19611SOL    HW270488   5.924   0.551   5.561
19612SOL     OW70489   5.423   0.333   5.647
19612SOL    HW170490   5.406   0.380   5.734
19612SOL    HW270491   5.358   0.366   5.579
19613SOL     OW70492   9.592   5.471   0.835
19613SOL    HW170493   9.512   5.418   0.864
19613SOL    HW270494   9.574   5.569   0.850
19614SOL     OW70495   3.761   5.310   0.325
19614SOL    HW170496   3.706   5.287   0.245
19614SOL    HW270497   3.704   5.362   0.390
19615SOL     OW70498   2.581   5.964   7.045
19615SOL    HW170499   2.625   5.874   7.052
19615SOL    HW270500   2.635   6.022   6.983
19616SOL     OW70501   3.813   0.355   5.543
19616SOL    HW170502   3.719   0.325   5.555
19616SOL    HW270503   3.854   0.307   5.466
19617SOL     OW70504   8.465   0.891   1.443
19617SOL    HW170505   8.431   0.890   1.537
19617SOL    HW270506   8.559   0.925   1.442
19618SOL     OW70507   6.411   8.353   3.349
19618SOL    HW170508   6.419   8.444   3.390
19618SOL    HW270509   6.434   8.283   3.417
19619SOL     OW70510   6.835   8.445   4.365
19619SOL    HW170511   6.748   8.489   4.343
19619SOL    HW270512   6.832   8.409   4.458
19620SOL     OW70513   2.317   8.082   6.421
19620SOL    HW170514   2.317   7.998   6.476
19620SOL    HW270515   2.238   8.138   6.446
19621SOL     OW70516   3.199   6.736   2.557
19621SOL    HW170517   3.232   6.737   2.462
19621SOL    HW270518   3.267   6.778   2.617
19622SOL     OW70519   8.473   7.305   5.958
19622SOL    HW170520   8.461   7.217   5.911
19622SOL    HW270521   8.405   7.370   5.923
19623SOL     OW70522   8.956   6.711   1.234
19623SOL    HW170523   8.926   6.800   1.200
19623SOL    HW270524   8.909   6.691   1.320
19624SOL     OW70525   1.861   5.670   1.346
19624SOL    HW170526   1.767   5.678   1.314
19624SOL    HW270527   1.918   5.739   1.301
19625SOL     OW70528   0.592   2.708   5.697
19625SOL    HW170529   0.690   2.726   5.694
19625SOL    HW270530   0.569   2.643   5.624
19626SOL     OW70531   4.139   4.204   3.662
19626SOL    HW170532   4.134   4.104   3.671
19626SOL    HW270533   4.138   4.229   3.565
19627SOL     OW70534   0.515   7.533   4.226
19627SOL    HW170535   0.553   7.554   4.136
19627SOL    HW270536   0.416   7.549   4.225
19628SOL     OW70537   0.436   0.046   4.283
19628SOL    HW170538   0.455   9.951   4.260
19628SOL    HW270539   0.510   0.082   4.340
19629SOL     OW70540   2.456   1.829   7.927
19629SOL    HW170541   2.477   1.887   8.006
19629SOL    HW270542   2.430   1.886   7.849
19630SOL     OW70543   2.333   4.016   2.116
19630SOL    HW170544   2.367   4.107   2.141
19630SOL    HW270545   2.237   4.008   2.141
19631SOL     OW70546   5.100   4.418   1.060
19631SOL    HW170547   5.125   4.514   1.052
19631SOL    HW270548   5.182   4.364   1.081
19632SOL     OW70549   3.827   8.463   4.516
19632SOL    HW170550   3.838   8.532   4.444
19632SOL    HW270551   3.854   8.374   4.480
19633SOL     OW70552   3.044   1.120   6.372
19633SOL    HW170553   2.958   1.068   6.377
19633SOL    HW270554   3.094   1.110   6.458
19634SOL     OW70555   1.847   5.864   4.520
19634SOL    HW170556   1.915   5.802   4.559
19634SOL    HW270557   1.792   5.903   4.593
19635SOL     OW70558   0.046   9.530   5.166
19635SOL    HW170559   0.121   9.467   5.186
19635SOL    HW270560   0.046   9.605   5.232
19636SOL     OW70561   6.856   8.015   6.377
19636SOL    HW170562   6.822   7.999   6.284
19636SOL    HW270563   6.821   7.944   6.438
19637SOL     OW70564   9.883   3.610   2.849
19637SOL    HW170565   9.804   3.550   2.863
19637SOL    HW270566   9.948   3.566   2.789
19638SOL     OW70567   9.197   0.943   1.044
19638SOL    HW170568   9.239   0.989   0.966
19638SOL    HW270569   9.265   0.884   1.088
19639SOL     OW70570   8.904   9.249   3.795
19639SOL    HW170571   8.957   9.310   3.855
19639SOL    HW270572   8.879   9.297   3.712
19640SOL     OW70573   3.078   2.334   1.084
19640SOL    HW170574   3.009   2.383   1.030
19640SOL    HW270575   3.043   2.321   1.177
19641SOL     OW70576   3.020   0.112   3.631
19641SOL    HW170577   2.952   0.184   3.645
19641SOL    HW270578   2.976   0.023   3.638
19642SOL     OW70579   1.015   7.765   6.843
19642SOL    HW170580   1.072   7.844   6.865
19642SOL    HW270581   1.068   7.700   6.788
19643SOL     OW70582   7.255   6.948   7.006
19643SOL    HW170583   7.328   6.955   6.938
19643SOL    HW270584   7.278   7.004   7.086
19644SOL     OW70585   6.344   9.324   4.669
19644SOL    HW170586   6.248   9.342   4.690
19644SOL    HW270587   6.383   9.403   4.621
19645SOL     OW70588   0.019   3.353   5.363
19645SOL    HW170589   0.035   3.340   5.265
19645SOL    HW270590   9.930   3.316   5.387
19646SOL     OW70591   5.179   8.313   5.691
19646SOL    HW170592   5.239   8.249   5.642
19646SOL    HW270593   5.225   8.401   5.699
19647SOL     OW70594   5.450   8.370   2.091
19647SOL    HW170595   5.500   8.402   2.172
19647SOL    HW270596   5.463   8.434   2.016
19648SOL     OW70597   4.596   9.508   5.136
19648SOL    HW170598   4.650   9.592   5.146
19648SOL    HW270599   4.623   9.442   5.206
19649SOL     OW70600   9.035   6.218   4.093
19649SOL    HW170601   9.011   6.164   4.174
19649SOL    HW270602   9.098   6.166   4.036
19650SOL     OW70603   8.819   9.165   2.496
19650SOL    HW170604   8.811   9.229   2.419
19650SOL    HW270605   8.732   9.120   2.511
19651SOL     OW70606   9.046   7.737   6.800
19651SOL    HW170607   8.971   7.801   6.820
19651SOL    HW270608   9.124   7.787   6.762
19652SOL     OW70609   7.343   8.236   7.043
19652SOL    HW170610   7.296   8.172   6.981
19652SOL    HW270611   7.441   8.235   7.023
19653SOL     OW70612   7.158   1.585   1.284
19653SOL    HW170613   7.225   1.633   1.226
19653SOL    HW270614   7.086   1.649   1.312
19654SOL     OW70615   1.640   2.488   0.828
19654SOL    HW170616   1.637   2.390   0.849
19654SOL    HW270617   1.656   2.539   0.913
19655SOL     OW70618   0.816   6.954   0.714
19655SOL    HW170619   0.858   6.864   0.705
19655SOL    HW270620   0.888   7.024   0.715
19656SOL     OW70621   4.490   3.255   5.355
19656SOL    HW170622   4.508   3.283   5.261
19656SOL    HW270623   4.577   3.239   5.402
19657SOL     OW70624   9.711   2.801   0.242
19657SOL    HW170625   9.792   2.745   0.224
19657SOL    HW270626   9.708   2.876   0.176
19658SOL     OW70627   4.780   0.443   6.050
19658SOL    HW170628   4.865   0.493   6.065
19658SOL    HW270629   4.734   0.428   6.138
19659SOL     OW70630   3.473   4.827   2.927
19659SOL    HW170631   3.477   4.915   2.878
19659SOL    HW270632   3.407   4.833   3.001
19660SOL     OW70633   0.906   4.368   5.033
19660SOL    HW170634   0.905   4.356   4.934
19660SOL    HW270635   1.000   4.382   5.064
19661SOL     OW70636   8.116   0.868   1.738
19661SOL    HW170637   8.083   0.804   1.668
19661SOL    HW270638   8.075   0.844   1.826
19662SOL     OW70639   6.916   2.426   4.568
19662SOL    HW170640   6.944   2.418   4.664
19662SOL    HW270641   6.857   2.349   4.545
19663SOL     OW70642   8.221   3.193   3.662
19663SOL    HW170643   8.215   3.231   3.569
19663SOL    HW270644   8.194   3.097   3.660
19664SOL     OW70645   0.350   4.907   1.289
19664SOL    HW170646   0.353   4.878   1.194
19664SOL    HW270647   0.316   4.832   1.346
19665SOL     OW70648   2.710   6.537   6.328
19665SOL    HW170649   2.661   6.602   6.387
19665SOL    HW270650   2.805   6.567   6.316
19666SOL     OW70651   1.857   4.159   0.860
19666SOL    HW170652   1.804   4.099   0.921
19666SOL    HW270653   1.920   4.214   0.915
19667SOL     OW70654   4.509   4.186   1.917
19667SOL    HW170655   4.453   4.184   1.999
19667SOL    HW270656   4.570   4.266   1.919
19668SOL     OW70657   3.994   1.310   4.420
19668SOL    HW170658   3.956   1.348   4.336
19668SOL    HW270659   3.926   1.315   4.492
19669SOL     OW70660   3.128   5.643   1.139
19669SOL    HW170661   3.208   5.639   1.198
19669SOL    HW270662   3.151   5.607   1.049
19670SOL     OW70663   4.882   9.396   2.315
19670SOL    HW170664   4.819   9.445   2.256
19670SOL    HW270665   4.940   9.461   2.364
19671SOL     OW70666   9.653   3.307   5.677
19671SOL    HW170667   9.643   3.223   5.731
19671SOL    HW270668   9.564   3.349   5.665
19672SOL     OW70669   9.719   0.094   1.590
19672SOL    HW170670   9.687   0.170   1.532
19672SOL    HW270671   9.728   0.126   1.684
19673SOL     OW70672   6.600   7.388   4.828
19673SOL    HW170673   6.541   7.410   4.750
19673SOL    HW270674   6.628   7.473   4.874
19674SOL     OW70675   2.423   2.221   3.607
19674SOL    HW170676   2.348   2.259   3.552
19674SOL    HW270677   2.412   2.122   3.615
19675SOL     OW70678   8.180   2.897   7.604
19675SOL    HW170679   8.195   2.954   7.684
19675SOL    HW270680   8.105   2.833   7.621
19676SOL     OW70681   1.617   7.751   1.890
19676SOL    HW170682   1.627   7.800   1.804
19676SOL    HW270683   1.565   7.667   1.875
19677SOL     OW70684   2.685   0.772   1.241
19677SOL    HW170685   2.701   0.747   1.337
19677SOL    HW270686   2.593   0.742   1.214
19678SOL     OW70687   3.045   5.908   3.954
19678SOL    HW170688   2.997   5.820   3.951
19678SOL    HW270689   3.054   5.944   3.861
19679SOL     OW70690   9.198   6.409   5.726
19679SOL    HW170691   9.144   6.337   5.769
19679SOL    HW270692   9.186   6.406   5.627
19680SOL     OW70693   8.677   0.227   1.143
19680SOL    HW170694   8.686   0.155   1.212
19680SOL    HW270695   8.657   0.186   1.055
19681SOL     OW70696   0.513   2.615   3.992
19681SOL    HW170697   0.522   2.577   3.900
19681SOL    HW270698   0.482   2.543   4.054
19682SOL     OW70699   7.068   8.067   3.873
19682SOL    HW170700   6.997   8.136   3.859
19682SOL    HW270701   7.130   8.066   3.795
19683SOL     OW70702   8.442   0.047   3.426
19683SOL    HW170703   8.359   0.099   3.405
19683SOL    HW270704   8.518   0.110   3.440
19684SOL     OW70705   4.880   1.510   4.876
19684SOL    HW170706   4.947   1.457   4.824
19684SOL    HW270707   4.886   1.485   4.973
19685SOL     OW70708   9.932   0.894   3.582
19685SOL    HW170709   0.007   0.907   3.647
19685SOL    HW270710   9.918   0.796   3.566
19686SOL     OW70711   0.067   0.888   5.630
19686SOL    HW170712   0.019   0.908   5.544
19686SOL    HW270713   0.073   0.971   5.685
19687SOL     OW70714   1.338   5.050   3.540
19687SOL    HW170715   1.410   4.991   3.576
19687SOL    HW270716   1.361   5.145   3.561
19688SOL     OW70717   3.125   6.100   0.144
19688SOL    HW170718   3.150   6.061   0.233
19688SOL    HW270719   3.206   6.109   0.087
19689SOL     OW70720   3.204   5.695   7.894
19689SOL    HW170721   3.130   5.741   7.845
19689SOL    HW270722   3.167   5.625   7.954
19690SOL     OW70723   0.826   3.140   7.896
19690SOL    HW170724   0.823   3.040   7.896
19690SOL    HW270725   0.919   3.171   7.876
19691SOL     OW70726   3.361   6.860   6.315
19691SOL    HW170727   3.322   6.838   6.226
19691SOL    HW270728   3.453   6.820   6.322
19692SOL     OW70729   6.906   6.180   1.980
19692SOL    HW170730   6.982   6.202   1.919
19692SOL    HW270731   6.856   6.263   2.003
19693SOL     OW70732   8.964   3.831   7.080
19693SOL    HW170733   8.915   3.904   7.032
19693SOL    HW270734   8.955   3.746   7.029
19694SOL     OW70735   5.088   9.381   4.739
19694SOL    HW170736   5.151   9.307   4.764
19694SOL    HW270737   5.008   9.378   4.799
19695SOL     OW70738   3.641   6.227   5.163
19695SOL    HW170739   3.672   6.145   5.115
19695SOL    HW270740   3.678   6.308   5.117
19696SOL     OW70741   1.001   3.137   0.798
19696SOL    HW170742   1.003   3.058   0.737
19696SOL    HW270743   0.914   3.140   0.847
19697SOL     OW70744   9.423   2.648   5.828
19697SOL    HW170745   9.485   2.572   5.810
19697SOL    HW270746   9.416   2.662   5.927
19698SOL     OW70747   2.092   2.926   5.102
19698SOL    HW170748   2.159   2.955   5.034
19698SOL    HW270749   2.116   2.965   5.191
19699SOL     OW70750   3.892   9.454   0.588
19699SOL    HW170751   3.865   9.460   0.492
19699SOL    HW270752   3.990   9.431   0.593
19700SOL     OW70753   4.335   8.514   5.416
19700SOL    HW170754   4.273   8.435   5.418
19700SOL    HW270755   4.393   8.508   5.334
19701SOL     OW70756   0.066   6.190   2.860
19701SOL    HW170757   9.982   6.221   2.905
19701SOL    HW270758   0.132   6.265   2.857
19702SOL     OW70759   7.993   5.759   7.712
19702SOL    HW170760   8.054   5.838   7.722
19702SOL    HW270761   8.048   5.675   7.714
19703SOL     OW70762   3.317   3.319   6.967
19703SOL    HW170763   3.307   3.306   6.869
19703SOL    HW270764   3.295   3.414   6.990
19704SOL     OW70765   7.119   5.305   7.415
19704SOL    HW170766   7.178   5.237   7.459
19704SOL    HW270767   7.052   5.258   7.357
19705SOL     OW70768   5.346   1.676   6.469
19705SOL    HW170769   5.293   1.756   6.442
19705SOL    HW270770   5.331   1.657   6.566
19706SOL     OW70771   3.192   8.037   4.614
19706SOL    HW170772   3.222   8.131   4.631
19706SOL    HW270773   3.093   8.036   4.599
19707SOL     OW70774   7.013   3.416   2.569
19707SOL    HW170775   6.943   3.390   2.503
19707SOL    HW270776   7.045   3.508   2.550
19708SOL     OW70777   4.275   4.866   7.290
19708SOL    HW170778   4.210   4.889   7.363
19708SOL    HW270779   4.244   4.784   7.243
19709SOL     OW70780   1.831   0.135   6.576
19709SOL    HW170781   1.753   0.160   6.633
19709SOL    HW270782   1.859   0.041   6.595
19710SOL     OW70783   8.798   8.887   4.863
19710SOL    HW170784   8.876   8.835   4.826
19710SOL    HW270785   8.715   8.834   4.849
19711SOL     OW70786   4.817   0.232   6.901
19711SOL    HW170787   4.811   0.291   6.982
19711SOL    HW270788   4.737   0.245   6.844
19712SOL     OW70789   7.630   0.300   2.602
19712SOL    HW170790   7.635   0.320   2.504
19712SOL    HW270791   7.535   0.306   2.632
19713SOL     OW70792   9.223   4.714   0.705
19713SOL    HW170793   9.188   4.773   0.631
19713SOL    HW270794   9.213   4.618   0.678
19714SOL     OW70795   6.681   4.635   2.798
19714SOL    HW170796   6.672   4.537   2.815
19714SOL    HW270797   6.735   4.677   2.872
19715SOL     OW70798   0.061   4.643   4.116
19715SOL    HW170799   0.126   4.614   4.046
19715SOL    HW270800   9.968   4.618   4.088
19716SOL     OW70801   1.743   0.714   6.307
19716SOL    HW170802   1.746   0.645   6.380
19716SOL    HW270803   1.650   0.720   6.271
19717SOL     OW70804   0.096   1.867   2.526
19717SOL    HW170805   0.192   1.896   2.520
19717SOL    HW270806   0.056   1.902   2.611
19718SOL     OW70807   1.519   1.721   2.009
19718SOL    HW170808   1.561   1.802   1.967
19718SOL    HW270809   1.508   1.649   1.940
19719SOL     OW70810   8.029   8.553   1.143
19719SOL    HW170811   8.096   8.627   1.143
19719SOL    HW270812   7.937   8.592   1.149
19720SOL     OW70813   2.349   1.839   4.782
19720SOL    HW170814   2.370   1.936   4.768
19720SOL    HW270815   2.318   1.799   4.696
19721SOL     OW70816   6.330   1.144   1.289
19721SOL    HW170817   6.340   1.114   1.383
19721SOL    HW270818   6.417   1.134   1.241
19722SOL     OW70819   2.463   2.517   0.539
19722SOL    HW170820   2.368   2.549   0.537
19722SOL    HW270821   2.524   2.597   0.537
19723SOL     OW70822   4.831   0.834   1.115
19723SOL    HW170823   4.887   0.917   1.108
19723SOL    HW270824   4.847   0.777   1.035
19724SOL     OW70825   0.856   9.587   1.655
19724SOL    HW170826   0.907   9.532   1.720
19724SOL    HW270827   0.854   9.682   1.686
19725SOL     OW70828   1.507   8.685   5.199
19725SOL    HW170829   1.538   8.591   5.188
19725SOL    HW270830   1.409   8.690   5.178
19726SOL     OW70831   9.133   8.461   6.353
19726SOL    HW170832   9.034   8.471   6.357
19726SOL    HW270833   9.175   8.551   6.348
19727SOL     OW70834   8.535   0.334   6.230
19727SOL    HW170835   8.503   0.327   6.135
19727SOL    HW270836   8.531   0.244   6.273
19728SOL     OW70837   1.999   3.709   2.763
19728SOL    HW170838   2.004   3.783   2.830
19728SOL    HW270839   2.000   3.747   2.671
19729SOL     OW70840   9.416   9.613   4.272
19729SOL    HW170841   9.502   9.645   4.311
19729SOL    HW270842   9.411   9.639   4.175
19730SOL     OW70843   7.278   2.460   2.882
19730SOL    HW170844   7.282   2.441   2.981
19730SOL    HW270845   7.269   2.558   2.868
19731SOL     OW70846   8.244   1.012   4.541
19731SOL    HW170847   8.146   1.029   4.551
19731SOL    HW270848   8.291   1.098   4.518
19732SOL     OW70849   3.498   0.125   2.752
19732SOL    HW170850   3.440   0.073   2.689
19732SOL    HW270851   3.516   0.071   2.834
19733SOL     OW70852   1.644   9.666   5.035
19733SOL    HW170853   1.648   9.583   4.979
19733SOL    HW270854   1.722   9.667   5.098
19734SOL     OW70855   2.806   2.601   0.279
19734SOL    HW170856   2.721   2.565   0.240
19734SOL    HW270857   2.844   2.535   0.344
19735SOL     OW70858   2.776   9.321   6.075
19735SOL    HW170859   2.749   9.226   6.062
19735SOL    HW270860   2.873   9.332   6.051
19736SOL     OW70861   3.236   1.019   2.046
19736SOL    HW170862   3.334   1.021   2.062
19736SOL    HW270863   3.188   1.067   2.119
19737SOL     OW70864   9.784   7.971   3.843
19737SOL    HW170865   9.870   7.985   3.891
19737SOL    HW270866   9.724   8.050   3.858
19738SOL     OW70867   7.839   3.058   4.706
19738SOL    HW170868   7.931   3.098   4.704
19738SOL    HW270869   7.777   3.116   4.653
19739SOL     OW70870   2.182   5.165   4.082
19739SOL    HW170871   2.153   5.201   3.993
19739SOL    HW270872   2.278   5.188   4.097
19740SOL     OW70873   0.158   9.907   3.017
19740SOL    HW170874   0.066   9.921   3.052
19740SOL    HW270875   0.212   9.856   3.084
19741SOL     OW70876   3.468   7.770   6.546
19741SOL    HW170877   3.465   7.708   6.468
19741SOL    HW270878   3.393   7.835   6.541
19742SOL     OW70879   8.141   5.383   3.002
19742SOL    HW170880   8.182   5.323   2.933
19742SOL    HW270881   8.131   5.475   2.964
19743SOL     OW70882   8.907   8.749   6.191
19743SOL    HW170883   8.839   8.759   6.119
19743SOL    HW270884   8.999   8.755   6.151
19744SOL     OW70885   1.305   0.488   7.270
19744SOL    HW170886   1.394   0.462   7.308
19744SOL    HW270887   1.316   0.570   7.213
19745SOL     OW70888   8.916   1.095   1.646
19745SOL    HW170889   8.926   1.041   1.730
19745SOL    HW270890   8.886   1.187   1.669
19746SOL     OW70891   0.291   8.295   6.857
19746SOL    HW170892   0.241   8.208   6.856
19746SOL    HW270893   0.270   8.346   6.774
19747SOL     OW70894   7.647   8.702   7.716
19747SOL    HW170895   7.747   8.699   7.727
19747SOL    HW270896   7.611   8.784   7.759
19748SOL     OW70897   8.033   9.995   2.859
19748SOL    HW170898   7.938   0.023   2.871
19748SOL    HW270899   8.083   0.068   2.812
19749SOL     OW70900   2.128   2.514   5.596
19749SOL    HW170901   2.064   2.569   5.543
19749SOL    HW270902   2.218   2.557   5.594
19750SOL     OW70903   8.620   3.971   5.664
19750SOL    HW170904   8.528   3.932   5.663
19750SOL    HW270905   8.677   3.922   5.730
19751SOL     OW70906   5.795   3.866   0.931
19751SOL    HW170907   5.713   3.811   0.946
19751SOL    HW270908   5.876   3.815   0.959
19752SOL     OW70909   9.475   0.147   5.584
19752SOL    HW170910   9.478   0.135   5.485
19752SOL    HW270911   9.404   0.214   5.607
19753SOL     OW70912   8.264   4.059   1.071
19753SOL    HW170913   8.234   4.141   1.120
19753SOL    HW270914   8.338   4.016   1.122
19754SOL     OW70915   1.770   3.667   7.862
19754SOL    HW170916   1.779   3.698   7.768
19754SOL    HW270917   1.731   3.740   7.918
19755SOL     OW70918   2.184   1.044   0.376
19755SOL    HW170919   2.103   1.084   0.420
19755SOL    HW270920   2.252   1.116   0.361
19756SOL     OW70921   8.361   6.753   0.302
19756SOL    HW170922   8.374   6.808   0.219
19756SOL    HW270923   8.336   6.660   0.277
19757SOL     OW70924   8.446   8.385   5.681
19757SOL    HW170925   8.511   8.317   5.716
19757SOL    HW270926   8.442   8.463   5.744
19758SOL     OW70927   3.059   6.996   0.701
19758SOL    HW170928   3.075   6.899   0.722
19758SOL    HW270929   3.120   7.053   0.756
19759SOL     OW70930   1.850   0.431   0.855
19759SOL    HW170931   1.884   0.423   0.949
19759SOL    HW270932   1.822   0.525   0.838
19760SOL     OW70933   7.380   5.971   1.431
19760SOL    HW170934   7.363   6.041   1.500
19760SOL    HW270935   7.312   5.898   1.440
19761SOL     OW70936   2.774   4.731   6.416
19761SOL    HW170937   2.708   4.805   6.429
19761SOL    HW270938   2.782   4.711   6.318
19762SOL     OW70939   4.343   2.969   0.880
19762SOL    HW170940   4.323   3.061   0.913
19762SOL    HW270941   4.428   2.970   0.826
19763SOL     OW70942   9.218   7.666   4.410
19763SOL    HW170943   9.202   7.762   4.434
19763SOL    HW270944   9.312   7.641   4.433
19764SOL     OW70945   7.561   0.223   1.664
19764SOL    HW170946   7.576   0.126   1.679
19764SOL    HW270947   7.502   0.236   1.585
19765SOL     OW70948   4.358   6.185   4.072
19765SOL    HW170949   4.391   6.132   3.994
19765SOL    HW270950   4.297   6.129   4.128
19766SOL     OW70951   8.455   5.421   6.801
19766SOL    HW170952   8.496   5.470   6.724
19766SOL    HW270953   8.359   5.448   6.811
19767SOL     OW70954   4.877   9.029   6.850
19767SOL    HW170955   4.798   8.970   6.831
19767SOL    HW270956   4.949   8.975   6.893
19768SOL     OW70957   5.282   1.964   7.017
19768SOL    HW170958   5.226   1.960   6.935
19768SOL    HW270959   5.298   2.059   7.043
19769SOL     OW70960   1.496   1.952   6.618
19769SOL    HW170961   1.411   1.948   6.567
19769SOL    HW270962   1.572   1.925   6.559
19770SOL     OW70963   2.912   3.023   4.646
19770SOL    HW170964   2.888   3.090   4.576
19770SOL    HW270965   3.010   3.005   4.643
19771SOL     OW70966   2.837   8.588   4.650
19771SOL    HW170967   2.866   8.609   4.557
19771SOL    HW270968   2.738   8.593   4.656
19772SOL     OW70969   6.280   6.134   0.964
19772SOL    HW170970   6.339   6.164   0.889
19772SOL    HW270971   6.304   6.040   0.989
19773SOL     OW70972   6.714   7.138   6.054
19773SOL    HW170973   6.661   7.199   6.112
19773SOL    HW270974   6.798   7.112   6.102
19774SOL     OW70975   2.935   0.394   2.406
19774SOL    HW170976   2.967   0.488   2.392
19774SOL    HW270977   2.835   0.393   2.409
19775SOL     OW70978   9.157   4.717   4.225
19775SOL    HW170979   9.237   4.668   4.189
19775SOL    HW270980   9.185   4.773   4.303
19776SOL     OW70981   9.353   5.041   6.186
19776SOL    HW170982   9.372   5.078   6.276
19776SOL    HW270983   9.254   5.038   6.171
19777SOL     OW70984   2.659   5.682   5.108
19777SOL    HW170985   2.690   5.613   5.042
19777SOL    HW270986   2.731   5.751   5.120
19778SOL     OW70987   7.070   6.960   4.613
19778SOL    HW170988   6.980   7.005   4.616
19778SOL    HW270989   7.068   6.880   4.674
19779SOL     OW70990   4.926   5.888   7.789
19779SOL    HW170991   4.964   5.811   7.738
19779SOL    HW270992   4.913   5.966   7.728
19780SOL     OW70993   2.101   2.353   5.815
19780SOL    HW170994   2.109   2.400   5.728
19780SOL    HW270995   2.053   2.411   5.881
19781SOL     OW70996   3.491   4.194   5.512
19781SOL    HW170997   3.486   4.102   5.550
19781SOL    HW270998   3.468   4.261   5.583
19782SOL     OW70999   5.662   4.083   0.525
19782SOL    HW171000   5.701   4.081   0.617
19782SOL    HW271001   5.703   4.010   0.469
19783SOL     OW71002   0.625   2.064   3.939
19783SOL    HW171003   0.633   2.098   4.033
19783SOL    HW271004   0.676   2.124   3.877
19784SOL     OW71005   4.598   3.994   5.377
19784SOL    HW171006   4.541   3.922   5.335
19784SOL    HW271007   4.543   4.046   5.442
19785SOL     OW71008   6.584   1.079   5.261
19785SOL    HW171009   6.659   1.098   5.198
19785SOL    HW271010   6.575   1.154   5.326
19786SOL     OW71011   9.574   3.794   0.681
19786SOL    HW171012   9.519   3.718   0.645
19786SOL    HW271013   9.571   3.792   0.780
19787SOL     OW71014   7.858   4.453   1.786
19787SOL    HW171015   7.828   4.495   1.871
19787SOL    HW271016   7.954   4.426   1.795
19788SOL     OW71017   9.098   9.564   1.798
19788SOL    HW171018   9.069   9.554   1.894
19788SOL    HW271019   9.017   9.563   1.739
19789SOL     OW71020   5.023   9.416   1.297
19789SOL    HW171021   5.086   9.491   1.319
19789SOL    HW271022   5.065   9.357   1.228
19790SOL     OW71023   2.623   8.631   0.785
19790SOL    HW171024   2.661   8.545   0.751
19790SOL    HW271025   2.642   8.704   0.719
19791SOL     OW71026   4.379   3.217   0.155
19791SOL    HW171027   4.341   3.278   0.225
19791SOL    HW271028   4.334   3.235   0.068
19792SOL     OW71029   5.459   0.225   7.837
19792SOL    HW171030   5.467   0.134   7.795
19792SOL    HW271031   5.480   0.219   7.935
19793SOL     OW71032   8.132   3.707   5.225
19793SOL    HW171033   8.197   3.769   5.269
19793SOL    HW271034   8.153   3.613   5.253
19794SOL     OW71035   2.926   7.297   5.760
19794SOL    HW171036   2.831   7.270   5.776
19794SOL    HW271037   2.956   7.261   5.672
19795SOL     OW71038   4.070   1.960   1.153
19795SOL    HW171039   4.036   2.054   1.143
19795SOL    HW271040   4.107   1.929   1.066
19796SOL     OW71041   8.542   6.585   6.546
19796SOL    HW171042   8.610   6.546   6.609
19796SOL    HW271043   8.506   6.669   6.585
19797SOL     OW71044   4.524   4.797   7.405
19797SOL    HW171045   4.447   4.840   7.356
19797SOL    HW271046   4.603   4.791   7.343
19798SOL     OW71047   1.192   6.821   7.092
19798SOL    HW171048   1.210   6.879   7.172
19798SOL    HW271049   1.093   6.818   7.074
19799SOL     OW71050   3.749   1.330   1.150
19799SOL    HW171051   3.666   1.316   1.097
19799SOL    HW271052   3.744   1.279   1.236
19800SOL     OW71053   4.110   7.669   3.085
19800SOL    HW171054   4.111   7.689   2.987
19800SOL    HW271055   4.121   7.754   3.136
19801SOL     OW71056   0.596   7.049   6.587
19801SOL    HW171057   0.592   6.995   6.504
19801SOL    HW271058   0.507   7.048   6.633
19802SOL     OW71059   1.827   8.857   7.251
19802SOL    HW171060   1.916   8.897   7.272
19802SOL    HW271061   1.839   8.774   7.197
19803SOL     OW71062   7.171   8.344   3.555
19803SOL    HW171063   7.090   8.381   3.600
19803SOL    HW271064   7.145   8.301   3.469
19804SOL     OW71065   6.254   8.148   3.729
19804SOL    HW171066   6.245   8.072   3.794
19804SOL    HW271067   6.237   8.234   3.776
19805SOL     OW71068   3.000   5.506   2.428
19805SOL    HW171069   3.040   5.450   2.356
19805SOL    HW271070   2.900   5.499   2.424
19806SOL     OW71071   8.071   0.643   3.382
19806SOL    HW171072   8.020   0.660   3.466
19806SOL    HW271073   8.070   0.724   3.324
19807SOL     OW71074   1.424   8.454   4.058
19807SOL    HW171075   1.506   8.416   4.015
19807SOL    HW271076   1.440   8.466   4.156
19808SOL     OW71077   4.751   3.552   7.655
19808SOL    HW171078   4.835   3.546   7.600
19808SOL    HW271079   4.763   3.500   7.739
19809SOL     OW71080   7.434   2.253   4.728
19809SOL    HW171081   7.379   2.237   4.646
19809SOL    HW271082   7.474   2.166   4.759
19810SOL     OW71083   9.074   1.097   6.505
19810SOL    HW171084   9.079   1.148   6.419
19810SOL    HW271085   8.978   1.092   6.535
19811SOL     OW71086   6.119   4.466   1.295
19811SOL    HW171087   6.057   4.390   1.277
19811SOL    HW271088   6.069   4.541   1.337
19812SOL     OW71089   7.835   1.613   2.341
19812SOL    HW171090   7.895   1.578   2.269
19812SOL    HW271091   7.740   1.599   2.315
19813SOL     OW71092   5.347   9.199   1.800
19813SOL    HW171093   5.306   9.172   1.887
19813SOL    HW271094   5.351   9.299   1.794
19814SOL     OW71095   8.802   6.917   3.625
19814SOL    HW171096   8.852   6.835   3.652
19814SOL    HW271097   8.846   6.957   3.545
19815SOL     OW71098   4.460   5.433   3.028
19815SOL    HW171099   4.422   5.476   2.947
19815SOL    HW271100   4.405   5.353   3.052
19816SOL     OW71101   8.571   5.630   4.981
19816SOL    HW171102   8.613   5.713   4.945
19816SOL    HW271103   8.622   5.550   4.950
19817SOL     OW71104   6.648   5.470   1.815
19817SOL    HW171105   6.560   5.434   1.845
19817SOL    HW271106   6.682   5.536   1.882
19818SOL     OW71107   9.848   8.769   2.643
19818SOL    HW171108   9.815   8.841   2.704
19818SOL    HW271109   9.903   8.811   2.570
19819SOL     OW71110   1.671   0.405   6.058
19819SOL    HW171111   1.747   0.419   6.121
19819SOL    HW271112   1.591   0.372   6.108
19820SOL     OW71113   9.869   6.503   2.585
19820SOL    HW171114   9.833   6.424   2.635
19820SOL    HW271115   9.942   6.545   2.639
19821SOL     OW71116   1.926   0.249   2.209
19821SOL    HW171117   1.942   0.157   2.244
19821SOL    HW271118   1.908   0.311   2.286
19822SOL     OW71119   5.320   8.218   3.768
19822SOL    HW171120   5.280   8.292   3.823
19822SOL    HW271121   5.287   8.225   3.674
19823SOL     OW71122   7.358   7.693   3.597
19823SOL    HW171123   7.414   7.629   3.649
19823SOL    HW271124   7.416   7.763   3.556
19824SOL     OW71125   3.226   5.497   5.967
19824SOL    HW171126   3.245   5.589   6.003
19824SOL    HW271127   3.186   5.505   5.876
19825SOL     OW71128   7.720   6.552   5.889
19825SOL    HW171129   7.765   6.587   5.970
19825SOL    HW271130   7.748   6.457   5.873
19826SOL     OW71131   8.728   8.935   1.957
19826SOL    HW171132   8.727   9.035   1.945
19826SOL    HW271133   8.792   8.895   1.891
19827SOL     OW71134   9.333   8.472   0.571
19827SOL    HW171135   9.350   8.383   0.611
19827SOL    HW271136   9.348   8.467   0.472
19828SOL     OW71137   3.503   7.837   1.681
19828SOL    HW171138   3.526   7.774   1.607
19828SOL    HW271139   3.465   7.922   1.642
19829SOL     OW71140   3.400   6.210   5.611
19829SOL    HW171141   3.440   6.217   5.702
19829SOL    HW271142   3.470   6.228   5.542
19830SOL     OW71143   9.280   4.367   1.836
19830SOL    HW171144   9.180   4.365   1.826
19830SOL    HW271145   9.322   4.358   1.746
19831SOL     OW71146   1.333   8.074   3.738
19831SOL    HW171147   1.313   8.172   3.730
19831SOL    HW271148   1.430   8.058   3.721
19832SOL     OW71149   7.292   9.180   6.778
19832SOL    HW171150   7.284   9.112   6.851
19832SOL    HW271151   7.203   9.224   6.764
19833SOL     OW71152   8.040   6.347   3.498
19833SOL    HW171153   8.047   6.398   3.412
19833SOL    HW271154   8.130   6.311   3.522
19834SOL     OW71155   7.601   8.064   1.000
19834SOL    HW171156   7.552   8.149   0.982
19834SOL    HW271157   7.583   8.034   1.094
19835SOL     OW71158   9.029   6.940   5.631
19835SOL    HW171159   9.005   6.904   5.721
19835SOL    HW271160   8.947   6.945   5.574
19836SOL     OW71161   9.765   9.719   3.009
19836SOL    HW171162   9.848   9.666   3.027
19836SOL    HW271163   9.685   9.660   3.022
19837SOL     OW71164   8.580   8.752   1.442
19837SOL    HW171165   8.528   8.735   1.526
19837SOL    HW271166   8.656   8.687   1.436
19838SOL     OW71167   6.933   1.271   3.990
19838SOL    HW171168   7.027   1.254   3.961
19838SOL    HW271169   6.873   1.201   3.952
19839SOL     OW71170   0.330   8.012   3.336
19839SOL    HW171171   0.388   8.093   3.346
19839SOL    HW271172   0.245   8.026   3.387
19840SOL     OW71173   0.979   2.942   5.295
19840SOL    HW171174   0.922   3.024   5.292
19840SOL    HW271175   1.066   2.960   5.248
19841SOL     OW71176   8.671   4.463   0.497
19841SOL    HW171177   8.614   4.460   0.579
19841SOL    HW271178   8.627   4.412   0.423
19842SOL     OW71179   6.741   7.798   4.757
19842SOL    HW171180   6.706   7.891   4.770
19842SOL    HW271181   6.829   7.802   4.709
19843SOL     OW71182   0.514   9.440   2.241
19843SOL    HW171183   0.554   9.518   2.193
19843SOL    HW271184   0.549   9.438   2.335
19844SOL     OW71185   9.926   1.821   0.891
19844SOL    HW171186   9.932   1.906   0.838
19844SOL    HW271187   9.855   1.763   0.853
19845SOL     OW71188   5.499   1.324   4.921
19845SOL    HW171189   5.415   1.270   4.926
19845SOL    HW271190   5.576   1.269   4.952
19846SOL     OW71191   6.552   4.606   1.730
19846SOL    HW171192   6.593   4.625   1.819
19846SOL    HW271193   6.613   4.546   1.678
19847SOL     OW71194   1.208   0.682   5.472
19847SOL    HW171195   1.306   0.673   5.490
19847SOL    HW271196   1.171   0.758   5.526
19848SOL     OW71197   0.475   4.846   7.674
19848SOL    HW171198   0.487   4.925   7.734
19848SOL    HW271199   0.516   4.765   7.717
19849SOL     OW71200   5.885   9.377   7.405
19849SOL    HW171201   5.922   9.290   7.374
19849SOL    HW271202   5.956   9.448   7.398
19850SOL     OW71203   1.259   4.615   0.625
19850SOL    HW171204   1.258   4.715   0.625
19850SOL    HW271205   1.165   4.581   0.626
19851SOL     OW71206   5.217   1.118   5.812
19851SOL    HW171207   5.257   1.116   5.720
19851SOL    HW271208   5.124   1.083   5.809
19852SOL     OW71209   7.236   8.316   4.670
19852SOL    HW171210   7.277   8.400   4.633
19852SOL    HW271211   7.211   8.331   4.766
19853SOL     OW71212   9.569   7.035   0.042
19853SOL    HW171213   9.634   7.016   0.115
19853SOL    HW271214   9.497   6.966   0.042
19854SOL     OW71215   2.796   0.586   6.019
19854SOL    HW171216   2.715   0.644   6.025
19854SOL    HW271217   2.849   0.610   5.938
19855SOL     OW71218   8.173   5.191   0.540
19855SOL    HW171219   8.269   5.162   0.535
19855SOL    HW271220   8.114   5.113   0.519
19856SOL     OW71221   6.375   8.484   6.749
19856SOL    HW171222   6.453   8.460   6.691
19856SOL    HW271223   6.403   8.553   6.816
19857SOL     OW71224   5.828   5.802   1.762
19857SOL    HW171225   5.790   5.712   1.744
19857SOL    HW271226   5.757   5.862   1.800
19858SOL     OW71227   9.155   5.729   6.464
19858SOL    HW171228   9.171   5.814   6.413
19858SOL    HW271229   9.227   5.719   6.534
19859SOL     OW71230   6.836   6.462   5.159
19859SOL    HW171231   6.880   6.512   5.234
19859SOL    HW271232   6.758   6.411   5.194
19860SOL     OW71233   3.020   3.384   6.138
19860SOL    HW171234   3.068   3.324   6.074
19860SOL    HW271235   3.025   3.345   6.230
19861SOL     OW71236   2.337   1.056   7.376
19861SOL    HW171237   2.415   1.050   7.437
19861SOL    HW271238   2.344   1.139   7.320
19862SOL     OW71239   1.675   9.030   4.650
19862SOL    HW171240   1.760   9.066   4.613
19862SOL    HW271241   1.664   8.935   4.623
19863SOL     OW71242   5.562   5.328   7.842
19863SOL    HW171243   5.608   5.371   7.765
19863SOL    HW271244   5.544   5.232   7.821
19864SOL     OW71245   8.050   0.160   6.112
19864SOL    HW171246   8.139   0.113   6.113
19864SOL    HW271247   8.042   0.217   6.193
19865SOL     OW71248   7.135   8.005   6.386
19865SOL    HW171249   7.035   8.012   6.387
19865SOL    HW271250   7.168   8.007   6.292
19866SOL     OW71251   0.508   2.487   1.297
19866SOL    HW171252   0.529   2.419   1.367
19866SOL    HW271253   0.496   2.441   1.209
19867SOL     OW71254   2.777   0.604   5.273
19867SOL    HW171255   2.819   0.602   5.364
19867SOL    HW271256   2.681   0.577   5.280
19868SOL     OW71257   3.826   2.798   5.849
19868SOL    HW171258   3.804   2.723   5.911
19868SOL    HW271259   3.896   2.768   5.784
19869SOL     OW71260   3.301   1.925   3.529
19869SOL    HW171261   3.349   1.845   3.494
19869SOL    HW271262   3.345   1.956   3.613
19870SOL     OW71263   9.081   2.700   2.875
19870SOL    HW171264   9.117   2.608   2.865
19870SOL    HW271265   9.105   2.736   2.965
19871SOL     OW71266   2.655   9.622   1.253
19871SOL    HW171267   2.706   9.645   1.336
19871SOL    HW271268   2.580   9.560   1.276
19872SOL     OW71269   9.365   0.890   4.121
19872SOL    HW171270   9.397   0.811   4.173
19872SOL    HW271271   9.304   0.859   4.047
19873SOL     OW71272   5.588   0.628   6.691
19873SOL    HW171273   5.566   0.565   6.765
19873SOL    HW271274   5.675   0.601   6.650
19874SOL     OW71275   5.638   8.891   4.068
19874SOL    HW171276   5.542   8.868   4.081
19874SOL    HW271277   5.674   8.934   4.151
19875SOL     OW71278   5.495   8.979   2.439
19875SOL    HW171279   5.449   8.901   2.397
19875SOL    HW271280   5.590   8.954   2.461
19876SOL     OW71281   4.008   0.012   6.791
19876SOL    HW171282   3.946   0.075   6.744
19876SOL    HW271283   4.102   0.035   6.767
19877SOL     OW71284   1.703   6.530   0.125
19877SOL    HW171285   1.766   6.600   0.091
19877SOL    HW271286   1.751   6.442   0.129
19878SOL     OW71287   1.443   1.089   2.865
19878SOL    HW171288   1.443   1.040   2.777
19878SOL    HW271289   1.393   1.034   2.933
19879SOL     OW71290   4.077   7.510   2.695
19879SOL    HW171291   4.149   7.462   2.745
19879SOL    HW271292   4.004   7.445   2.672
19880SOL     OW71293   0.813   7.310   0.932
19880SOL    HW171294   0.911   7.325   0.923
19880SOL    HW271295   0.796   7.242   1.004
19881SOL     OW71296   3.688   1.498   3.824
19881SOL    HW171297   3.725   1.588   3.846
19881SOL    HW271298   3.588   1.503   3.821
19882SOL     OW71299   9.158   3.831   1.030
19882SOL    HW171300   9.067   3.791   1.022
19882SOL    HW271301   9.207   3.820   0.944
19883SOL     OW71302   9.712   1.276   1.777
19883SOL    HW171303   9.789   1.305   1.719
19883SOL    HW271304   9.748   1.244   1.865
19884SOL     OW71305   6.257   7.472   6.000
19884SOL    HW171306   6.333   7.452   5.938
19884SOL    HW271307   6.170   7.451   5.954
19885SOL     OW71308   8.043   1.574   5.376
19885SOL    HW171309   7.998   1.663   5.383
19885SOL    HW271310   8.135   1.586   5.339
19886SOL     OW71311   8.796   0.854   5.771
19886SOL    HW171312   8.814   0.763   5.807
19886SOL    HW271313   8.744   0.847   5.686
19887SOL     OW71314   1.128   1.801   6.306
19887SOL    HW171315   1.052   1.736   6.307
19887SOL    HW271316   1.191   1.777   6.233
19888SOL     OW71317   0.015   0.778   0.314
19888SOL    HW171318   0.112   0.753   0.322
19888SOL    HW271319   9.992   0.792   0.218
19889SOL     OW71320   3.858   0.591   5.673
19889SOL    HW171321   3.868   0.575   5.771
19889SOL    HW271322   3.851   0.504   5.625
19890SOL     OW71323   8.766   2.858   6.441
19890SOL    HW171324   8.723   2.942   6.408
19890SOL    HW271325   8.702   2.808   6.498
19891SOL     OW71326   9.648   7.150   6.419
19891SOL    HW171327   9.618   7.055   6.435
19891SOL    HW271328   9.713   7.177   6.490
19892SOL     OW71329   2.986   3.457   0.370
19892SOL    HW171330   2.926   3.534   0.350
19892SOL    HW271331   3.023   3.421   0.284
19893SOL     OW71332   0.094   8.062   3.477
19893SOL    HW171333   0.114   8.079   3.574
19893SOL    HW271334   0.009   8.010   3.469
19894SOL     OW71335   3.880   6.037   0.159
19894SOL    HW171336   3.892   6.137   0.155
19894SOL    HW271337   3.881   6.007   0.254
19895SOL     OW71338   3.486   0.283   0.328
19895SOL    HW171339   3.441   0.231   0.255
19895SOL    HW271340   3.563   0.230   0.363
19896SOL     OW71341   9.193   9.466   7.786
19896SOL    HW171342   9.178   9.440   7.691
19896SOL    HW271343   9.108   9.498   7.827
19897SOL     OW71344   7.488   6.944   6.825
19897SOL    HW171345   7.508   7.002   6.745
19897SOL    HW271346   7.449   6.857   6.794
19898SOL     OW71347   9.894   1.525   0.738
19898SOL    HW171348   9.823   1.596   0.738
19898SOL    HW271349   9.932   1.516   0.646
19899SOL     OW71350   8.702   2.456   2.035
19899SOL    HW171351   8.628   2.468   1.969
19899SOL    HW271352   8.726   2.359   2.041
19900SOL     OW71353   2.208   5.350   4.641
19900SOL    HW171354   2.171   5.364   4.733
19900SOL    HW271355   2.297   5.305   4.647
19901SOL     OW71356   7.984   2.919   0.565
19901SOL    HW171357   7.996   2.942   0.469
19901SOL    HW271358   7.973   2.820   0.575
19902SOL     OW71359   5.811   1.451   2.010
19902SOL    HW171360   5.906   1.439   1.980
19902SOL    HW271361   5.768   1.362   2.022
19903SOL     OW71362   5.591   8.090   4.312
19903SOL    HW171363   5.634   8.015   4.262
19903SOL    HW271364   5.555   8.056   4.399
19904SOL     OW71365   4.461   7.404   3.485
19904SOL    HW171366   4.433   7.308   3.482
19904SOL    HW271367   4.481   7.435   3.393
19905SOL     OW71368   6.479   3.517   0.975
19905SOL    HW171369   6.509   3.588   0.910
19905SOL    HW271370   6.382   3.498   0.960
19906SOL     OW71371   0.429   6.238   3.360
19906SOL    HW171372   0.494   6.195   3.297
19906SOL    HW271373   0.413   6.177   3.438
19907SOL     OW71374   3.486   6.922   4.550
19907SOL    HW171375   3.445   7.012   4.564
19907SOL    HW271376   3.446   6.879   4.469
19908SOL     OW71377   3.343   6.630   5.711
19908SOL    HW171378   3.353   6.604   5.615
19908SOL    HW271379   3.408   6.703   5.733
19909SOL     OW71380   7.844   9.837   6.701
19909SOL    HW171381   7.840   9.917   6.641
19909SOL    HW271382   7.751   9.809   6.726
19910SOL     OW71383   7.114   2.118   1.699
19910SOL    HW171384   7.142   2.210   1.671
19910SOL    HW271385   7.016   2.118   1.720
19911SOL     OW71386   8.845   9.008   3.672
19911SOL    HW171387   8.755   9.023   3.631
19911SOL    HW271388   8.872   9.090   3.723
19912SOL     OW71389   6.770   0.858   2.142
19912SOL    HW171390   6.787   0.846   2.239
19912SOL    HW271391   6.804   0.778   2.092
19913SOL     OW71392   1.737   9.999   3.288
19913SOL    HW171393   1.653   9.970   3.334
19913SOL    HW271394   1.762   9.933   3.218
19914SOL     OW71395   7.541   8.274   3.296
19914SOL    HW171396   7.521   8.335   3.373
19914SOL    HW271397   7.635   8.291   3.264
19915SOL     OW71398   2.372   3.705   3.059
19915SOL    HW171399   2.284   3.659   3.056
19915SOL    HW271400   2.430   3.671   2.984
19916SOL     OW71401   2.282   4.092   2.500
19916SOL    HW171402   2.209   4.078   2.567
19916SOL    HW271403   2.249   4.150   2.426
19917SOL     OW71404   5.258   7.888   2.243
19917SOL    HW171405   5.248   7.950   2.321
19917SOL    HW271406   5.283   7.941   2.162
19918SOL     OW71407   8.303   4.412   6.263
19918SOL    HW171408   8.285   4.508   6.240
19918SOL    HW271409   8.397   4.389   6.237
19919SOL     OW71410   6.391   7.451   3.132
19919SOL    HW171411   6.457   7.442   3.057
19919SOL    HW271412   6.437   7.435   3.219
19920SOL     OW71413   3.073   8.123   7.400
19920SOL    HW171414   3.137   8.046   7.406
19920SOL    HW271415   3.112   8.195   7.342
19921SOL     OW71416   7.021   3.020   1.444
19921SOL    HW171417   6.988   2.934   1.483
19921SOL    HW271418   7.095   3.002   1.379
19922SOL     OW71419   1.109   6.955   1.808
19922SOL    HW171420   1.166   6.975   1.728
19922SOL    HW271421   1.103   6.857   1.822
19923SOL     OW71422   2.895   9.489   6.735
19923SOL    HW171423   2.973   9.548   6.754
19923SOL    HW271424   2.894   9.465   6.638
19924SOL     OW71425   3.516   9.695   7.559
19924SOL    HW171426   3.514   9.694   7.658
19924SOL    HW271427   3.427   9.722   7.523
19925SOL     OW71428   4.575   4.458   1.234
19925SOL    HW171429   4.492   4.437   1.284
19925SOL    HW271430   4.654   4.426   1.286
19926SOL     OW71431   3.342   0.382   2.051
19926SOL    HW171432   3.407   0.337   1.989
19926SOL    HW271433   3.249   0.359   2.024
19927SOL     OW71434   8.482   4.753   7.207
19927SOL    HW171435   8.496   4.717   7.114
19927SOL    HW271436   8.438   4.684   7.264
19928SOL     OW71437   1.621   2.408   1.908
19928SOL    HW171438   1.660   2.398   2.000
19928SOL    HW271439   1.577   2.497   1.900
19929SOL     OW71440   5.947   3.510   2.190
19929SOL    HW171441   6.000   3.574   2.133
19929SOL    HW271442   5.942   3.421   2.145
19930SOL     OW71443   6.061   4.991   2.182
19930SOL    HW171444   6.005   4.957   2.258
19930SOL    HW271445   6.066   4.921   2.111
19931SOL     OW71446   5.350   9.483   1.810
19931SOL    HW171447   5.298   9.501   1.894
19931SOL    HW271448   5.312   9.537   1.735
19932SOL     OW71449   3.750   6.606   1.398
19932SOL    HW171450   3.831   6.657   1.368
19932SOL    HW271451   3.768   6.567   1.489
19933SOL     OW71452   1.714   6.170   5.574
19933SOL    HW171453   1.770   6.089   5.590
19933SOL    HW271454   1.769   6.252   5.588
19934SOL     OW71455   8.148   2.849   2.577
19934SOL    HW171456   8.138   2.774   2.512
19934SOL    HW271457   8.138   2.936   2.529
19935SOL     OW71458   3.854   6.699   3.835
19935SOL    HW171459   3.783   6.651   3.888
19935SOL    HW271460   3.833   6.692   3.738
19936SOL     OW71461   1.648   6.023   3.364
19936SOL    HW171462   1.635   6.075   3.279
19936SOL    HW271463   1.617   6.078   3.442
19937SOL     OW71464   7.601   7.533   2.430
19937SOL    HW171465   7.554   7.557   2.515
19937SOL    HW271466   7.693   7.573   2.430
19938SOL     OW71467   2.145   6.946   6.099
19938SOL    HW171468   2.149   7.031   6.151
19938SOL    HW271469   2.212   6.881   6.135
19939SOL     OW71470   0.052   9.100   7.091
19939SOL    HW171471   0.091   9.008   7.086
19939SOL    HW271472   0.042   9.136   6.998
19940SOL     OW71473   8.504   6.975   2.352
19940SOL    HW171474   8.466   6.885   2.374
19940SOL    HW271475   8.593   6.964   2.309
19941SOL     OW71476   1.361   8.988   7.811
19941SOL    HW171477   1.371   9.088   7.804
19941SOL    HW271478   1.394   8.946   7.727
19942SOL     OW71479   1.198   5.424   1.047
19942SOL    HW171480   1.216   5.414   0.950
19942SOL    HW271481   1.144   5.507   1.063
19943SOL     OW71482   0.167   4.444   2.539
19943SOL    HW171483   0.192   4.368   2.599
19943SOL    HW271484   0.166   4.413   2.444
19944SOL     OW71485   8.989   4.639   2.309
19944SOL    HW171486   8.935   4.685   2.379
19944SOL    HW271487   9.010   4.546   2.338
19945SOL     OW71488   2.190   7.086   7.691
19945SOL    HW171489   2.174   7.183   7.676
19945SOL    HW271490   2.142   7.033   7.621
19946SOL     OW71491   7.550   8.830   4.867
19946SOL    HW171492   7.492   8.749   4.862
19946SOL    HW271493   7.613   8.831   4.789
19947SOL     OW71494   0.047   1.744   7.260
19947SOL    HW171495   0.066   1.839   7.285
19947SOL    HW271496   0.133   1.693   7.255
19948SOL     OW71497   9.229   8.864   0.082
19948SOL    HW171498   9.266   8.826  10.079
19948SOL    HW271499   9.232   8.794   0.154
19949SOL     OW71500   9.647   7.345   4.416
19949SOL    HW171501   9.689   7.419   4.470
19949SOL    HW271502   9.586   7.292   4.475
19950SOL     OW71503   5.220   3.329   1.675
19950SOL    HW171504   5.130   3.293   1.650
19950SOL    HW271505   5.254   3.389   1.602
19951SOL     OW71506   9.691   1.037   1.385
19951SOL    HW171507   9.651   1.034   1.476
19951SOL    HW271508   9.718   0.945   1.357
19952SOL     OW71509   8.747   6.594   5.536
19952SOL    HW171510   8.742   6.694   5.545
19952SOL    HW271511   8.733   6.552   5.625
19953SOL     OW71512   6.685   2.144   5.415
19953SOL    HW171513   6.692   2.170   5.319
19953SOL    HW271514   6.773   2.160   5.460
19954SOL     OW71515   5.735   6.133   1.560
19954SOL    HW171516   5.833   6.126   1.577
19954SOL    HW271517   5.713   6.089   1.474
19955SOL     OW71518   5.941   2.469   0.811
19955SOL    HW171519   5.967   2.466   0.714
19955SOL    HW271520   5.932   2.376   0.846
19956SOL     OW71521   9.641   0.802   2.103
19956SOL    HW171522   9.732   0.760   2.104
19956SOL    HW271523   9.572   0.732   2.127
19957SOL     OW71524   9.335   4.387   5.840
19957SOL    HW171525   9.338   4.288   5.843
19957SOL    HW271526   9.426   4.424   5.857
19958SOL     OW71527   9.913   9.508   0.494
19958SOL    HW171528   9.828   9.484   0.447
19958SOL    HW271529   9.966   9.424   0.511
19959SOL     OW71530   3.875   0.057   4.462
19959SOL    HW171531   3.897   0.094   4.372
19959SOL    HW271532   3.785   0.014   4.459
19960SOL     OW71533   6.414   7.975   2.202
19960SOL    HW171534   6.364   7.995   2.286
19960SOL    HW271535   6.379   7.890   2.162
19961SOL     OW71536   4.852   2.471   7.624
19961SOL    HW171537   4.818   2.387   7.666
19961SOL    HW271538   4.950   2.480   7.642
19962SOL     OW71539   8.853   5.493   0.747
19962SOL    HW171540   8.843   5.414   0.686
19962SOL    HW271541   8.903   5.565   0.700
19963SOL     OW71542   2.269   9.835   3.135
19963SOL    HW171543   2.254   9.880   3.224
19963SOL    HW271544   2.365   9.845   3.109
19964SOL     OW71545   3.464   5.952   6.467
19964SOL    HW171546   3.476   5.887   6.543
19964SOL    HW271547   3.367   5.967   6.451
19965SOL     OW71548   5.028   1.845   1.684
19965SOL    HW171549   5.085   1.797   1.618
19965SOL    HW271550   4.944   1.876   1.639
19966SOL     OW71551   2.928   3.289   4.049
19966SOL    HW171552   2.969   3.278   4.140
19966SOL    HW271553   2.942   3.204   3.996
19967SOL     OW71554   2.743   9.940   0.265
19967SOL    HW171555   2.652   9.963   0.230
19967SOL    HW271556   2.778   9.860   0.215
19968SOL     OW71557   1.210   3.786   4.136
19968SOL    HW171558   1.232   3.868   4.189
19968SOL    HW271559   1.286   3.722   4.140
19969SOL     OW71560   1.985   7.647   5.058
19969SOL    HW171561   1.891   7.665   5.029
19969SOL    HW271562   1.998   7.548   5.067
19970SOL     OW71563   9.005   6.112   2.151
19970SOL    HW171564   9.022   6.194   2.205
19970SOL    HW271565   9.085   6.052   2.156
19971SOL     OW71566   8.651   1.842   7.243
19971SOL    HW171567   8.692   1.910   7.304
19971SOL    HW271568   8.706   1.759   7.245
19972SOL     OW71569   1.500   8.391   1.745
19972SOL    HW171570   1.401   8.382   1.757
19972SOL    HW271571   1.534   8.467   1.800
19973SOL     OW71572   4.135   5.672   7.665
19973SOL    HW171573   4.095   5.607   7.730
19973SOL    HW271574   4.226   5.641   7.637
19974SOL     OW71575   8.588   6.547   4.332
19974SOL    HW171576   8.551   6.639   4.343
19974SOL    HW271577   8.614   6.533   4.237
19975SOL     OW71578   7.132   4.290   1.024
19975SOL    HW171579   7.227   4.323   1.023
19975SOL    HW271580   7.112   4.248   0.935
19976SOL     OW71581   7.229   6.655   3.380
19976SOL    HW171582   7.160   6.657   3.307
19976SOL    HW271583   7.229   6.564   3.422
19977SOL     OW71584   8.893   8.343   1.974
19977SOL    HW171585   8.826   8.393   1.919
19977SOL    HW271586   8.916   8.396   2.055
19978SOL     OW71587   5.755   9.483   5.076
19978SOL    HW171588   5.701   9.564   5.102
19978SOL    HW271589   5.779   9.431   5.159
19979SOL     OW71590   4.327   1.795   5.087
19979SOL    HW171591   4.352   1.862   5.017
19979SOL    HW271592   4.393   1.720   5.086
19980SOL     OW71593   8.461   3.907   1.206
19980SOL    HW171594   8.407   3.887   1.287
19980SOL    HW271595   8.488   3.821   1.162
19981SOL     OW71596   7.838   4.132   2.095
19981SOL    HW171597   7.921   4.132   2.041
19981SOL    HW271598   7.834   4.215   2.150
19982SOL     OW71599   2.623   6.137   7.250
19982SOL    HW171600   2.671   6.086   7.322
19982SOL    HW271601   2.597   6.075   7.176
19983SOL     OW71602   8.145   3.262   0.021
19983SOL    HW171603   8.174   3.245  10.008
19983SOL    HW271604   8.059   3.312   0.021
19984SOL     OW71605   0.535   3.046   2.544
19984SOL    HW171606   0.466   3.099   2.495
19984SOL    HW271607   0.626   3.082   2.524
19985SOL     OW71608   9.973   9.425   1.293
19985SOL    HW171609   9.994   9.373   1.210
19985SOL    HW271610   9.996   9.370   1.373
19986SOL     OW71611   9.223   3.627   7.533
19986SOL    HW171612   9.171   3.712   7.533
19986SOL    HW271613   9.218   3.585   7.442
19987SOL     OW71614   2.199   4.456   0.144
19987SOL    HW171615   2.269   4.417   0.204
19987SOL    HW271616   2.112   4.461   0.193
19988SOL     OW71617   5.791   9.777   5.365
19988SOL    HW171618   5.803   9.875   5.347
19988SOL    HW271619   5.727   9.739   5.298
19989SOL     OW71620   8.871   5.327   5.774
19989SOL    HW171621   8.959   5.295   5.811
19989SOL    HW271622   8.833   5.397   5.834
19990SOL     OW71623   7.743   6.619   5.085
19990SOL    HW171624   7.676   6.670   5.030
19990SOL    HW271625   7.835   6.638   5.051
19991SOL     OW71626   0.018   7.668   4.969
19991SOL    HW171627   0.110   7.647   4.936
19991SOL    HW271628   0.010   7.767   4.984
19992SOL     OW71629   4.577   9.279   7.052
19992SOL    HW171630   4.650   9.287   6.984
19992SOL    HW271631   4.528   9.193   7.038
19993SOL     OW71632   1.085   2.667   2.118
19993SOL    HW171633   1.150   2.607   2.165
19993SOL    HW271634   1.135   2.735   2.064
19994SOL     OW71635   2.130   9.567   0.486
19994SOL    HW171636   2.154   9.470   0.483
19994SOL    HW271637   2.050   9.583   0.429
19995SOL     OW71638   2.127   2.521   7.478
19995SOL    HW171639   2.068   2.553   7.404
19995SOL    HW271640   2.071   2.473   7.546
19996SOL     OW71641   9.755   5.104   5.199
19996SOL    HW171642   9.726   5.012   5.171
19996SOL    HW271643   9.852   5.104   5.222
19997SOL     OW71644   5.606   4.783   1.375
19997SOL    HW171645   5.545   4.831   1.312
19997SOL    HW271646   5.668   4.848   1.418
19998SOL     OW71647   3.081   9.663   1.627
19998SOL    HW171648   3.043   9.589   1.571
19998SOL    HW271649   3.073   9.750   1.577
19999SOL     OW71650   4.270   5.435   7.254
19999SOL    HW171651   4.351   5.426   7.312
19999SOL    HW271652   4.231   5.526   7.266
20000SOL     OW71653   6.382   0.584   3.324
20000SOL    HW171654   6.357   0.673   3.284
20000SOL    HW271655   6.375   0.513   3.254
20001SOL     OW71656   2.905   2.416   6.003
20001SOL    HW171657   2.884   2.504   6.045
20001SOL    HW271658   3.001   2.393   6.021
20002SOL     OW71659   7.656   5.658   7.575
20002SOL    HW171660   7.720   5.734   7.560
20002SOL    HW271661   7.695   5.593   7.640
20003SOL     OW71662   9.708   2.764   6.893
20003SOL    HW171663   9.754   2.836   6.842
20003SOL    HW271664   9.646   2.804   6.960
20004SOL     OW71665   7.153   2.540   0.654
20004SOL    HW171666   7.073   2.519   0.599
20004SOL    HW271667   7.155   2.481   0.735
20005SOL     OW71668   7.021   0.306   2.530
20005SOL    HW171669   7.091   0.370   2.563
20005SOL    HW271670   6.943   0.356   2.495
20006SOL     OW71671   4.181   3.354   3.000
20006SOL    HW171672   4.269   3.397   2.980
20006SOL    HW271673   4.144   3.393   3.085
20007SOL     OW71674   2.103   8.412   3.980
20007SOL    HW171675   2.175   8.422   4.049
20007SOL    HW271676   2.036   8.344   4.011
20008SOL     OW71677   9.661   7.627   3.897
20008SOL    HW171678   9.664   7.528   3.888
20008SOL    HW271679   9.738   7.667   3.847
20009SOL     OW71680   4.886   5.518   2.371
20009SOL    HW171681   4.890   5.429   2.324
20009SOL    HW271682   4.974   5.565   2.360
20010SOL     OW71683   8.293   1.595   6.978
20010SOL    HW171684   8.308   1.579   7.075
20010SOL    HW271685   8.319   1.689   6.955
20011SOL     OW71686   8.512   4.078   2.291
20011SOL    HW171687   8.610   4.062   2.300
20011SOL    HW271688   8.488   4.164   2.336
20012SOL     OW71689   8.531   4.011   5.305
20012SOL    HW171690   8.622   3.996   5.342
20012SOL    HW271691   8.491   4.092   5.347
20013SOL     OW71692   0.857   5.200   3.463
20013SOL    HW171693   0.905   5.273   3.511
20013SOL    HW271694   0.770   5.182   3.508
20014SOL     OW71695   4.197   5.216   4.152
20014SOL    HW171696   4.157   5.307   4.165
20014SOL    HW271697   4.247   5.189   4.234
20015SOL     OW71698   6.850   6.868   5.027
20015SOL    HW171699   6.761   6.878   5.072
20015SOL    HW271700   6.876   6.955   4.985
20016SOL     OW71701   8.699   1.618   1.653
20016SOL    HW171702   8.758   1.655   1.581
20016SOL    HW271703   8.617   1.674   1.662
20017SOL     OW71704   7.177   7.202   4.932
20017SOL    HW171705   7.174   7.249   4.844
20017SOL    HW271706   7.249   7.244   4.989
20018SOL     OW71707   0.996   6.957   5.804
20018SOL    HW171708   1.069   7.019   5.835
20018SOL    HW271709   1.010   6.867   5.846
20019SOL     OW71710   7.024   1.123   0.159
20019SOL    HW171711   7.068   1.042   0.199
20019SOL    HW271712   7.046   1.129   0.062
20020SOL     OW71713   1.770   4.748   3.973
20020SOL    HW171714   1.681   4.701   3.968
20020SOL    HW271715   1.843   4.680   3.980
20021SOL     OW71716   2.769   2.594   1.631
20021SOL    HW171717   2.862   2.614   1.663
20021SOL    HW271718   2.706   2.597   1.708
20022SOL     OW71719   3.049   7.357   3.789
20022SOL    HW171720   3.068   7.312   3.701
20022SOL    HW271721   2.977   7.307   3.837
20023SOL     OW71722   2.059   2.132   5.979
20023SOL    HW171723   2.080   2.204   5.912
20023SOL    HW271724   2.058   2.043   5.934
20024SOL     OW71725   9.271   6.372   2.777
20024SOL    HW171726   9.210   6.296   2.754
20024SOL    HW271727   9.265   6.442   2.706
20025SOL     OW71728   7.912   2.673   3.901
20025SOL    HW171729   7.850   2.615   3.848
20025SOL    HW271730   7.996   2.623   3.920
20026SOL     OW71731   5.039   1.004   7.853
20026SOL    HW171732   4.973   1.065   7.810
20026SOL    HW271733   5.115   0.987   7.791
20027SOL     OW71734   4.439   9.680   7.537
20027SOL    HW171735   4.351   9.659   7.580
20027SOL    HW271736   4.476   9.764   7.576
20028SOL     OW71737   4.242   8.473   3.821
20028SOL    HW171738   4.148   8.497   3.797
20028SOL    HW271739   4.260   8.378   3.796
20029SOL     OW71740   8.175   1.056   7.088
20029SOL    HW171741   8.268   1.045   7.121
20029SOL    HW271742   8.127   1.123   7.145
20030SOL     OW71743   4.881   2.043   5.814
20030SOL    HW171744   4.943   1.973   5.778
20030SOL    HW271745   4.897   2.053   5.913
20031SOL     OW71746   4.483   6.580   1.368
20031SOL    HW171747   4.545   6.620   1.436
20031SOL    HW271748   4.462   6.486   1.395
20032SOL     OW71749   5.154   8.621   1.955
20032SOL    HW171750   5.156   8.720   1.972
20032SOL    HW271751   5.225   8.598   1.889
20033SOL     OW71752   0.872   6.217   3.559
20033SOL    HW171753   0.791   6.214   3.618
20033SOL    HW271754   0.873   6.136   3.501
20034SOL     OW71755   8.906   9.787   3.992
20034SOL    HW171756   8.945   9.859   3.934
20034SOL    HW271757   8.833   9.825   4.048
20035SOL     OW71758   7.622   5.888   3.684
20035SOL    HW171759   7.626   5.799   3.640
20035SOL    HW271760   7.556   5.885   3.759
20036SOL     OW71761   6.740   0.544   4.286
20036SOL    HW171762   6.777   0.471   4.343
20036SOL    HW271763   6.650   0.518   4.252
20037SOL     OW71764   3.109   9.975   5.878
20037SOL    HW171765   3.084   0.057   5.930
20037SOL    HW271766   3.208   9.968   5.872
20038SOL     OW71767   2.898   4.239   4.986
20038SOL    HW171768   2.825   4.242   5.054
20038SOL    HW271769   2.932   4.331   4.970
20039SOL     OW71770   5.626   2.970   5.524
20039SOL    HW171771   5.686   2.945   5.447
20039SOL    HW271772   5.563   3.042   5.495
20040SOL     OW71773   2.302   5.187   1.013
20040SOL    HW171774   2.211   5.228   1.004
20040SOL    HW271775   2.344   5.216   1.098
20041SOL     OW71776   0.591   7.419   1.944
20041SOL    HW171777   0.568   7.449   2.037
20041SOL    HW271778   0.514   7.436   1.883
20042SOL     OW71779   0.936   0.773   3.991
20042SOL    HW171780   0.968   0.686   3.955
20042SOL    HW271781   0.993   0.847   3.955
20043SOL     OW71782   0.484   8.993   7.157
20043SOL    HW171783   0.519   9.072   7.207
20043SOL    HW271784   0.421   8.942   7.216
20044SOL     OW71785   2.581   3.779   6.607
20044SOL    HW171786   2.667   3.819   6.576
20044SOL    HW271787   2.564   3.694   6.557
20045SOL     OW71788   3.553   9.322   0.132
20045SOL    HW171789   3.629   9.262   0.106
20045SOL    HW271790   3.499   9.278   0.204
20046SOL     OW71791   2.809   6.602   2.170
20046SOL    HW171792   2.818   6.502   2.178
20046SOL    HW271793   2.718   6.624   2.136
20047SOL     OW71794   0.399   3.220   4.790
20047SOL    HW171795   0.408   3.276   4.873
20047SOL    HW271796   0.471   3.244   4.726
20048SOL     OW71797   9.624   0.770   6.334
20048SOL    HW171798   9.632   0.717   6.250
20048SOL    HW271799   9.637   0.709   6.413
20049SOL     OW71800   6.680   4.925   0.495
20049SOL    HW171801   6.644   4.941   0.586
20049SOL    HW271802   6.695   4.827   0.482
20050SOL     OW71803   4.997   0.548   7.326
20050SOL    HW171804   5.063   0.567   7.253
20050SOL    HW271805   4.969   0.634   7.369
20051SOL     OW71806   0.157   4.561   4.369
20051SOL    HW171807   0.244   4.516   4.351
20051SOL    HW271808   0.127   4.610   4.287
20052SOL     OW71809   0.930   9.746   2.975
20052SOL    HW171810   0.873   9.758   3.056
20052SOL    HW271811   0.895   9.669   2.921
20053SOL     OW71812   4.452   0.189   1.265
20053SOL    HW171813   4.449   0.210   1.363
20053SOL    HW271814   4.386   0.246   1.217
20054SOL     OW71815   9.531   9.597   1.748
20054SOL    HW171816   9.543   9.608   1.846
20054SOL    HW271817   9.559   9.680   1.701
20055SOL     OW71818   8.749   3.701   5.130
20055SOL    HW171819   8.802   3.741   5.204
20055SOL    HW271820   8.796   3.619   5.096
20056SOL     OW71821   1.230   1.468   5.774
20056SOL    HW171822   1.270   1.421   5.695
20056SOL    HW271823   1.203   1.401   5.843
20057SOL     OW71824   8.581   9.852   4.817
20057SOL    HW171825   8.669   9.804   4.821
20057SOL    HW271826   8.508   9.790   4.845
20058SOL     OW71827   6.989   4.700   0.688
20058SOL    HW171828   7.021   4.746   0.604
20058SOL    HW271829   7.062   4.699   0.755
20059SOL     OW71830   1.794   9.249   1.432
20059SOL    HW171831   1.789   9.216   1.338
20059SOL    HW271832   1.704   9.280   1.462
20060SOL     OW71833   1.739   9.338   5.644
20060SOL    HW171834   1.716   9.401   5.719
20060SOL    HW271835   1.810   9.275   5.675
20061SOL     OW71836   9.670   3.339   6.591
20061SOL    HW171837   9.585   3.374   6.631
20061SOL    HW271838   9.647   3.271   6.521
20062SOL     OW71839   8.306   5.060   3.130
20062SOL    HW171840   8.220   5.041   3.083
20062SOL    HW271841   8.368   4.982   3.119
20063SOL     OW71842   9.927   4.274   5.143
20063SOL    HW171843   9.895   4.194   5.093
20063SOL    HW271844   9.887   4.356   5.103
20064SOL     OW71845   7.643   3.779   2.294
20064SOL    HW171846   7.682   3.711   2.357
20064SOL    HW271847   7.709   3.799   2.222
20065SOL     OW71848   7.311   8.423   3.183
20065SOL    HW171849   7.393   8.390   3.229
20065SOL    HW271850   7.297   8.520   3.204
20066SOL     OW71851   0.575   5.042   0.945
20066SOL    HW171852   0.508   5.112   0.970
20066SOL    HW271853   0.642   5.032   1.019
20067SOL     OW71854   3.464   7.968   4.938
20067SOL    HW171855   3.459   8.006   4.845
20067SOL    HW271856   3.521   7.886   4.937
20068SOL     OW71857   2.640   3.485   5.014
20068SOL    HW171858   2.666   3.580   5.032
20068SOL    HW271859   2.541   3.480   5.000
20069SOL     OW71860   0.252   9.700   6.191
20069SOL    HW171861   0.333   9.670   6.242
20069SOL    HW271862   0.255   9.799   6.178
20070SOL     OW71863   1.974   6.764   1.870
20070SOL    HW171864   1.875   6.763   1.888
20070SOL    HW271865   1.991   6.740   1.775
20071SOL     OW71866   7.049   8.325   7.243
20071SOL    HW171867   7.022   8.231   7.224
20071SOL    HW271868   6.974   8.373   7.289
20072SOL     OW71869   1.009   5.059   0.198
20072SOL    HW171870   1.093   5.107   0.173
20072SOL    HW271871   0.930   5.106   0.159
20073SOL     OW71872   0.430   9.134   6.694
20073SOL    HW171873   0.497   9.208   6.682
20073SOL    HW271874   0.475   9.046   6.680
20074SOL     OW71875   9.943   0.900   0.549
20074SOL    HW171876   9.980   0.867   0.462
20074SOL    HW271877   9.991   0.984   0.575
20075SOL     OW71878   4.597   6.859   3.901
20075SOL    HW171879   4.650   6.834   3.982
20075SOL    HW271880   4.604   6.957   3.886
20076SOL     OW71881   0.232   7.701   3.204
20076SOL    HW171882   0.158   7.656   3.254
20076SOL    HW271883   0.311   7.713   3.264
20077SOL     OW71884   2.663   4.297   7.875
20077SOL    HW171885   2.650   4.297   7.974
20077SOL    HW271886   2.656   4.390   7.840
20078SOL     OW71887   8.387   5.266   7.407
20078SOL    HW171888   8.320   5.340   7.417
20078SOL    HW271889   8.405   5.250   7.310
20079SOL     OW71890   9.136   6.578   3.154
20079SOL    HW171891   9.156   6.509   3.223
20079SOL    HW271892   9.105   6.534   3.070
20080SOL     OW71893   6.461   9.570   1.441
20080SOL    HW171894   6.471   9.512   1.361
20080SOL    HW271895   6.545   9.624   1.453
20081SOL     OW71896   6.579   1.174   0.118
20081SOL    HW171897   6.564   1.149   0.022
20081SOL    HW271898   6.503   1.232   0.149
20082SOL     OW71899   4.009   1.065   5.439
20082SOL    HW171900   3.988   0.968   5.450
20082SOL    HW271901   4.087   1.089   5.496
20083SOL     OW71902   8.605   4.369   7.031
20083SOL    HW171903   8.514   4.329   7.022
20083SOL    HW271904   8.636   4.359   7.126
20084SOL     OW71905   2.436   3.161   5.322
20084SOL    HW171906   2.438   3.180   5.421
20084SOL    HW271907   2.497   3.224   5.275
20085SOL     OW71908   2.754   8.851   7.733
20085SOL    HW171909   2.785   8.945   7.718
20085SOL    HW271910   2.795   8.792   7.663
20086SOL     OW71911   5.915   2.274   4.399
20086SOL    HW171912   5.844   2.342   4.381
20086SOL    HW271913   5.997   2.297   4.347
20087SOL     OW71914   9.290   0.253   2.915
20087SOL    HW171915   9.248   0.197   2.986
20087SOL    HW271916   9.389   0.250   2.923
20088SOL     OW71917   6.735   9.629   2.571
20088SOL    HW171918   6.688   9.577   2.500
20088SOL    HW271919   6.701   9.600   2.661
20089SOL     OW71920   2.067   1.172   1.978
20089SOL    HW171921   2.045   1.075   1.990
20089SOL    HW271922   2.078   1.216   2.067
20090SOL     OW71923   9.518   5.342   1.193
20090SOL    HW171924   9.493   5.297   1.279
20090SOL    HW271925   9.615   5.368   1.196
20091SOL     OW71926   6.227   1.527   0.392
20091SOL    HW171927   6.186   1.476   0.467
20091SOL    HW271928   6.264   1.463   0.324
20092SOL     OW71929   2.830   0.497   4.845
20092SOL    HW171930   2.777   0.413   4.833
20092SOL    HW271931   2.769   0.576   4.838
20093SOL     OW71932   0.409   2.775   2.641
20093SOL    HW171933   0.498   2.766   2.685
20093SOL    HW271934   0.406   2.718   2.559
20094SOL     OW71935   6.346   3.258   0.756
20094SOL    HW171936   6.396   3.185   0.804
20094SOL    HW271937   6.290   3.217   0.684
20095SOL     OW71938   8.714   5.886   2.267
20095SOL    HW171939   8.809   5.863   2.289
20095SOL    HW271940   8.672   5.930   2.347
20096SOL     OW71941   6.606   4.842   7.399
20096SOL    HW171942   6.668   4.808   7.469
20096SOL    HW271943   6.589   4.940   7.413
20097SOL     OW71944   4.125   7.929   3.808
20097SOL    HW171945   4.223   7.927   3.830
20097SOL    HW271946   4.086   7.838   3.821
20098SOL     OW71947   6.500   7.983   5.726
20098SOL    HW171948   6.471   7.897   5.683
20098SOL    HW271949   6.477   8.059   5.666
20099SOL     OW71950   1.176   5.651   6.506
20099SOL    HW171951   1.248   5.672   6.439
20099SOL    HW271952   1.103   5.600   6.461
20100SOL     OW71953   8.979   5.070   2.247
20100SOL    HW171954   9.043   4.993   2.250
20100SOL    HW271955   8.926   5.065   2.162
20101SOL     OW71956   8.606   0.744   6.347
20101SOL    HW171957   8.519   0.725   6.394
20101SOL    HW271958   8.591   0.745   6.248
20102SOL     OW71959   0.061   9.916   4.611
20102SOL    HW171960   9.979   9.942   4.559
20102SOL    HW271961   0.072   9.816   4.608
20103SOL     OW71962   0.605   4.424   2.837
20103SOL    HW171963   0.526   4.483   2.818
20103SOL    HW271964   0.595   4.383   2.928
20104SOL     OW71965   1.801   0.858   3.090
20104SOL    HW171966   1.890   0.863   3.135
20104SOL    HW271967   1.749   0.940   3.112
20105SOL     OW71968   1.727   6.079   5.191
20105SOL    HW171969   1.803   6.047   5.134
20105SOL    HW271970   1.734   6.178   5.203
20106SOL     OW71971   0.150   3.409   7.699
20106SOL    HW171972   0.135   3.489   7.757
20106SOL    HW271973   0.240   3.416   7.656
20107SOL     OW71974   4.456   6.933   4.576
20107SOL    HW171975   4.491   6.912   4.484
20107SOL    HW271976   4.412   6.851   4.614
20108SOL     OW71977   1.278   0.444   6.619
20108SOL    HW171978   1.196   0.501   6.614
20108SOL    HW271979   1.253   0.354   6.656
20109SOL     OW71980   0.081   2.979   5.309
20109SOL    HW171981   9.985   2.996   5.330
20109SOL    HW271982   0.124   2.930   5.385
20110SOL     OW71983   9.994   7.542   5.798
20110SOL    HW171984   0.046   7.535   5.883
20110SOL    HW271985   0.041   7.489   5.727
20111SOL     OW71986   1.072   2.888   2.707
20111SOL    HW171987   1.114   2.977   2.726
20111SOL    HW271988   1.037   2.888   2.613
20112SOL     OW71989   0.249   2.249   4.073
20112SOL    HW171990   0.165   2.301   4.058
20112SOL    HW271991   0.230   2.171   4.132
20113SOL     OW71992   7.997   3.346   4.279
20113SOL    HW171993   8.063   3.356   4.205
20113SOL    HW271994   7.954   3.256   4.274
20114SOL     OW71995   7.014   9.275   5.684
20114SOL    HW171996   7.101   9.231   5.709
20114SOL    HW271997   6.996   9.260   5.587
20115SOL     OW71998   5.411   3.107   5.391
20115SOL    HW171999   5.335   3.050   5.419
20115SOL    HW272000   5.377   3.195   5.357
20116SOL     OW72001   5.837   0.239   3.460
20116SOL    HW172002   5.935   0.241   3.442
20116SOL    HW272003   5.807   0.327   3.496
20117SOL     OW72004   9.115   2.645   1.233
20117SOL    HW172005   9.136   2.673   1.327
20117SOL    HW272006   9.181   2.685   1.170
20118SOL     OW72007   3.928   1.423   3.189
20118SOL    HW172008   3.965   1.370   3.265
20118SOL    HW272009   3.828   1.421   3.193
20119SOL     OW72010   9.842   3.110   3.566
20119SOL    HW172011   9.806   3.189   3.617
20119SOL    HW272012   9.928   3.080   3.607
20120SOL     OW72013   1.322   5.784   5.878
20120SOL    HW172014   1.343   5.876   5.914
20120SOL    HW272015   1.364   5.773   5.788
20121SOL     OW72016   6.848   9.852   1.997
20121SOL    HW172017   6.840   9.832   2.094
20121SOL    HW272018   6.822   9.948   1.980
20122SOL     OW72019   8.358   2.416   4.227
20122SOL    HW172020   8.270   2.389   4.187
20122SOL    HW272021   8.373   2.366   4.312
20123SOL     OW72022   4.594   4.075   0.324
20123SOL    HW172023   4.521   4.133   0.289
20123SOL    HW272024   4.648   4.126   0.391
20124SOL     OW72025   7.745   8.915   1.963
20124SOL    HW172026   7.762   8.918   2.061
20124SOL    HW272027   7.683   8.839   1.942
20125SOL     OW72028   9.986   8.917   6.536
20125SOL    HW172029   0.058   8.984   6.553
20125SOL    HW272030   9.904   8.964   6.502
20126SOL     OW72031   3.335   5.263   3.272
20126SOL    HW172032   3.344   5.290   3.176
20126SOL    HW272033   3.318   5.165   3.277
20127SOL     OW72034   6.710   4.713   1.097
20127SOL    HW172035   6.776   4.733   1.170
20127SOL    HW272036   6.638   4.782   1.098
20128SOL     OW72037   7.814   4.860   2.999
20128SOL    HW172038   7.746   4.930   2.982
20128SOL    HW272039   7.790   4.809   3.082
20129SOL     OW72040   2.560   6.172   6.179
20129SOL    HW172041   2.636   6.191   6.241
20129SOL    HW272042   2.589   6.106   6.110
20130SOL     OW72043   5.114   0.297   2.637
20130SOL    HW172044   5.028   0.348   2.640
20130SOL    HW272045   5.143   0.285   2.542
20131SOL     OW72046   5.582   9.763   2.985
20131SOL    HW172047   5.490   9.741   3.018
20131SOL    HW272048   5.621   9.836   3.041
20132SOL     OW72049   6.767   5.152   2.084
20132SOL    HW172050   6.814   5.237   2.108
20132SOL    HW272051   6.787   5.082   2.152
20133SOL     OW72052   7.206   8.204   5.926
20133SOL    HW172053   7.170   8.138   5.860
20133SOL    HW272054   7.251   8.279   5.877
20134SOL     OW72055   1.916   0.752   0.588
20134SOL    HW172056   2.011   0.759   0.558
20134SOL    HW272057   1.861   0.711   0.515
20135SOL     OW72058   6.192   2.579   4.387
20135SOL    HW172059   6.097   2.598   4.363
20135SOL    HW272060   6.207   2.601   4.484
20136SOL     OW72061   5.878   5.959   1.126
20136SOL    HW172062   5.890   5.892   1.053
20136SOL    HW272063   5.943   5.942   1.199
20137SOL     OW72064   0.878   9.910   5.545
20137SOL    HW172065   0.950   9.967   5.505
20137SOL    HW272066   0.793   9.924   5.494
20138SOL     OW72067   4.285   1.888   5.338
20138SOL    HW172068   4.241   1.819   5.395
20138SOL    HW272069   4.307   1.848   5.249
20139SOL     OW72070   6.797   2.949   3.092
20139SOL    HW172071   6.793   3.048   3.076
20139SOL    HW272072   6.732   2.903   3.032
20140SOL     OW72073   0.010   0.369   5.130
20140SOL    HW172074   0.038   0.410   5.043
20140SOL    HW272075   0.018   0.269   5.123
20141SOL     OW72076   3.680   9.231   4.591
20141SOL    HW172077   3.707   9.322   4.622
20141SOL    HW272078   3.756   9.167   4.604
20142SOL     OW72079   7.593   0.655   6.584
20142SOL    HW172080   7.657   0.729   6.603
20142SOL    HW272081   7.513   0.690   6.536
20143SOL     OW72082   1.938   0.540   7.495
20143SOL    HW172083   2.036   0.533   7.482
20143SOL    HW272084   1.902   0.452   7.527
20144SOL     OW72085   1.355   8.623   1.496
20144SOL    HW172086   1.346   8.649   1.400
20144SOL    HW272087   1.424   8.551   1.505
20145SOL     OW72088   2.168   4.935   7.358
20145SOL    HW172089   2.246   4.872   7.359
20145SOL    HW272090   2.192   5.017   7.307
20146SOL     OW72091   0.557   6.961   0.173
20146SOL    HW172092   0.604   7.048   0.159
20146SOL    HW272093   0.607   6.907   0.240
20147SOL     OW72094   3.739   6.842   6.924
20147SOL    HW172095   3.747   6.850   7.023
20147SOL    HW272096   3.736   6.933   6.883
20148SOL     OW72097   3.764   7.796   5.580
20148SOL    HW172098   3.691   7.862   5.563
20148SOL    HW272099   3.733   7.729   5.648
20149SOL     OW72100   7.706   1.956   7.826
20149SOL    HW172101   7.682   1.889   7.755
20149SOL    HW272102   7.757   2.032   7.786
20150SOL     OW72103   8.981   5.706   7.368
20150SOL    HW172104   9.070   5.709   7.413
20150SOL    HW272105   8.983   5.759   7.284
20151SOL     OW72106   3.424   4.959   7.441
20151SOL    HW172107   3.430   5.038   7.502
20151SOL    HW272108   3.515   4.931   7.412
20152SOL     OW72109   0.916   8.567   3.766
20152SOL    HW172110   0.957   8.476   3.760
20152SOL    HW272111   0.883   8.582   3.860
20153SOL     OW72112   3.211   2.755   1.605
20153SOL    HW172113   3.307   2.730   1.618
20153SOL    HW272114   3.154   2.699   1.665
20154SOL     OW72115   1.461   5.303   0.723
20154SOL    HW172116   1.487   5.228   0.783
20154SOL    HW272117   1.492   5.284   0.630
20155SOL     OW72118   8.463   5.256   5.609
20155SOL    HW172119   8.381   5.199   5.622
20155SOL    HW272120   8.470   5.283   5.513
20156SOL     OW72121   8.850   8.432   6.103
20156SOL    HW172122   8.939   8.466   6.071
20156SOL    HW272123   8.782   8.505   6.098
20157SOL     OW72124   6.259   7.245   5.568
20157SOL    HW172125   6.345   7.237   5.517
20157SOL    HW272126   6.204   7.164   5.553
20158SOL     OW72127   4.448   0.823   0.918
20158SOL    HW172128   4.518   0.842   0.849
20158SOL    HW272129   4.489   0.822   1.009
20159SOL     OW72130   6.972   4.121   1.606
20159SOL    HW172131   7.051   4.082   1.653
20159SOL    HW272132   6.915   4.047   1.570
20160SOL     OW72133   1.566   2.932   6.465
20160SOL    HW172134   1.493   2.912   6.531
20160SOL    HW272135   1.646   2.968   6.514
20161SOL     OW72136   5.332   9.822   7.895
20161SOL    HW172137   5.374   9.746   7.944
20161SOL    HW272138   5.267   9.869   7.954
20162SOL     OW72139   3.806   9.986   2.099
20162SOL    HW172140   3.888   9.938   2.131
20162SOL    HW272141   3.825   0.029   2.011
20163SOL     OW72142   7.837   2.569   2.131
20163SOL    HW172143   7.806   2.499   2.067
20163SOL    HW272144   7.884   2.525   2.208
20164SOL     OW72145   3.998   3.168   3.237
20164SOL    HW172146   4.024   3.113   3.317
20164SOL    HW272147   4.047   3.135   3.157
20165SOL     OW72148   7.292   1.403   3.763
20165SOL    HW172149   7.284   1.482   3.823
20165SOL    HW272150   7.281   1.432   3.668
20166SOL     OW72151   2.147   9.224   1.254
20166SOL    HW172152   2.076   9.155   1.242
20166SOL    HW272153   2.234   9.187   1.223
20167SOL     OW72154   1.860   9.918   2.705
20167SOL    HW172155   1.825   9.831   2.672
20167SOL    HW272156   1.799   9.955   2.774
20168SOL     OW72157   9.652   0.544   4.134
20168SOL    HW172158   9.650   0.468   4.069
20168SOL    HW272159   9.697   0.623   4.093
20169SOL     OW72160   0.973   0.031   1.911
20169SOL    HW172161   0.931   0.091   1.979
20169SOL    HW272162   1.048   0.079   1.866
20170SOL     OW72163   8.164   9.432   3.783
20170SOL    HW172164   8.185   9.520   3.739
20170SOL    HW272165   8.162   9.360   3.715
20171SOL     OW72166   5.357   9.259   7.186
20171SOL    HW172167   5.354   9.162   7.212
20171SOL    HW272168   5.450   9.284   7.160
20172SOL     OW72169   2.849   2.703   5.775
20172SOL    HW172170   2.942   2.719   5.808
20172SOL    HW272171   2.833   2.605   5.766
20173SOL     OW72172   1.174   5.909   0.614
20173SOL    HW172173   1.256   5.945   0.571
20173SOL    HW272174   1.123   5.984   0.658
20174SOL     OW72175   0.391   8.645   6.768
20174SOL    HW172176   0.424   8.574   6.705
20174SOL    HW272177   0.294   8.662   6.752
20175SOL     OW72178   8.248   1.252   1.281
20175SOL    HW172179   8.188   1.318   1.236
20175SOL    HW272180   8.198   1.167   1.298
20176SOL     OW72181   9.988   5.581   2.154
20176SOL    HW172182   9.924   5.553   2.082
20176SOL    HW272183   9.939   5.590   2.240
20177SOL     OW72184   3.294   7.162   3.383
20177SOL    HW172185   3.310   7.076   3.335
20177SOL    HW272186   3.372   7.223   3.368
20178SOL     OW72187   2.444   2.925   3.926
20178SOL    HW172188   2.438   3.022   3.946
20178SOL    HW272189   2.374   2.900   3.859
20179SOL     OW72190   4.362   9.729   2.259
20179SOL    HW172191   4.323   9.656   2.203
20179SOL    HW272192   4.306   9.741   2.341
20180SOL     OW72193   9.887   8.828   6.194
20180SOL    HW172194   9.927   8.771   6.265
20180SOL    HW272195   9.793   8.851   6.219
20181SOL     OW72196   4.070   9.424   0.963
20181SOL    HW172197   4.067   9.414   1.062
20181SOL    HW272198   4.048   9.518   0.938
20182SOL     OW72199   8.745   5.530   3.997
20182SOL    HW172200   8.730   5.431   3.993
20182SOL    HW272201   8.662   5.578   3.966
20183SOL     OW72202   7.350   7.345   6.400
20183SOL    HW172203   7.429   7.392   6.439
20183SOL    HW272204   7.361   7.338   6.301
20184SOL     OW72205   2.416   6.000   3.421
20184SOL    HW172206   2.342   5.941   3.388
20184SOL    HW272207   2.410   6.009   3.520
20185SOL     OW72208   6.341   8.681   7.025
20185SOL    HW172209   6.393   8.763   7.002
20185SOL    HW272210   6.256   8.708   7.072
20186SOL     OW72211   7.218   2.350   1.585
20186SOL    HW172212   7.258   2.301   1.508
20186SOL    HW272213   7.290   2.397   1.636
20187SOL     OW72214   6.928   4.537   1.589
20187SOL    HW172215   6.996   4.468   1.562
20187SOL    HW272216   6.838   4.509   1.557
20188SOL     OW72217   7.767   4.969   3.415
20188SOL    HW172218   7.865   4.957   3.399
20188SOL    HW272219   7.738   4.906   3.487
20189SOL     OW72220   8.404   5.099   6.139
20189SOL    HW172221   8.342   5.078   6.215
20189SOL    HW272222   8.494   5.058   6.157
20190SOL     OW72223   3.119   3.091   0.079
20190SOL    HW172224   3.119   3.023   0.005
20190SOL    HW272225   3.164   3.053   0.160
20191SOL     OW72226   0.311   0.735   3.792
20191SOL    HW172227   0.274   0.661   3.848
20191SOL    HW272228   0.241   0.805   3.779
20192SOL     OW72229   3.375   8.397   0.774
20192SOL    HW172230   3.472   8.374   0.781
20192SOL    HW272231   3.357   8.437   0.684
20193SOL     OW72232   4.721   1.943   6.971
20193SOL    HW172233   4.669   1.922   7.053
20193SOL    HW272234   4.734   2.042   6.964
20194SOL     OW72235   8.321   6.511   1.030
20194SOL    HW172236   8.298   6.449   1.105
20194SOL    HW272237   8.375   6.462   0.961
20195SOL     OW72238   5.443   9.890   2.409
20195SOL    HW172239   5.417   9.794   2.420
20195SOL    HW272240   5.511   9.898   2.336
20196SOL     OW72241   2.641   5.423   6.910
20196SOL    HW172242   2.599   5.335   6.888
20196SOL    HW272243   2.684   5.417   7.000
20197SOL     OW72244   1.693   1.715   4.144
20197SOL    HW172245   1.716   1.639   4.205
20197SOL    HW272246   1.764   1.724   4.074
20198SOL     OW72247   2.506   1.479   5.742
20198SOL    HW172248   2.508   1.439   5.834
20198SOL    HW272249   2.431   1.438   5.690
20199SOL     OW72250   5.055   3.412   7.821
20199SOL    HW172251   5.079   3.327   7.774
20199SOL    HW272252   5.134   3.472   7.824
20200SOL     OW72253   4.582   1.206   4.490
20200SOL    HW172254   4.509   1.140   4.472
20200SOL    HW272255   4.558   1.294   4.450
20201SOL     OW72256   1.307   3.677   6.157
20201SOL    HW172257   1.218   3.670   6.111
20201SOL    HW272258   1.314   3.606   6.227
20202SOL     OW72259   9.439   5.359   3.066
20202SOL    HW172260   9.484   5.311   3.142
20202SOL    HW272261   9.412   5.292   2.996
20203SOL     OW72262   8.159   1.809   0.985
20203SOL    HW172263   8.083   1.808   1.049
20203SOL    HW272264   8.197   1.716   0.977
20204SOL     OW72265   3.265   4.974   6.673
20204SOL    HW172266   3.188   4.914   6.696
20204SOL    HW272267   3.318   4.994   6.755
20205SOL     OW72268   1.244   0.959   7.207
20205SOL    HW172269   1.304   1.024   7.254
20205SOL    HW272270   1.184   0.915   7.273
20206SOL     OW72271   1.780   3.642   5.511
20206SOL    HW172272   1.744   3.616   5.601
20206SOL    HW272273   1.751   3.576   5.443
20207SOL     OW72274   5.095   0.519   4.071
20207SOL    HW172275   5.046   0.522   4.158
20207SOL    HW272276   5.109   0.613   4.038
20208SOL     OW72277   7.481   8.218   7.861
20208SOL    HW172278   7.471   8.172   7.773
20208SOL    HW272279   7.505   8.314   7.847
20209SOL     OW72280   9.069   1.603   1.911
20209SOL    HW172281   8.988   1.557   1.947
20209SOL    HW272282   9.136   1.616   1.985
20210SOL     OW72283   5.635   9.668   4.188
20210SOL    HW172284   5.547   9.669   4.140
20210SOL    HW272285   5.669   9.574   4.193
20211SOL     OW72286   9.961   6.993   0.897
20211SOL    HW172287   9.904   6.922   0.855
20211SOL    HW272288   9.975   7.067   0.831
20212SOL     OW72289   5.290   9.036   6.880
20212SOL    HW172290   5.271   9.132   6.898
20212SOL    HW272291   5.223   8.979   6.929
20213SOL     OW72292   9.843   8.647   7.311
20213SOL    HW172293   9.750   8.673   7.337
20213SOL    HW272294   9.865   8.684   7.221
20214SOL     OW72295   3.013   4.304   0.320
20214SOL    HW172296   2.928   4.251   0.329
20214SOL    HW272297   3.091   4.242   0.319
20215SOL     OW72298   0.714   4.645   0.803
20215SOL    HW172299   0.715   4.545   0.815
20215SOL    HW272300   0.745   4.688   0.888
20216SOL     OW72301   3.603   4.371   0.236
20216SOL    HW172302   3.664   4.323   0.174
20216SOL    HW272303   3.645   4.376   0.327
20217SOL     OW72304   3.454   6.029   0.992
20217SOL    HW172305   3.553   6.029   0.975
20217SOL    HW272306   3.406   6.007   0.907
20218SOL     OW72307   9.445   0.671   4.259
20218SOL    HW172308   9.402   0.618   4.331
20218SOL    HW272309   9.520   0.618   4.219
20219SOL     OW72310   3.321   7.001   1.517
20219SOL    HW172311   3.369   6.945   1.584
20219SOL    HW272312   3.386   7.065   1.475
20220SOL     OW72313   3.446   2.837   1.878
20220SOL    HW172314   3.428   2.757   1.934
20220SOL    HW272315   3.387   2.912   1.906
20221SOL     OW72316   2.300   4.316   4.441
20221SOL    HW172317   2.348   4.230   4.456
20221SOL    HW272318   2.336   4.385   4.504
20222SOL     OW72319   9.977   2.651   7.856
20222SOL    HW172320   0.002   2.596   7.936
20222SOL    HW272321   9.938   2.593   7.786
20223SOL     OW72322   2.165   9.797   4.967
20223SOL    HW172323   2.264   9.790   4.975
20223SOL    HW272324   2.123   9.711   4.996
20224SOL     OW72325   2.103   3.423   6.082
20224SOL    HW172326   2.006   3.440   6.063
20224SOL    HW272327   2.156   3.504   6.056
20225SOL     OW72328   9.465   2.242   4.297
20225SOL    HW172329   9.557   2.208   4.274
20225SOL    HW272330   9.429   2.295   4.221
20226SOL     OW72331   3.144   8.480   2.184
20226SOL    HW172332   3.182   8.482   2.276
20226SOL    HW272333   3.096   8.566   2.166
20227SOL     OW72334   7.889   1.111   6.177
20227SOL    HW172335   7.818   1.115   6.247
20227SOL    HW272336   7.946   1.193   6.184
20228SOL     OW72337   2.333   0.546   6.154
20228SOL    HW172338   2.341   0.646   6.151
20228SOL    HW272339   2.406   0.509   6.211
20229SOL     OW72340   1.792   1.139   5.046
20229SOL    HW172341   1.693   1.130   5.054
20229SOL    HW272342   1.837   1.066   5.097
20230SOL     OW72343   0.258   8.196   1.801
20230SOL    HW172344   0.165   8.215   1.835
20230SOL    HW272345   0.256   8.189   1.701
20231SOL     OW72346   2.692   3.593   0.641
20231SOL    HW172347   2.613   3.565   0.696
20231SOL    HW272348   2.665   3.664   0.577
20232SOL     OW72349   9.660   9.942   2.189
20232SOL    HW172350   9.575   9.898   2.159
20232SOL    HW272351   9.719   9.955   2.109
20233SOL     OW72352   9.641   1.220   5.098
20233SOL    HW172353   9.613   1.245   5.006
20233SOL    HW272354   9.718   1.277   5.127
20234SOL     OW72355   0.053   6.601   2.765
20234SOL    HW172356   0.105   6.685   2.754
20234SOL    HW272357   0.111   6.530   2.804
20235SOL     OW72358   9.880   0.626   7.134
20235SOL    HW172359   9.950   0.577   7.084
20235SOL    HW272360   9.868   0.717   7.096
20236SOL     OW72361   4.861   1.348   0.332
20236SOL    HW172362   4.774   1.388   0.362
20236SOL    HW272363   4.910   1.415   0.276
20237SOL     OW72364   1.310   6.733   5.755
20237SOL    HW172365   1.366   6.672   5.812
20237SOL    HW272366   1.337   6.722   5.659
20238SOL     OW72367   2.715   7.646   7.534
20238SOL    HW172368   2.618   7.653   7.511
20238SOL    HW272369   2.742   7.725   7.588
20239SOL     OW72370   5.291   3.568   7.817
20239SOL    HW172371   5.380   3.527   7.837
20239SOL    HW272372   5.305   3.656   7.771
20240SOL     OW72373   1.212   3.048   2.468
20240SOL    HW172374   1.190   3.044   2.370
20240SOL    HW272375   1.285   2.982   2.488
20241SOL     OW72376   7.960   8.275   4.794
20241SOL    HW172377   7.979   8.202   4.729
20241SOL    HW272378   7.886   8.247   4.855
20242SOL     OW72379   4.115   7.903   3.223
20242SOL    HW172380   4.131   7.881   3.319
20242SOL    HW272381   4.183   7.969   3.192
20243SOL     OW72382   6.821   0.475   5.655
20243SOL    HW172383   6.899   0.500   5.597
20243SOL    HW272384   6.743   0.451   5.597
20244SOL     OW72385   9.063   7.873   7.429
20244SOL    HW172386   9.063   7.973   7.427
20244SOL    HW272387   9.054   7.841   7.523
20245SOL     OW72388   5.242   6.693   0.981
20245SOL    HW172389   5.239   6.620   0.913
20245SOL    HW272390   5.171   6.679   1.049
20246SOL     OW72391   4.594   8.734   6.933
20246SOL    HW172392   4.543   8.654   6.903
20246SOL    HW272393   4.602   8.799   6.858
20247SOL     OW72394   6.698   9.246   7.295
20247SOL    HW172395   6.608   9.276   7.324
20247SOL    HW272396   6.709   9.264   7.197
20248SOL     OW72397   1.272   7.000   1.595
20248SOL    HW172398   1.234   7.046   1.515
20248SOL    HW272399   1.346   7.056   1.633
20249SOL     OW72400   0.399   8.975   4.471
20249SOL    HW172401   0.303   8.996   4.487
20249SOL    HW272402   0.417   8.972   4.373
20250SOL     OW72403   1.208   3.259   0.935
20250SOL    HW172404   1.166   3.306   1.012
20250SOL    HW272405   1.138   3.211   0.882
20251SOL     OW72406   9.692   9.102   0.771
20251SOL    HW172407   9.702   9.154   0.855
20251SOL    HW272408   9.783   9.081   0.734
20252SOL     OW72409   0.984   6.223   1.943
20252SOL    HW172410   0.913   6.199   1.876
20252SOL    HW272411   1.049   6.147   1.950
20253SOL     OW72412   3.354   1.501   4.596
20253SOL    HW172413   3.374   1.568   4.668
20253SOL    HW272414   3.290   1.433   4.631
20254SOL     OW72415   5.167   9.280   3.100
20254SOL    HW172416   5.266   9.275   3.090
20254SOL    HW272417   5.129   9.341   3.031
20255SOL     OW72418   9.143   7.395   3.308
20255SOL    HW172419   9.127   7.440   3.396
20255SOL    HW272420   9.141   7.464   3.235
20256SOL     OW72421   5.286   9.886   5.802
20256SOL    HW172422   5.259   9.827   5.726
20256SOL    HW272423   5.356   9.950   5.771
20257SOL     OW72424   4.544   4.807   3.425
20257SOL    HW172425   4.605   4.743   3.471
20257SOL    HW272426   4.543   4.788   3.327
20258SOL     OW72427   2.466   1.469   0.761
20258SOL    HW172428   2.406   1.423   0.696
20258SOL    HW272429   2.501   1.402   0.827
20259SOL     OW72430   0.286   2.623   0.669
20259SOL    HW172431   0.230   2.689   0.718
20259SOL    HW272432   0.233   2.581   0.596
20260SOL     OW72433   6.216   9.687   5.454
20260SOL    HW172434   6.242   9.778   5.422
20260SOL    HW272435   6.183   9.693   5.548
20261SOL     OW72436   7.746   9.255   2.544
20261SOL    HW172437   7.660   9.305   2.543
20261SOL    HW272438   7.817   9.311   2.501
20262SOL     OW72439   5.974   8.023   5.623
20262SOL    HW172440   5.991   7.964   5.702
20262SOL    HW272441   6.061   8.055   5.586
20263SOL     OW72442   6.557   1.521   3.295
20263SOL    HW172443   6.461   1.497   3.307
20263SOL    HW272444   6.599   1.458   3.230
20264SOL     OW72445   6.745   4.527   7.802
20264SOL    HW172446   6.740   4.606   7.742
20264SOL    HW272447   6.667   4.527   7.864
20265SOL     OW72448   2.981   3.852   0.446
20265SOL    HW172449   2.923   3.776   0.417
20265SOL    HW272450   3.053   3.819   0.507
20266SOL     OW72451   0.743   8.116   1.355
20266SOL    HW172452   0.683   8.098   1.277
20266SOL    HW272453   0.816   8.047   1.356
20267SOL     OW72454   0.828   9.762   1.221
20267SOL    HW172455   0.918   9.793   1.252
20267SOL    HW272456   0.829   9.751   1.121
20268SOL     OW72457   8.798   4.689   5.741
20268SOL    HW172458   8.753   4.600   5.732
20268SOL    HW272459   8.833   4.718   5.652
20269SOL     OW72460   0.443   1.220   6.988
20269SOL    HW172461   0.385   1.247   6.912
20269SOL    HW272462   0.387   1.198   7.067
20270SOL     OW72463   0.076   9.840   5.078
20270SOL    HW172464   0.081   9.802   5.171
20270SOL    HW272465   0.140   9.792   5.019
20271SOL     OW72466   9.233   2.916   6.897
20271SOL    HW172467   9.276   2.944   6.983
20271SOL    HW272468   9.211   2.819   6.902
20272SOL     OW72469   2.051   0.870   3.206
20272SOL    HW172470   2.075   0.787   3.155
20272SOL    HW272471   2.128   0.933   3.204
20273SOL     OW72472   0.261   8.563   0.443
20273SOL    HW172473   0.354   8.533   0.465
20273SOL    HW272474   0.215   8.493   0.390
20274SOL     OW72475   1.250   5.723   0.137
20274SOL    HW172476   1.196   5.773   0.205
20274SOL    HW272477   1.339   5.767   0.125
20275SOL     OW72478   4.379   1.170   5.358
20275SOL    HW172479   4.389   1.259   5.313
20275SOL    HW272480   4.345   1.103   5.292
20276SOL     OW72481   2.990   9.150   2.106
20276SOL    HW172482   2.952   9.109   2.189
20276SOL    HW272483   3.086   9.125   2.097
20277SOL     OW72484   1.566   1.704   3.619
20277SOL    HW172485   1.578   1.715   3.520
20277SOL    HW272486   1.565   1.607   3.643
20278SOL     OW72487   7.690   9.029   1.635
20278SOL    HW172488   7.694   9.092   1.713
20278SOL    HW272489   7.613   8.966   1.647
20279SOL     OW72490   2.551   1.071   3.632
20279SOL    HW172491   2.556   1.019   3.717
20279SOL    HW272492   2.552   1.169   3.654
20280SOL     OW72493   7.053   6.911   5.213
20280SOL    HW172494   7.147   6.881   5.194
20280SOL    HW272495   6.993   6.879   5.139
20281SOL     OW72496   4.524   9.142   1.211
20281SOL    HW172497   4.515   9.216   1.144
20281SOL    HW272498   4.439   9.089   1.214
20282SOL     OW72499   2.922   9.362   7.796
20282SOL    HW172500   3.015   9.385   7.824
20282SOL    HW272501   2.857   9.422   7.842
20283SOL     OW72502   5.256   0.069   3.134
20283SOL    HW172503   5.237   0.123   3.052
20283SOL    HW272504   5.198   9.988   3.135
20284SOL     OW72505   9.632   1.149   5.512
20284SOL    HW172506   9.563   1.149   5.439
20284SOL    HW272507   9.622   1.066   5.567
20285SOL     OW72508   9.329   7.765   1.938
20285SOL    HW172509   9.381   7.756   1.853
20285SOL    HW272510   9.353   7.851   1.982
20286SOL     OW72511   8.920   2.618   1.998
20286SOL    HW172512   8.995   2.556   1.975
20286SOL    HW272513   8.836   2.566   2.012
20287SOL     OW72514   3.957   7.425   3.465
20287SOL    HW172515   3.932   7.503   3.407
20287SOL    HW272516   3.998   7.353   3.408
20288SOL     OW72517   2.178   8.021   2.793
20288SOL    HW172518   2.100   7.967   2.760
20288SOL    HW272519   2.255   8.008   2.730
20289SOL     OW72520   9.777   7.774   7.797
20289SOL    HW172521   9.748   7.778   7.892
20289SOL    HW272522   9.863   7.723   7.790
20290SOL     OW72523   4.809   8.136   4.583
20290SOL    HW172524   4.897   8.170   4.552
20290SOL    HW272525   4.761   8.093   4.507
20291SOL     OW72526   8.092   0.679   4.729
20291SOL    HW172527   8.034   0.720   4.659
20291SOL    HW272528   8.097   0.580   4.714
20292SOL     OW72529   0.175   4.635   7.147
20292SOL    HW172530   0.091   4.662   7.194
20292SOL    HW272531   0.152   4.581   7.066
20293SOL     OW72532   2.361   4.781   0.323
20293SOL    HW172533   2.334   4.863   0.272
20293SOL    HW272534   2.328   4.789   0.417
20294SOL     OW72535   0.613   2.638   4.300
20294SOL    HW172536   0.574   2.590   4.222
20294SOL    HW272537   0.609   2.580   4.381
20295SOL     OW72538   7.181   1.277   5.496
20295SOL    HW172539   7.151   1.249   5.587
20295SOL    HW272540   7.112   1.251   5.429
20296SOL     OW72541   2.706   4.925   5.150
20296SOL    HW172542   2.729   4.989   5.077
20296SOL    HW272543   2.723   4.832   5.118
20297SOL     OW72544   3.386   0.608   3.362
20297SOL    HW172545   3.468   0.634   3.413
20297SOL    HW272546   3.354   0.518   3.393
20298SOL     OW72547   8.071   8.231   1.795
20298SOL    HW172548   8.168   8.221   1.773
20298SOL    HW272549   8.025   8.143   1.784
20299SOL     OW72550   5.548   0.968   5.714
20299SOL    HW172551   5.525   1.047   5.657
20299SOL    HW272552   5.618   0.994   5.780
20300SOL     OW72553   2.464   9.441   7.676
20300SOL    HW172554   2.390   9.499   7.643
20300SOL    HW272555   2.549   9.465   7.630
20301SOL     OW72556   2.578   1.227   2.012
20301SOL    HW172557   2.580   1.269   2.102
20301SOL    HW272558   2.484   1.219   1.980
20302SOL     OW72559   8.356   7.767   3.224
20302SOL    HW172560   8.348   7.762   3.125
20302SOL    HW272561   8.452   7.756   3.251
20303SOL     OW72562   6.293   1.145   0.969
20303SOL    HW172563   6.348   1.062   0.955
20303SOL    HW272564   6.197   1.120   0.978
20304SOL     OW72565   1.810   9.762   7.709
20304SOL    HW172566   1.880   9.725   7.770
20304SOL    HW272567   1.847   9.768   7.616
20305SOL     OW72568   7.740   5.165   7.421
20305SOL    HW172569   7.824   5.176   7.368
20305SOL    HW272570   7.669   5.226   7.385
20306SOL     OW72571   8.815   4.020   6.937
20306SOL    HW172572   8.831   4.118   6.930
20306SOL    HW272573   8.833   3.977   6.848
20307SOL     OW72574   3.225   4.115   0.343
20307SOL    HW172575   3.176   4.047   0.288
20307SOL    HW272576   3.322   4.090   0.350
20308SOL     OW72577   9.182   4.814   7.041
20308SOL    HW172578   9.265   4.770   7.006
20308SOL    HW272579   9.205   4.903   7.080
20309SOL     OW72580   6.267   9.595   6.147
20309SOL    HW172581   6.351   9.611   6.199
20309SOL    HW272582   6.224   9.683   6.126
20310SOL     OW72583   9.719   9.699   3.359
20310SOL    HW172584   9.685   9.614   3.317
20310SOL    HW272585   9.808   9.722   3.321
20311SOL     OW72586   5.844   1.306   5.835
20311SOL    HW172587   5.779   1.371   5.875
20311SOL    HW272588   5.821   1.214   5.865
20312SOL     OW72589   4.777   2.252   4.990
20312SOL    HW172590   4.718   2.321   4.947
20312SOL    HW272591   4.811   2.287   5.077
20313SOL     OW72592   2.784   1.510   5.775
20313SOL    HW172593   2.690   1.505   5.741
20313SOL    HW272594   2.843   1.548   5.703
20314SOL     OW72595   8.549   8.074   1.108
20314SOL    HW172596   8.472   8.086   1.044
20314SOL    HW272597   8.631   8.114   1.068
20315SOL     OW72598   1.272   7.481   6.939
20315SOL    HW172599   1.275   7.555   7.006
20315SOL    HW272600   1.210   7.410   6.972
20316SOL     OW72601   5.056   3.307   6.789
20316SOL    HW172602   5.041   3.213   6.759
20316SOL    HW272603   4.985   3.366   6.750
20317SOL     OW72604   1.661   8.751   1.721
20317SOL    HW172605   1.757   8.725   1.720
20317SOL    HW272606   1.613   8.699   1.792
20318SOL     OW72607   0.464   0.341   7.713
20318SOL    HW172608   0.558   0.349   7.746
20318SOL    HW272609   0.463   0.290   7.627
20319SOL     OW72610   0.014   5.532   2.697
20319SOL    HW172611   0.077   5.528   2.619
20319SOL    HW272612   9.979   5.625   2.707
20320SOL     OW72613   9.015   0.384   4.572
20320SOL    HW172614   8.997   0.430   4.659
20320SOL    HW272615   8.957   0.423   4.500
20321SOL     OW72616   7.689   3.739   1.313
20321SOL    HW172617   7.627   3.779   1.381
20321SOL    HW272618   7.672   3.641   1.307
20322SOL     OW72619   3.135   6.924   4.909
20322SOL    HW172620   3.233   6.918   4.928
20322SOL    HW272621   3.097   6.832   4.897
20323SOL     OW72622   3.637   7.810   1.144
20323SOL    HW172623   3.598   7.736   1.088
20323SOL    HW272624   3.729   7.830   1.113
20324SOL     OW72625   1.164   8.012   0.395
20324SOL    HW172626   1.118   7.959   0.324
20324SOL    HW272627   1.102   8.023   0.473
20325SOL     OW72628   1.281   0.182   2.760
20325SOL    HW172629   1.203   0.155   2.704
20325SOL    HW272630   1.251   0.251   2.827
20326SOL     OW72631   9.240   5.342   4.816
20326SOL    HW172632   9.150   5.348   4.773
20326SOL    HW272633   9.230   5.306   4.908
20327SOL     OW72634   2.290   9.881   5.717
20327SOL    HW172635   2.339   9.793   5.722
20327SOL    HW272636   2.339   9.949   5.770
20328SOL     OW72637   6.826   7.173   4.291
20328SOL    HW172638   6.827   7.074   4.274
20328SOL    HW272639   6.847   7.222   4.207
20329SOL     OW72640   3.003   3.958   1.590
20329SOL    HW172641   2.932   3.968   1.661
20329SOL    HW272642   2.993   3.868   1.547
20330SOL     OW72643   3.723   1.098   3.344
20330SOL    HW172644   3.732   1.030   3.417
20330SOL    HW272645   3.795   1.083   3.276
20331SOL     OW72646   9.786   5.184   2.250
20331SOL    HW172647   9.759   5.243   2.325
20331SOL    HW272648   9.786   5.089   2.281
20332SOL     OW72649   2.925   3.801   7.697
20332SOL    HW172650   2.886   3.893   7.708
20332SOL    HW272651   3.025   3.809   7.692
20333SOL     OW72652   2.566   8.585   7.533
20333SOL    HW172653   2.552   8.543   7.443
20333SOL    HW272654   2.481   8.582   7.585
20334SOL     OW72655   2.320   7.861   5.094
20334SOL    HW172656   2.284   7.794   5.028
20334SOL    HW272657   2.278   7.950   5.077
20335SOL     OW72658   7.848   9.410   3.709
20335SOL    HW172659   7.870   9.502   3.742
20335SOL    HW272660   7.883   9.399   3.616
20336SOL     OW72661   4.766   0.934   4.513
20336SOL    HW172662   4.723   1.024   4.500
20336SOL    HW272663   4.696   0.868   4.542
20337SOL     OW72664   1.512   5.827   0.138
20337SOL    HW172665   1.583   5.895   0.154
20337SOL    HW272666   1.550   5.753   0.081
20338SOL     OW72667   2.395   6.876   0.684
20338SOL    HW172668   2.410   6.962   0.733
20338SOL    HW272669   2.358   6.809   0.748
20339SOL     OW72670   3.618   2.480   4.985
20339SOL    HW172671   3.576   2.395   4.954
20339SOL    HW272672   3.682   2.460   5.060
20340SOL     OW72673   6.205   9.467   3.890
20340SOL    HW172674   6.303   9.486   3.899
20340SOL    HW272675   6.153   9.551   3.907
20341SOL     OW72676   2.514   0.206   1.031
20341SOL    HW172677   2.468   0.229   1.117
20341SOL    HW272678   2.582   0.276   1.011
20342SOL     OW72679   2.548   2.585   4.826
20342SOL    HW172680   2.504   2.549   4.908
20342SOL    HW272681   2.487   2.650   4.780
20343SOL     OW72682   2.325   5.790   1.627
20343SOL    HW172683   2.243   5.784   1.684
20343SOL    HW272684   2.404   5.812   1.685
20344SOL     OW72685   0.822   3.392   5.220
20344SOL    HW172686   0.906   3.437   5.247
20344SOL    HW272687   0.823   3.297   5.250
20345SOL     OW72688   4.781   9.098   3.234
20345SOL    HW172689   4.788   9.145   3.146
20345SOL    HW272690   4.700   9.131   3.283
20346SOL     OW72691   5.452   8.908   3.184
20346SOL    HW172692   5.541   8.929   3.224
20346SOL    HW272693   5.413   8.829   3.231
20347SOL     OW72694   8.754   1.101   0.913
20347SOL    HW172695   8.802   1.014   0.915
20347SOL    HW272696   8.809   1.171   0.958
20348SOL     OW72697   8.987   2.651   5.695
20348SOL    HW172698   8.950   2.702   5.773
20348SOL    HW272699   8.913   2.605   5.647
20349SOL     OW72700   6.003   0.369   6.686
20349SOL    HW172701   6.020   0.286   6.633
20349SOL    HW272702   6.091   0.412   6.708
20350SOL     OW72703   3.970   0.035   2.676
20350SOL    HW172704   4.036   0.042   2.750
20350SOL    HW272705   3.894   0.097   2.693
20351SOL     OW72706   5.496   2.679   4.381
20351SOL    HW172707   5.411   2.706   4.424
20351SOL    HW272708   5.573   2.714   4.434
20352SOL     OW72709   2.893   5.156   1.085
20352SOL    HW172710   2.818   5.201   1.036
20352SOL    HW272711   2.902   5.197   1.176
20353SOL     OW72712   7.938   7.241   0.669
20353SOL    HW172713   7.978   7.201   0.751
20353SOL    HW272714   7.901   7.331   0.690
20354SOL     OW72715   5.096   5.825   1.885
20354SOL    HW172716   5.024   5.794   1.824
20354SOL    HW272717   5.071   5.804   1.980
20355SOL     OW72718   3.988   5.843   3.967
20355SOL    HW172719   4.054   5.822   4.039
20355SOL    HW272720   3.905   5.790   3.981
20356SOL     OW72721   1.808   3.755   0.597
20356SOL    HW172722   1.872   3.720   0.665
20356SOL    HW272723   1.734   3.804   0.643
20357SOL     OW72724   5.742   1.886   0.130
20357SOL    HW172725   5.791   1.970   0.152
20357SOL    HW272726   5.753   1.865   0.033
20358SOL     OW72727   6.041   1.043   3.381
20358SOL    HW172728   6.131   1.084   3.371
20358SOL    HW272729   6.024   0.980   3.306
20359SOL     OW72730   7.731   4.573   0.466
20359SOL    HW172731   7.800   4.510   0.431
20359SOL    HW272732   7.747   4.590   0.563
20360SOL     OW72733   8.199   9.327   5.025
20360SOL    HW172734   8.181   9.426   5.032
20360SOL    HW272735   8.251   9.298   5.105
20361SOL     OW72736   9.602   2.800   1.063
20361SOL    HW172737   9.615   2.734   1.137
20361SOL    HW272738   9.544   2.875   1.096
20362SOL     OW72739   8.464   9.828   0.094
20362SOL    HW172740   8.379   9.869   0.063
20362SOL    HW272741   8.532   9.899   0.111
20363SOL     OW72742   8.301   8.574   0.787
20363SOL    HW172743   8.354   8.551   0.705
20363SOL    HW272744   8.224   8.510   0.796
20364SOL     OW72745   9.314   3.270   2.412
20364SOL    HW172746   9.283   3.316   2.495
20364SOL    HW272747   9.322   3.172   2.429
20365SOL     OW72748   2.619   2.275   3.382
20365SOL    HW172749   2.579   2.262   3.473
20365SOL    HW272750   2.718   2.265   3.388
20366SOL     OW72751   5.087   5.542   7.879
20366SOL    HW172752   5.098   5.576   7.786
20366SOL    HW272753   5.175   5.550   7.927
20367SOL     OW72754   1.185   8.367   4.970
20367SOL    HW172755   1.154   8.361   5.065
20367SOL    HW272756   1.174   8.461   4.938
20368SOL     OW72757   1.639   6.973   5.331
20368SOL    HW172758   1.590   6.907   5.274
20368SOL    HW272759   1.578   7.008   5.402
20369SOL     OW72760   9.786   6.099   7.022
20369SOL    HW172761   9.689   6.084   7.002
20369SOL    HW272762   9.820   6.173   6.964
20370SOL     OW72763   3.851   6.691   1.844
20370SOL    HW172764   3.928   6.729   1.793
20370SOL    HW272765   3.883   6.655   1.932
20371SOL     OW72766   3.613   7.318   4.542
20371SOL    HW172767   3.635   7.332   4.446
20371SOL    HW272768   3.531   7.261   4.550
20372SOL     OW72769   0.955   6.004   3.376
20372SOL    HW172770   0.978   6.082   3.317
20372SOL    HW272771   1.038   5.971   3.421
20373SOL     OW72772   7.417   5.039   2.785
20373SOL    HW172773   7.355   5.114   2.761
20373SOL    HW272774   7.370   4.952   2.773
20374SOL     OW72775   7.140   8.679   3.625
20374SOL    HW172776   7.184   8.660   3.538
20374SOL    HW272777   7.066   8.746   3.611
20375SOL     OW72778   4.043   6.295   0.494
20375SOL    HW172779   4.078   6.314   0.586
20375SOL    HW272780   3.958   6.243   0.502
20376SOL     OW72781   1.777   1.361   6.962
20376SOL    HW172782   1.771   1.392   7.057
20376SOL    HW272783   1.814   1.268   6.959
20377SOL     OW72784   9.948   1.127   1.336
20377SOL    HW172785   9.955   1.163   1.243
20377SOL    HW272786   9.853   1.106   1.357
20378SOL     OW72787   5.839   8.671   6.800
20378SOL    HW172788   5.809   8.601   6.735
20378SOL    HW272789   5.931   8.701   6.777
20379SOL     OW72790   1.243   0.893   5.876
20379SOL    HW172791   1.304   0.966   5.846
20379SOL    HW272792   1.215   0.910   5.970
20380SOL     OW72793   1.385   7.435   2.635
20380SOL    HW172794   1.391   7.340   2.603
20380SOL    HW272795   1.417   7.496   2.562
20381SOL     OW72796   4.105   4.175   7.337
20381SOL    HW172797   4.045   4.212   7.267
20381SOL    HW272798   4.065   4.092   7.375
20382SOL     OW72799   9.429   5.180   4.708
20382SOL    HW172800   9.360   5.247   4.735
20382SOL    HW272801   9.385   5.093   4.686
20383SOL     OW72802   1.478   1.095   6.188
20383SOL    HW172803   1.383   1.083   6.162
20383SOL    HW272804   1.497   1.045   6.272
20384SOL     OW72805   2.928   4.810   2.408
20384SOL    HW172806   3.009   4.864   2.429
20384SOL    HW272807   2.856   4.833   2.473
20385SOL     OW72808   0.900   6.632   0.025
20385SOL    HW172809   0.982   6.660   0.075
20385SOL    HW272810   0.822   6.627   0.089
20386SOL     OW72811   7.675   1.371   7.705
20386SOL    HW172812   7.658   1.293   7.645
20386SOL    HW272813   7.773   1.387   7.714
20387SOL     OW72814   2.490   8.814   7.818
20387SOL    HW172815   2.580   8.821   7.775
20387SOL    HW272816   2.498   8.833   7.916
20388SOL     OW72817   0.525   2.656   0.809
20388SOL    HW172818   0.442   2.649   0.753
20388SOL    HW272819   0.505   2.710   0.891
20389SOL     OW72820   9.607   5.720   5.588
20389SOL    HW172821   9.513   5.712   5.554
20389SOL    HW272822   9.628   5.644   5.649
20390SOL     OW72823   6.625   0.286   3.672
20390SOL    HW172824   6.719   0.303   3.702
20390SOL    HW272825   6.602   0.350   3.599
20391SOL     OW72826   6.153   3.943   1.943
20391SOL    HW172827   6.235   3.988   1.909
20391SOL    HW272828   6.072   3.985   1.900
20392SOL     OW72829   2.205   2.832   2.305
20392SOL    HW172830   2.206   2.923   2.345
20392SOL    HW272831   2.135   2.776   2.349
20393SOL     OW72832   4.184   0.262   7.549
20393SOL    HW172833   4.248   0.304   7.485
20393SOL    HW272834   4.115   0.210   7.498
20394SOL     OW72835   5.363   8.930   2.698
20394SOL    HW172836   5.379   8.985   2.779
20394SOL    HW272837   5.382   8.984   2.616
20395SOL     OW72838   8.543   7.962   0.385
20395SOL    HW172839   8.576   7.876   0.424
20395SOL    HW272840   8.444   7.960   0.378
20396SOL     OW72841   7.467   6.776   3.452
20396SOL    HW172842   7.383   6.725   3.434
20396SOL    HW272843   7.540   6.712   3.479
20397SOL     OW72844   1.137   8.081   0.072
20397SOL    HW172845   1.088   8.005   0.114
20397SOL    HW272846   1.137   8.070  10.054
20398SOL     OW72847   8.381   6.721   1.916
20398SOL    HW172848   8.433   6.799   1.950
20398SOL    HW272849   8.304   6.754   1.862
20399SOL     OW72850   9.745   7.313   7.729
20399SOL    HW172851   9.720   7.403   7.693
20399SOL    HW272852   9.705   7.242   7.672
20400SOL     OW72853   1.580   4.374   0.094
20400SOL    HW172854   1.547   4.323   0.014
20400SOL    HW272855   1.522   4.454   0.109
20401SOL     OW72856   0.247   5.304   5.698
20401SOL    HW172857   0.301   5.222   5.677
20401SOL    HW272858   0.282   5.381   5.645
20402SOL     OW72859   9.998   3.775   2.069
20402SOL    HW172860   0.030   3.868   2.087
20402SOL    HW272861   9.965   3.768   1.975
20403SOL     OW72862   7.495   3.577   7.727
20403SOL    HW172863   7.476   3.577   7.629
20403SOL    HW272864   7.516   3.670   7.756
20404SOL     OW72865   3.519   1.518   1.598
20404SOL    HW172866   3.450   1.450   1.572
20404SOL    HW272867   3.530   1.583   1.523
20405SOL     OW72868   3.062   0.597   0.354
20405SOL    HW172869   3.127   0.521   0.354
20405SOL    HW272870   2.976   0.567   0.396
20406SOL     OW72871   7.033   4.245   1.277
20406SOL    HW172872   7.077   4.299   1.348
20406SOL    HW272873   7.075   4.266   1.188
20407SOL     OW72874   3.739   2.582   4.435
20407SOL    HW172875   3.723   2.539   4.523
20407SOL    HW272876   3.753   2.512   4.365
20408SOL     OW72877   7.428   2.960   2.800
20408SOL    HW172878   7.439   2.958   2.701
20408SOL    HW272879   7.370   2.883   2.829
20409SOL     OW72880   9.646   3.377   5.219
20409SOL    HW172881   9.627   3.302   5.156
20409SOL    HW272882   9.686   3.453   5.168
20410SOL     OW72883   4.435   4.619   7.121
20410SOL    HW172884   4.458   4.574   7.207
20410SOL    HW272885   4.336   4.632   7.117
20411SOL     OW72886   4.690   6.704   1.515
20411SOL    HW172887   4.646   6.794   1.517
20411SOL    HW272888   4.695   6.668   1.608
20412SOL     OW72889   2.064   5.033   5.275
20412SOL    HW172890   2.114   4.946   5.282
20412SOL    HW272891   2.017   5.051   5.361
20413SOL     OW72892   9.859   3.013   6.237
20413SOL    HW172893   9.951   3.037   6.206
20413SOL    HW272894   9.814   2.958   6.167
20414SOL     OW72895   3.701   9.297   3.081
20414SOL    HW172896   3.680   9.394   3.070
20414SOL    HW272897   3.773   9.285   3.150
20415SOL     OW72898   3.659   7.806   7.951
20415SOL    HW172899   3.743   7.854   7.926
20415SOL    HW272900   3.637   7.825   8.047
20416SOL     OW72901   8.618   9.687   7.374
20416SOL    HW172902   8.574   9.680   7.463
20416SOL    HW272903   8.717   9.691   7.385
20417SOL     OW72904   8.247   5.797   2.288
20417SOL    HW172905   8.196   5.711   2.302
20417SOL    HW272906   8.182   5.872   2.274
20418SOL     OW72907   0.230   1.134   2.673
20418SOL    HW172908   0.227   1.133   2.773
20418SOL    HW272909   0.136   1.137   2.637
20419SOL     OW72910   2.314   2.837   3.107
20419SOL    HW172911   2.281   2.839   3.201
20419SOL    HW272912   2.410   2.807   3.106
20420SOL     OW72913   6.568   5.416   1.051
20420SOL    HW172914   6.551   5.344   0.984
20420SOL    HW272915   6.666   5.434   1.058
20421SOL     OW72916   2.600   5.315   3.243
20421SOL    HW172917   2.553   5.270   3.166
20421SOL    HW272918   2.573   5.411   3.247
20422SOL     OW72919   4.375   0.448   5.913
20422SOL    HW172920   4.375   0.460   6.012
20422SOL    HW272921   4.463   0.477   5.876
20423SOL     OW72922   2.355   4.509   7.211
20423SOL    HW172923   2.353   4.591   7.268
20423SOL    HW272924   2.266   4.495   7.169
20424SOL     OW72925   6.123   9.068   7.572
20424SOL    HW172926   6.079   9.096   7.487
20424SOL    HW272927   6.091   9.126   7.647
20425SOL     OW72928   3.089   8.491   3.557
20425SOL    HW172929   3.061   8.562   3.623
20425SOL    HW272930   3.114   8.534   3.471
20426SOL     OW72931   8.579   3.381   2.163
20426SOL    HW172932   8.533   3.386   2.074
20426SOL    HW272933   8.521   3.330   2.227
20427SOL     OW72934   7.427   5.643   2.393
20427SOL    HW172935   7.380   5.561   2.360
20427SOL    HW272936   7.419   5.648   2.493
20428SOL     OW72937   0.528   8.306   0.824
20428SOL    HW172938   0.627   8.305   0.813
20428SOL    HW272939   0.494   8.399   0.815
20429SOL     OW72940   0.138   2.995   3.562
20429SOL    HW172941   0.177   3.086   3.574
20429SOL    HW272942   0.121   2.978   3.465
20430SOL     OW72943   1.870   0.819   6.089
20430SOL    HW172944   1.829   0.776   6.170
20430SOL    HW272945   1.926   0.751   6.041
20431SOL     OW72946   5.742   0.485   7.678
20431SOL    HW172947   5.781   0.576   7.662
20431SOL    HW272948   5.732   0.469   7.776
20432SOL     OW72949   9.788   4.865   1.009
20432SOL    HW172950   9.772   4.934   0.938
20432SOL    HW272951   9.847   4.902   1.080
20433SOL     OW72952   4.833   2.584   1.067
20433SOL    HW172953   4.845   2.517   1.140
20433SOL    HW272954   4.862   2.544   0.980
20434SOL     OW72955   3.452   9.482   7.221
20434SOL    HW172956   3.399   9.460   7.139
20434SOL    HW272957   3.548   9.459   7.205
20435SOL     OW72958   4.823   3.901   0.271
20435SOL    HW172959   4.799   3.805   0.279
20435SOL    HW272960   4.740   3.957   0.282
20436SOL     OW72961   1.551   0.643   5.979
20436SOL    HW172962   1.611   0.566   6.002
20436SOL    HW272963   1.520   0.688   6.062
20437SOL     OW72964   1.543   9.094   2.347
20437SOL    HW172965   1.505   9.020   2.401
20437SOL    HW272966   1.477   9.169   2.341
20438SOL     OW72967   1.426   7.325   6.070
20438SOL    HW172968   1.441   7.423   6.087
20438SOL    HW272969   1.330   7.303   6.083
20439SOL     OW72970   1.757   6.231   6.260
20439SOL    HW172971   1.823   6.274   6.198
20439SOL    HW272972   1.743   6.290   6.340
20440SOL     OW72973   8.678   9.350   3.935
20440SOL    HW172974   8.748   9.283   3.911
20440SOL    HW272975   8.638   9.327   4.024
20441SOL     OW72976   9.513   8.164   6.231
20441SOL    HW172977   9.417   8.176   6.254
20441SOL    HW272978   9.533   8.066   6.223
20442SOL     OW72979   3.377   5.926   1.491
20442SOL    HW172980   3.295   5.961   1.535
20442SOL    HW272981   3.366   5.931   1.392
20443SOL     OW72982   9.361   3.308   0.702
20443SOL    HW172983   9.278   3.332   0.752
20443SOL    HW272984   9.412   3.239   0.753
20444SOL     OW72985   1.320   3.244   3.333
20444SOL    HW172986   1.389   3.255   3.404
20444SOL    HW272987   1.328   3.152   3.294
20445SOL     OW72988   8.083   5.828   1.329
20445SOL    HW172989   7.985   5.829   1.349
20445SOL    HW272990   8.112   5.919   1.300
20446SOL     OW72991   2.842   9.808   5.239
20446SOL    HW172992   2.924   9.839   5.191
20446SOL    HW272993   2.790   9.747   5.179
20447SOL     OW72994   2.302   2.336   2.318
20447SOL    HW172995   2.246   2.374   2.245
20447SOL    HW272996   2.248   2.331   2.402
20448SOL     OW72997   0.475   1.013   2.693
20448SOL    HW172998   0.495   1.027   2.790
20448SOL    HW272999   0.386   1.054   2.672
20449SOL     OW73000   0.303   8.567   3.498
20449SOL    HW173001   0.307   8.523   3.409
20449SOL    HW273002   0.327   8.664   3.489
20450SOL     OW73003   0.385   7.391   3.882
20450SOL    HW173004   0.324   7.407   3.805
20450SOL    HW273005   0.355   7.308   3.931
20451SOL     OW73006   2.103   6.824   1.031
20451SOL    HW173007   2.087   6.726   1.044
20451SOL    HW273008   2.132   6.865   1.117
20452SOL     OW73009   4.686   9.158   4.607
20452SOL    HW173010   4.716   9.130   4.699
20452SOL    HW273011   4.735   9.241   4.580
20453SOL     OW73012   3.728   2.425   0.909
20453SOL    HW173013   3.780   2.434   0.994
20453SOL    HW273014   3.645   2.372   0.926
20454SOL     OW73015   9.694   5.572   7.902
20454SOL    HW173016   9.599   5.543   7.920
20454SOL    HW273017   9.695   5.639   7.828
20455SOL     OW73018   0.850   3.754   3.165
20455SOL    HW173019   0.920   3.823   3.146
20455SOL    HW273020   0.850   3.734   3.263
20456SOL     OW73021   3.974   6.540   2.720
20456SOL    HW173022   4.018   6.457   2.754
20456SOL    HW273023   3.943   6.525   2.626
20457SOL     OW73024   2.071   0.564   6.042
20457SOL    HW173025   2.163   0.560   6.081
20457SOL    HW273026   2.071   0.520   5.952
20458SOL     OW73027   2.333   5.999   2.631
20458SOL    HW173028   2.387   5.921   2.662
20458SOL    HW273029   2.360   6.081   2.682
20459SOL     OW73030   2.466   4.027   3.446
20459SOL    HW173031   2.416   3.953   3.401
20459SOL    HW273032   2.402   4.096   3.479
20460SOL     OW73033   7.030   0.043   2.594
20460SOL    HW173034   7.084   0.036   2.678
20460SOL    HW273035   7.017   0.139   2.571
20461SOL     OW73036   1.399   9.912   6.955
20461SOL    HW173037   1.364   0.001   6.985
20461SOL    HW273038   1.423   9.917   6.858
20462SOL     OW73039   0.943   1.740   5.435
20462SOL    HW173040   0.960   1.692   5.521
20462SOL    HW273041   0.986   1.689   5.360
20463SOL     OW73042   7.378   5.739   0.609
20463SOL    HW173043   7.331   5.812   0.658
20463SOL    HW273044   7.439   5.779   0.540
20464SOL     OW73045   9.219   5.246   5.069
20464SOL    HW173046   9.262   5.156   5.071
20464SOL    HW273047   9.225   5.288   5.159
20465SOL     OW73048   3.640   8.577   3.545
20465SOL    HW173049   3.722   8.632   3.533
20465SOL    HW273050   3.665   8.481   3.562
20466SOL     OW73051   9.094   4.611   5.476
20466SOL    HW173052   9.139   4.636   5.390
20466SOL    HW273053   9.010   4.664   5.486
20467SOL     OW73054   4.158   6.308   1.850
20467SOL    HW173055   4.114   6.232   1.897
20467SOL    HW273056   4.225   6.351   1.911
20468SOL     OW73057   1.023   6.253   7.300
20468SOL    HW173058   0.994   6.303   7.382
20468SOL    HW273059   1.003   6.307   7.219
20469SOL     OW73060   7.745   2.160   1.250
20469SOL    HW173061   7.807   2.108   1.308
20469SOL    HW273062   7.798   2.220   1.190
20470SOL     OW73063   2.910   7.442   1.967
20470SOL    HW173064   2.857   7.452   1.883
20470SOL    HW273065   3.001   7.408   1.944
20471SOL     OW73066   1.143   1.081   5.409
20471SOL    HW173067   1.170   1.168   5.369
20471SOL    HW273068   1.071   1.040   5.353
20472SOL     OW73069   2.821   2.129   2.730
20472SOL    HW173070   2.738   2.183   2.721
20472SOL    HW273071   2.808   2.040   2.686
20473SOL     OW73072   2.402   6.345   5.772
20473SOL    HW173073   2.486   6.373   5.817
20473SOL    HW273074   2.376   6.414   5.704
20474SOL     OW73075   9.431   3.581   4.662
20474SOL    HW173076   9.335   3.605   4.646
20474SOL    HW273077   9.443   3.553   4.757
20475SOL     OW73078   5.864   4.770   0.167
20475SOL    HW173079   5.908   4.833   0.103
20475SOL    HW273080   5.794   4.717   0.119
20476SOL     OW73081   8.795   9.170   7.034
20476SOL    HW173082   8.866   9.135   7.095
20476SOL    HW273083   8.710   9.120   7.051
20477SOL     OW73084   7.866   3.707   4.596
20477SOL    HW173085   7.874   3.670   4.504
20477SOL    HW273086   7.793   3.660   4.645
20478SOL     OW73087   2.066   1.577   0.939
20478SOL    HW173088   1.988   1.638   0.927
20478SOL    HW273089   2.145   1.630   0.970
20479SOL     OW73090   1.642   4.553   5.101
20479SOL    HW173091   1.693   4.629   5.141
20479SOL    HW273092   1.592   4.505   5.173
20480SOL     OW73093   2.099   5.378   2.086
20480SOL    HW173094   2.055   5.381   1.997
20480SOL    HW273095   2.033   5.405   2.157
20481SOL     OW73096   1.642   9.272   6.483
20481SOL    HW173097   1.688   9.294   6.569
20481SOL    HW273098   1.673   9.335   6.412
20482SOL     OW73099   8.217   9.660   4.498
20482SOL    HW173100   8.249   9.586   4.557
20482SOL    HW273101   8.137   9.629   4.445
20483SOL     OW73102   6.109   8.776   7.160
20483SOL    HW173103   6.074   8.757   7.252
20483SOL    HW273104   6.032   8.787   7.097
20484SOL     OW73105   5.204   4.182   0.422
20484SOL    HW173106   5.215   4.275   0.385
20484SOL    HW273107   5.157   4.125   0.355
20485SOL     OW73108   9.908   6.325   1.941
20485SOL    HW173109   9.898   6.232   1.976
20485SOL    HW273110   9.931   6.387   2.016
20486SOL     OW73111   3.120   4.517   3.922
20486SOL    HW173112   3.199   4.574   3.900
20486SOL    HW273113   3.036   4.568   3.905
20487SOL     OW73114   3.949   5.792   0.772
20487SOL    HW173115   3.958   5.793   0.872
20487SOL    HW273116   4.037   5.811   0.730
20488SOL     OW73117   4.251   6.232   0.311
20488SOL    HW173118   4.186   6.256   0.383
20488SOL    HW273119   4.217   6.153   0.260
20489SOL     OW73120   2.649   0.825   4.580
20489SOL    HW173121   2.591   0.858   4.654
20489SOL    HW273122   2.722   0.891   4.562
20490SOL     OW73123   8.741   9.385   7.198
20490SOL    HW173124   8.772   9.472   7.162
20490SOL    HW273125   8.764   9.312   7.134
20491SOL     OW73126   6.553   1.484   0.335
20491SOL    HW173127   6.483   1.420   0.304
20491SOL    HW273128   6.624   1.433   0.385
20492SOL     OW73129   4.988   9.594   3.133
20492SOL    HW173130   5.009   9.535   3.211
20492SOL    HW273131   5.017   9.549   3.049
20493SOL     OW73132   3.593   4.543   0.757
20493SOL    HW173133   3.503   4.524   0.719
20493SOL    HW273134   3.646   4.458   0.761
20494SOL     OW73135   8.942   9.453   0.410
20494SOL    HW173136   8.874   9.522   0.436
20494SOL    HW273137   8.897   9.364   0.401
20495SOL     OW73138   8.528   6.167   1.039
20495SOL    HW173139   8.524   6.252   0.986
20495SOL    HW273140   8.461   6.103   1.002
20496SOL     OW73141   2.729   7.259   7.289
20496SOL    HW173142   2.669   7.221   7.219
20496SOL    HW273143   2.717   7.208   7.374
20497SOL     OW73144   2.969   4.951   3.015
20497SOL    HW173145   2.875   4.934   2.984
20497SOL    HW273146   3.006   4.868   3.056
20498SOL     OW73147   9.011   1.538   6.819
20498SOL    HW173148   9.005   1.442   6.848
20498SOL    HW273149   9.105   1.569   6.829
20499SOL     OW73150   2.408   5.844   5.062
20499SOL    HW173151   2.401   5.923   5.124
20499SOL    HW273152   2.489   5.791   5.085
20500SOL     OW73153   4.351   0.578   0.732
20500SOL    HW173154   4.328   0.579   0.830
20500SOL    HW273155   4.445   0.546   0.720
20501SOL     OW73156   0.008   7.259   1.239
20501SOL    HW173157   0.026   7.350   1.200
20501SOL    HW273158   9.943   7.211   1.181
20502SOL     OW73159   1.122   8.415   3.360
20502SOL    HW173160   1.051   8.367   3.411
20502SOL    HW273161   1.082   8.453   3.276
20503SOL     OW73162   8.215   4.666   2.800
20503SOL    HW173163   8.186   4.649   2.705
20503SOL    HW273164   8.308   4.703   2.800
20504SOL     OW73165   6.167   9.263   3.696
20504SOL    HW173166   6.146   9.299   3.606
20504SOL    HW273167   6.172   9.338   3.762
20505SOL     OW73168   9.227   6.954   7.678
20505SOL    HW173169   9.157   6.962   7.749
20505SOL    HW273170   9.318   6.956   7.720
20506SOL     OW73171   6.945   7.303   4.071
20506SOL    HW173172   7.028   7.260   4.107
20506SOL    HW273173   6.936   7.281   3.974
20507SOL     OW73174   9.986   6.787   2.343
20507SOL    HW173175   0.057   6.823   2.281
20507SOL    HW273176   9.897   6.794   2.299
20508SOL     OW73177   4.073   2.297   2.539
20508SOL    HW173178   4.035   2.208   2.512
20508SOL    HW273179   4.036   2.368   2.480
20509SOL     OW73180   7.362   4.338   0.387
20509SOL    HW173181   7.264   4.323   0.401
20509SOL    HW273182   7.384   4.434   0.402
20510SOL     OW73183   2.839   6.331   2.222
20510SOL    HW173184   2.879   6.365   2.307
20510SOL    HW273185   2.804   6.238   2.236
20511SOL     OW73186   8.237   5.162   4.431
20511SOL    HW173187   8.325   5.117   4.413
20511SOL    HW273188   8.221   5.166   4.530
20512SOL     OW73189   5.325   8.197   3.009
20512SOL    HW173190   5.365   8.238   3.091
20512SOL    HW273191   5.397   8.182   2.941
20513SOL     OW73192   9.522   9.048   2.061
20513SOL    HW173193   9.613   9.044   2.103
20513SOL    HW273194   9.461   9.100   2.121
20514SOL     OW73195   5.807   8.360   5.095
20514SOL    HW173196   5.808   8.353   5.194
20514SOL    HW273197   5.715   8.339   5.061
20515SOL     OW73198   8.423   7.162   0.524
20515SOL    HW173199   8.507   7.123   0.562
20515SOL    HW273200   8.388   7.233   0.585
20516SOL     OW73201   9.608   5.292   7.595
20516SOL    HW173202   9.666   5.273   7.674
20516SOL    HW273203   9.576   5.387   7.600
20517SOL     OW73204   1.670   1.939   3.728
20517SOL    HW173205   1.641   1.852   3.689
20517SOL    HW273206   1.741   1.980   3.671
20518SOL     OW73207   5.028   1.119   4.879
20518SOL    HW173208   5.004   1.041   4.822
20518SOL    HW273209   5.006   1.098   4.974
20519SOL     OW73210   2.790   1.533   2.286
20519SOL    HW173211   2.879   1.567   2.316
20519SOL    HW273212   2.736   1.610   2.251
20520SOL     OW73213   4.444   6.727   0.120
20520SOL    HW173214   4.543   6.724   0.105
20520SOL    HW273215   4.409   6.634   0.128
20521SOL     OW73216   5.579   8.141   4.774
20521SOL    HW173217   5.648   8.069   4.774
20521SOL    HW273218   5.511   8.121   4.703
20522SOL     OW73219   8.184   4.705   3.106
20522SOL    HW173220   8.174   4.705   3.007
20522SOL    HW273221   8.101   4.669   3.148
20523SOL     OW73222   9.241   5.745   3.824
20523SOL    HW173223   9.339   5.725   3.830
20523SOL    HW273224   9.207   5.771   3.915
20524SOL     OW73225   9.731   9.885   7.762
20524SOL    HW173226   9.696   9.953   7.697
20524SOL    HW273227   9.724   9.922   7.855
20525SOL     OW73228   9.552   1.984   3.658
20525SOL    HW173229   9.473   1.966   3.599
20525SOL    HW273230   9.549   2.079   3.688
20526SOL     OW73231   2.348   5.350   2.204
20526SOL    HW173232   2.253   5.360   2.174
20526SOL    HW273233   2.406   5.334   2.124
20527SOL     OW73234   7.605   5.739   3.359
20527SOL    HW173235   7.626   5.715   3.264
20527SOL    HW273236   7.530   5.682   3.393
20528SOL     OW73237   8.876   3.699   3.383
20528SOL    HW173238   8.905   3.605   3.362
20528SOL    HW273239   8.777   3.703   3.390
20529SOL     OW73240   8.728   4.503   1.509
20529SOL    HW173241   8.750   4.435   1.579
20529SOL    HW273242   8.653   4.470   1.452
20530SOL     OW73243   7.021   2.074   5.161
20530SOL    HW173244   7.019   2.013   5.240
20530SOL    HW273245   6.968   2.033   5.087
20531SOL     OW73246   7.062   2.323   2.049
20531SOL    HW173247   6.988   2.338   1.982
20531SOL    HW273248   7.149   2.314   2.001
20532SOL     OW73249   0.444   7.024   6.139
20532SOL    HW173250   0.367   7.079   6.171
20532SOL    HW273251   0.501   6.996   6.216
20533SOL     OW73252   5.377   0.663   7.356
20533SOL    HW173253   5.309   0.719   7.403
20533SOL    HW273254   5.419   0.600   7.422
20534SOL     OW73255   0.782   4.788   1.475
20534SOL    HW173256   0.718   4.855   1.438
20534SOL    HW273257   0.808   4.724   1.403
20535SOL     OW73258   1.096   4.360   0.452
20535SOL    HW173259   1.141   4.277   0.484
20535SOL    HW273260   1.055   4.408   0.529
20536SOL     OW73261   0.625   0.420   2.407
20536SOL    HW173262   0.634   0.370   2.493
20536SOL    HW273263   0.704   0.479   2.394
20537SOL     OW73264   2.943   5.221   0.092
20537SOL    HW173265   2.894   5.244   0.177
20537SOL    HW273266   2.966   5.305   0.043
20538SOL     OW73267   7.193   0.648   1.357
20538SOL    HW173268   7.207   0.730   1.413
20538SOL    HW273269   7.096   0.627   1.351
20539SOL     OW73270   1.932   3.197   7.080
20539SOL    HW173271   1.925   3.135   7.158
20539SOL    HW273272   2.028   3.206   7.052
20540SOL     OW73273   7.540   0.174   3.571
20540SOL    HW173274   7.505   0.081   3.585
20540SOL    HW273275   7.472   0.240   3.603
20541SOL     OW73276   0.059   1.641   2.966
20541SOL    HW173277   0.089   1.546   2.968
20541SOL    HW273278   0.136   1.699   2.938
20542SOL     OW73279   8.653   1.809   4.890
20542SOL    HW173280   8.608   1.789   4.978
20542SOL    HW273281   8.739   1.759   4.884
20543SOL     OW73282   2.311   0.460   3.446
20543SOL    HW173283   2.324   0.556   3.421
20543SOL    HW273284   2.311   0.452   3.546
20544SOL     OW73285   0.021   4.505   3.847
20544SOL    HW173286   9.937   4.557   3.865
20544SOL    HW273287   0.068   4.546   3.769
20545SOL     OW73288   8.284   4.697   1.462
20545SOL    HW173289   8.288   4.618   1.402
20545SOL    HW273290   8.365   4.753   1.450
20546SOL     OW73291   5.123   8.364   4.157
20546SOL    HW173292   5.042   8.306   4.164
20546SOL    HW273293   5.156   8.386   4.249
20547SOL     OW73294   0.743   8.560   5.412
20547SOL    HW173295   0.754   8.465   5.384
20547SOL    HW273296   0.667   8.568   5.476
20548SOL     OW73297   8.925   0.159   4.262
20548SOL    HW173298   8.895   0.075   4.307
20548SOL    HW273299   8.854   0.229   4.273
20549SOL     OW73300   3.799   5.849   7.420
20549SOL    HW173301   3.819   5.775   7.356
20549SOL    HW273302   3.850   5.930   7.393
20550SOL     OW73303   7.260   4.131   7.362
20550SOL    HW173304   7.232   4.222   7.330
20550SOL    HW273305   7.181   4.084   7.403
20551SOL     OW73306   6.870   3.522   2.005
20551SOL    HW173307   6.881   3.592   1.935
20551SOL    HW273308   6.912   3.437   1.975
20552SOL     OW73309   9.823   0.032   4.497
20552SOL    HW173310   9.803   0.029   4.595
20552SOL    HW273311   9.858   0.123   4.473
20553SOL     OW73312   4.600   5.349   4.444
20553SOL    HW173313   4.617   5.332   4.347
20553SOL    HW273314   4.638   5.439   4.469
20554SOL     OW73315   9.051   0.779   4.169
20554SOL    HW173316   9.104   0.825   4.098
20554SOL    HW273317   8.966   0.745   4.131
20555SOL     OW73318   4.311   5.822   7.847
20555SOL    HW173319   4.349   5.738   7.885
20555SOL    HW273320   4.220   5.804   7.809
20556SOL     OW73321   4.523   8.276   4.525
20556SOL    HW173322   4.436   8.290   4.478
20556SOL    HW273323   4.569   8.196   4.486
20557SOL     OW73324   0.897   6.145   2.384
20557SOL    HW173325   0.815   6.162   2.440
20557SOL    HW273326   0.949   6.070   2.424
20558SOL     OW73327   9.357   7.806   5.488
20558SOL    HW173328   9.404   7.854   5.561
20558SOL    HW273329   9.422   7.749   5.437
20559SOL     OW73330   2.331   8.937   4.707
20559SOL    HW173331   2.348   9.014   4.768
20559SOL    HW273332   2.246   8.891   4.735
20560SOL     OW73333   1.677   9.748   0.391
20560SOL    HW173334   1.733   9.829   0.408
20560SOL    HW273335   1.592   9.775   0.346
20561SOL     OW73336   1.117   2.998   4.224
20561SOL    HW173337   1.096   2.932   4.152
20561SOL    HW273338   1.046   3.069   4.226
20562SOL     OW73339   0.817   6.981   1.850
20562SOL    HW173340   0.778   7.047   1.914
20562SOL    HW273341   0.917   6.978   1.862
20563SOL     OW73342   0.127   7.272   6.475
20563SOL    HW173343   0.152   7.361   6.435
20563SOL    HW273344   0.128   7.280   6.575
20564SOL     OW73345   1.614   0.167   6.749
20564SOL    HW173346   1.577   0.258   6.770
20564SOL    HW273347   1.539   0.104   6.731
20565SOL     OW73348   7.086   5.463   1.731
20565SOL    HW173349   7.076   5.366   1.749
20565SOL    HW273350   7.007   5.496   1.678
20566SOL     OW73351   1.498   8.391   0.495
20566SOL    HW173352   1.461   8.303   0.466
20566SOL    HW273353   1.595   8.396   0.472
20567SOL     OW73354   7.829   1.212   5.518
20567SOL    HW173355   7.815   1.195   5.421
20567SOL    HW273356   7.746   1.251   5.558
20568SOL     OW73357   9.060   0.784   6.937
20568SOL    HW173358   9.005   0.760   6.858
20568SOL    HW273359   9.000   0.811   7.013
20569SOL     OW73360   6.986   4.832   2.477
20569SOL    HW173361   6.957   4.829   2.573
20569SOL    HW273362   7.083   4.858   2.473
20570SOL     OW73363   1.231   6.849   6.337
20570SOL    HW173364   1.168   6.790   6.287
20570SOL    HW273365   1.228   6.827   6.435
20571SOL     OW73366   7.104   7.362   6.510
20571SOL    HW173367   7.038   7.356   6.435
20571SOL    HW273368   7.197   7.364   6.472
20572SOL     OW73369   0.196   2.760   1.592
20572SOL    HW173370   0.252   2.831   1.549
20572SOL    HW273371   0.255   2.700   1.647
20573SOL     OW73372   1.139   9.185   6.559
20573SOL    HW173373   1.173   9.098   6.593
20573SOL    HW273374   1.053   9.171   6.511
20574SOL     OW73375   1.348   6.643   2.582
20574SOL    HW173376   1.266   6.694   2.556
20574SOL    HW273377   1.428   6.701   2.567
20575SOL     OW73378   5.511   1.970   5.214
20575SOL    HW173379   5.496   2.002   5.121
20575SOL    HW273380   5.513   1.870   5.216
20576SOL     OW73381   3.885   1.882   3.108
20576SOL    HW173382   3.817   1.819   3.144
20576SOL    HW273383   3.843   1.941   3.040
20577SOL     OW73384   7.660   6.334   4.578
20577SOL    HW173385   7.596   6.324   4.654
20577SOL    HW273386   7.677   6.244   4.536
20578SOL     OW73387   9.692   1.093   4.414
20578SOL    HW173388   9.736   1.155   4.350
20578SOL    HW273389   9.717   0.999   4.393
20579SOL     OW73390   9.061   0.945   5.779
20579SOL    HW173391   8.962   0.931   5.768
20579SOL    HW273392   9.110   0.888   5.714
20580SOL     OW73393   1.162   8.608   2.985
20580SOL    HW173394   1.095   8.584   3.055
20580SOL    HW273395   1.115   8.656   2.910
20581SOL     OW73396   2.208   2.615   0.508
20581SOL    HW173397   2.145   2.538   0.498
20581SOL    HW273398   2.157   2.695   0.540
20582SOL     OW73399   9.615   8.883   0.351
20582SOL    HW173400   9.703   8.894   0.397
20582SOL    HW273401   9.606   8.953   0.280
20583SOL     OW73402   4.304   5.201   1.998
20583SOL    HW173403   4.336   5.141   1.924
20583SOL    HW273404   4.232   5.155   2.050
20584SOL     OW73405   9.823   3.900   4.173
20584SOL    HW173406   9.737   3.854   4.197
20584SOL    HW273407   9.807   3.998   4.166
20585SOL     OW73408   9.829   6.766   2.819
20585SOL    HW173409   9.857   6.813   2.735
20585SOL    HW273410   9.869   6.675   2.821
20586SOL     OW73411   4.631   1.860   0.206
20586SOL    HW173412   4.724   1.895   0.200
20586SOL    HW273413   4.573   1.928   0.251
20587SOL     OW73414   9.441   1.804   5.655
20587SOL    HW173415   9.354   1.755   5.661
20587SOL    HW273416   9.503   1.754   5.593
20588SOL     OW73417   0.889   8.417   4.693
20588SOL    HW173418   0.944   8.469   4.627
20588SOL    HW273419   0.874   8.474   4.775
20589SOL     OW73420   2.190   4.227   5.697
20589SOL    HW173421   2.193   4.166   5.777
20589SOL    HW273422   2.162   4.175   5.616
20590SOL     OW73423   3.631   5.473   0.503
20590SOL    HW173424   3.536   5.449   0.521
20590SOL    HW273425   3.676   5.501   0.588
20591SOL     OW73426   9.894   6.235   0.943
20591SOL    HW173427   9.858   6.238   0.850
20591SOL    HW273428   9.844   6.301   1.000
20592SOL     OW73429   9.345   0.095   7.390
20592SOL    HW173430   9.438   0.131   7.380
20592SOL    HW273431   9.281   0.153   7.340
20593SOL     OW73432   8.423   2.474   5.069
20593SOL    HW173433   8.412   2.375   5.079
20593SOL    HW273434   8.462   2.511   5.154
20594SOL     OW73435   4.704   0.753   5.744
20594SOL    HW173436   4.651   0.838   5.749
20594SOL    HW273437   4.791   0.771   5.697
20595SOL     OW73438   5.779   9.018   6.518
20595SOL    HW173439   5.877   8.998   6.519
20595SOL    HW273440   5.727   8.933   6.526
20596SOL     OW73441   8.572   1.866   6.056
20596SOL    HW173442   8.592   1.777   6.016
20596SOL    HW273443   8.651   1.926   6.046
20597SOL     OW73444   4.212   0.137   5.309
20597SOL    HW173445   4.268   0.166   5.231
20597SOL    HW273446   4.263   0.072   5.364
20598SOL     OW73447   7.307   2.222   3.361
20598SOL    HW173448   7.295   2.125   3.337
20598SOL    HW273449   7.370   2.230   3.438
20599SOL     OW73450   4.105   4.832   6.253
20599SOL    HW173451   4.166   4.766   6.209
20599SOL    HW273452   4.017   4.833   6.204
20600SOL     OW73453   3.845   2.654   2.965
20600SOL    HW173454   3.859   2.646   3.064
20600SOL    HW273455   3.783   2.581   2.935
20601SOL     OW73456   0.343   3.264   7.335
20601SOL    HW173457   0.383   3.175   7.357
20601SOL    HW273458   0.243   3.256   7.336
20602SOL     OW73459   7.256   0.745   1.868
20602SOL    HW173460   7.167   0.707   1.841
20602SOL    HW273461   7.269   0.833   1.823
20603SOL     OW73462   4.817   2.566   4.999
20603SOL    HW173463   4.747   2.528   4.939
20603SOL    HW273464   4.781   2.645   5.047
20604SOL     OW73465   1.902   2.224   7.048
20604SOL    HW173466   1.876   2.286   7.122
20604SOL    HW273467   1.837   2.234   6.972
20605SOL     OW73468   1.517   1.441   3.354
20605SOL    HW173469   1.533   1.540   3.352
20605SOL    HW273470   1.460   1.415   3.276
20606SOL     OW73471   4.593   3.718   6.703
20606SOL    HW173472   4.539   3.705   6.619
20606SOL    HW273473   4.553   3.665   6.777
20607SOL     OW73474   1.823   7.323   7.849
20607SOL    HW173475   1.729   7.300   7.872
20607SOL    HW273476   1.824   7.379   7.766
20608SOL     OW73477   7.146   8.082   2.308
20608SOL    HW173478   7.049   8.099   2.322
20608SOL    HW273479   7.160   8.048   2.214
20609SOL     OW73480   5.100   9.605   6.672
20609SOL    HW173481   5.177   9.642   6.619
20609SOL    HW273482   5.112   9.507   6.684
20610SOL     OW73483   1.487   7.490   1.891
20610SOL    HW173484   1.391   7.514   1.882
20610SOL    HW273485   1.495   7.398   1.929
20611SOL     OW73486   1.072   3.308   3.430
20611SOL    HW173487   1.161   3.288   3.389
20611SOL    HW273488   1.002   3.310   3.358
20612SOL     OW73489   3.316   8.001   0.763
20612SOL    HW173490   3.284   7.992   0.857
20612SOL    HW273491   3.412   8.032   0.763
20613SOL     OW73492   1.989   7.912   4.619
20613SOL    HW173493   1.985   7.993   4.560
20613SOL    HW273494   2.019   7.833   4.565
20614SOL     OW73495   3.463   2.894   5.355
20614SOL    HW173496   3.464   2.837   5.437
20614SOL    HW273497   3.447   2.836   5.274
20615SOL     OW73498   9.245   5.655   0.706
20615SOL    HW173499   9.262   5.684   0.800
20615SOL    HW273500   9.271   5.559   0.696
20616SOL     OW73501   1.955   9.820   0.166
20616SOL    HW173502   1.947   9.736   0.220
20616SOL    HW273503   1.881   9.823   0.098
20617SOL     OW73504   0.829   9.634   5.581
20617SOL    HW173505   0.864   9.727   5.569
20617SOL    HW273506   0.900   9.568   5.555
20618SOL     OW73507   1.397   5.084   4.280
20618SOL    HW173508   1.453   5.012   4.321
20618SOL    HW273509   1.403   5.167   4.337
20619SOL     OW73510   4.364   9.132   1.494
20619SOL    HW173511   4.345   9.083   1.409
20619SOL    HW273512   4.403   9.068   1.561
20620SOL     OW73513   1.598   2.570   5.179
20620SOL    HW173514   1.650   2.655   5.174
20620SOL    HW273515   1.513   2.580   5.129
20621SOL     OW73516   4.535   9.878   4.922
20621SOL    HW173517   4.503   9.961   4.876
20621SOL    HW273518   4.602   9.832   4.864
20622SOL     OW73519   8.271   2.274   2.896
20622SOL    HW173520   8.290   2.287   2.799
20622SOL    HW273521   8.172   2.277   2.912
20623SOL     OW73522   6.667   0.298   1.759
20623SOL    HW173523   6.613   0.370   1.802
20623SOL    HW273524   6.606   0.229   1.720
20624SOL     OW73525   0.300   8.879   1.310
20624SOL    HW173526   0.331   8.786   1.292
20624SOL    HW273527   0.354   8.944   1.256
20625SOL     OW73528   7.019   0.619   4.628
20625SOL    HW173529   7.044   0.589   4.536
20625SOL    HW273530   6.925   0.653   4.628
20626SOL     OW73531   3.081   4.610   3.520
20626SOL    HW173532   3.125   4.523   3.544
20626SOL    HW273533   3.146   4.685   3.532
20627SOL     OW73534   1.019   2.921   0.600
20627SOL    HW173535   0.949   2.869   0.552
20627SOL    HW273536   1.107   2.873   0.593
20628SOL     OW73537   6.968   1.770   1.351
20628SOL    HW173538   6.958   1.869   1.361
20628SOL    HW273539   6.957   1.726   1.440
20629SOL     OW73540   9.528   3.694   1.743
20629SOL    HW173541   9.529   3.597   1.767
20629SOL    HW273542   9.472   3.744   1.810
20630SOL     OW73543   1.540   5.237   5.491
20630SOL    HW173544   1.512   5.326   5.454
20630SOL    HW273545   1.473   5.168   5.465
20631SOL     OW73546   2.747   3.904   4.064
20631SOL    HW173547   2.661   3.895   4.116
20631SOL    HW273548   2.824   3.887   4.125
20632SOL     OW73549   1.166   1.622   4.331
20632SOL    HW173550   1.098   1.682   4.372
20632SOL    HW273551   1.126   1.531   4.316
20633SOL     OW73552   3.883   3.428   3.621
20633SOL    HW173553   3.907   3.428   3.718
20633SOL    HW273554   3.868   3.334   3.590
20634SOL     OW73555   6.540   1.649   4.982
20634SOL    HW173556   6.587   1.600   4.909
20634SOL    HW273557   6.540   1.594   5.065
20635SOL     OW73558   0.448   8.674   6.340
20635SOL    HW173559   0.485   8.660   6.249
20635SOL    HW273560   0.522   8.686   6.406
20636SOL     OW73561   8.215   3.184   1.443
20636SOL    HW173562   8.233   3.208   1.348
20636SOL    HW273563   8.156   3.104   1.447
20637SOL     OW73564   7.376   5.582   3.418
20637SOL    HW173565   7.310   5.509   3.398
20637SOL    HW273566   7.329   5.659   3.461
20638SOL     OW73567   7.405   4.574   7.249
20638SOL    HW173568   7.474   4.536   7.187
20638SOL    HW273569   7.322   4.519   7.245
20639SOL     OW73570   1.548   5.272   0.463
20639SOL    HW173571   1.631   5.310   0.422
20639SOL    HW273572   1.515   5.196   0.407
20640SOL     OW73573   6.240   8.797   4.818
20640SOL    HW173574   6.281   8.802   4.727
20640SOL    HW273575   6.294   8.853   4.881
20641SOL     OW73576   1.195   0.475   3.501
20641SOL    HW173577   1.197   0.493   3.402
20641SOL    HW273578   1.138   0.544   3.546
20642SOL     OW73579   0.229   8.516   6.351
20642SOL    HW173580   0.236   8.462   6.268
20642SOL    HW273581   0.306   8.579   6.357
20643SOL     OW73582   5.799   8.596   3.327
20643SOL    HW173583   5.819   8.681   3.376
20643SOL    HW273584   5.855   8.522   3.364
20644SOL     OW73585   6.674   1.399   1.808
20644SOL    HW173586   6.651   1.491   1.839
20644SOL    HW273587   6.593   1.357   1.766
20645SOL     OW73588   5.734   0.050   6.169
20645SOL    HW173589   5.783   0.137   6.157
20645SOL    HW273590   5.684   0.052   6.256
20646SOL     OW73591   8.585   1.471   7.321
20646SOL    HW173592   8.662   1.521   7.280
20646SOL    HW273593   8.588   1.375   7.293
20647SOL     OW73594   8.310   7.716   2.676
20647SOL    HW173595   8.289   7.625   2.641
20647SOL    HW273596   8.383   7.757   2.620
20648SOL     OW73597   1.572   8.764   3.734
20648SOL    HW173598   1.550   8.861   3.723
20648SOL    HW273599   1.671   8.754   3.747
20649SOL     OW73600   3.247   0.035   6.565
20649SOL    HW173601   3.320   0.012   6.629
20649SOL    HW273602   3.260   9.986   6.479
20650SOL     OW73603   8.774   5.757   0.326
20650SOL    HW173604   8.746   5.841   0.280
20650SOL    HW273605   8.870   5.765   0.354
20651SOL     OW73606   7.098   0.749   3.704
20651SOL    HW173607   7.127   0.819   3.769
20651SOL    HW273608   7.161   0.747   3.627
20652SOL     OW73609   7.853   6.460   3.675
20652SOL    HW173610   7.922   6.415   3.618
20652SOL    HW273611   7.791   6.391   3.712
20653SOL     OW73612   1.599   4.552   7.669
20653SOL    HW173613   1.550   4.617   7.612
20653SOL    HW273614   1.682   4.595   7.705
20654SOL     OW73615   1.411   4.664   5.709
20654SOL    HW173616   1.348   4.624   5.642
20654SOL    HW273617   1.451   4.748   5.672
20655SOL     OW73618   5.197   9.141   5.560
20655SOL    HW173619   5.178   9.056   5.609
20655SOL    HW273620   5.203   9.217   5.625
20656SOL     OW73621   1.726   7.705   4.976
20656SOL    HW173622   1.640   7.655   4.984
20656SOL    HW273623   1.741   7.729   4.880
20657SOL     OW73624   5.362   5.292   1.961
20657SOL    HW173625   5.331   5.200   1.985
20657SOL    HW273626   5.287   5.342   1.917
20658SOL     OW73627   1.954   2.321   6.163
20658SOL    HW173628   1.943   2.397   6.100
20658SOL    HW273629   1.991   2.242   6.114
20659SOL     OW73630   6.973   0.142   7.645
20659SOL    HW173631   7.049   0.183   7.594
20659SOL    HW273632   6.887   0.180   7.613
20660SOL     OW73633   4.641   7.887   2.742
20660SOL    HW173634   4.720   7.854   2.796
20660SOL    HW273635   4.667   7.892   2.646
20661SOL     OW73636   5.859   8.068   5.231
20661SOL    HW173637   5.847   8.154   5.280
20661SOL    HW273638   5.890   8.087   5.138
20662SOL     OW73639   7.859   9.200   2.981
20662SOL    HW173640   7.890   9.215   3.075
20662SOL    HW273641   7.760   9.210   2.976
20663SOL     OW73642   6.279   0.621   1.093
20663SOL    HW173643   6.269   0.522   1.087
20663SOL    HW273644   6.216   0.657   1.162
20664SOL     OW73645   4.576   3.487   0.451
20664SOL    HW173646   4.605   3.431   0.528
20664SOL    HW273647   4.555   3.580   0.482
20665SOL     OW73648   7.345   1.372   4.612
20665SOL    HW173649   7.246   1.363   4.608
20665SOL    HW273650   7.380   1.396   4.521
20666SOL     OW73651   4.565   4.598   2.907
20666SOL    HW173652   4.488   4.538   2.931
20666SOL    HW273653   4.531   4.679   2.860
20667SOL     OW73654   3.110   1.171   2.240
20667SOL    HW173655   3.193   1.208   2.282
20667SOL    HW273656   3.066   1.242   2.185
20668SOL     OW73657   2.360   7.585   7.030
20668SOL    HW173658   2.441   7.635   7.062
20668SOL    HW273659   2.301   7.648   6.980
20669SOL     OW73660   2.355   9.193   3.911
20669SOL    HW173661   2.400   9.188   3.821
20669SOL    HW273662   2.279   9.128   3.914
20670SOL     OW73663   0.576   3.069   0.608
20670SOL    HW173664   0.574   3.030   0.516
20670SOL    HW273665   0.595   3.167   0.602
20671SOL     OW73666   2.194   6.303   2.527
20671SOL    HW173667   2.273   6.291   2.587
20671SOL    HW273668   2.111   6.279   2.577
20672SOL     OW73669   0.537   2.289   6.948
20672SOL    HW173670   0.637   2.288   6.949
20672SOL    HW273671   0.503   2.196   6.936
20673SOL     OW73672   6.522   8.205   6.934
20673SOL    HW173673   6.487   8.284   6.984
20673SOL    HW273674   6.475   8.198   6.846
20674SOL     OW73675   9.898   5.784   2.743
20674SOL    HW173676   9.950   5.832   2.814
20674SOL    HW273677   9.858   5.851   2.680
20675SOL     OW73678   8.593   4.879   5.765
20675SOL    HW173679   8.634   4.969   5.747
20675SOL    HW273680   8.665   4.810   5.769
20676SOL     OW73681   1.246   0.207   4.063
20676SOL    HW173682   1.195   0.136   4.109
20676SOL    HW273683   1.321   0.239   4.121
20677SOL     OW73684   4.337   5.546   0.772
20677SOL    HW173685   4.262   5.487   0.741
20677SOL    HW273686   4.320   5.640   0.743
20678SOL     OW73687   0.365   7.388   4.979
20678SOL    HW173688   0.456   7.429   4.988
20678SOL    HW273689   0.374   7.292   4.952
20679SOL     OW73690   8.421   3.403   6.458
20679SOL    HW173691   8.413   3.501   6.480
20679SOL    HW273692   8.402   3.349   6.540
20680SOL     OW73693   9.277   8.321   5.996
20680SOL    HW173694   9.203   8.386   5.981
20680SOL    HW273695   9.286   8.262   5.916
20681SOL     OW73696   0.721   4.661   5.441
20681SOL    HW173697   0.739   4.602   5.363
20681SOL    HW273698   0.643   4.720   5.421
20682SOL     OW73699   8.913   3.566   0.222
20682SOL    HW173700   8.954   3.550   0.311
20682SOL    HW273701   8.965   3.637   0.174
20683SOL     OW73702   5.520   0.631   1.780
20683SOL    HW173703   5.437   0.611   1.832
20683SOL    HW273704   5.531   0.564   1.707
20684SOL     OW73705   0.739   6.501   1.259
20684SOL    HW173706   0.780   6.564   1.193
20684SOL    HW273707   0.756   6.534   1.351
20685SOL     OW73708   2.210   7.517   3.052
20685SOL    HW173709   2.239   7.423   3.070
20685SOL    HW273710   2.220   7.571   3.136
20686SOL     OW73711   8.651   6.990   3.844
20686SOL    HW173712   8.587   6.914   3.839
20686SOL    HW273713   8.720   6.981   3.772
20687SOL     OW73714   0.834   2.781   5.963
20687SOL    HW173715   0.829   2.878   5.986
20687SOL    HW273716   0.745   2.739   5.979
20688SOL     OW73717   7.308   6.642   3.851
20688SOL    HW173718   7.369   6.572   3.815
20688SOL    HW273719   7.343   6.733   3.827
20689SOL     OW73720   3.978   4.689   7.359
20689SOL    HW173721   4.005   4.779   7.393
20689SOL    HW273722   3.955   4.630   7.436
20690SOL     OW73723   1.077   5.079   4.650
20690SOL    HW173724   1.101   5.174   4.628
20690SOL    HW273725   1.149   5.018   4.619
20691SOL     OW73726   5.900   1.236   7.080
20691SOL    HW173727   5.892   1.186   7.167
20691SOL    HW273728   5.981   1.204   7.031
20692SOL     OW73729   2.177   6.173   3.106
20692SOL    HW173730   2.164   6.264   3.067
20692SOL    HW273731   2.088   6.135   3.133
20693SOL     OW73732   6.979   6.080   3.065
20693SOL    HW173733   7.028   6.165   3.085
20693SOL    HW273734   6.958   6.075   2.967
20694SOL     OW73735   1.832   4.252   5.420
20694SOL    HW173736   1.800   4.169   5.375
20694SOL    HW273737   1.905   4.293   5.366
20695SOL     OW73738   3.299   0.809   6.569
20695SOL    HW173739   3.231   0.736   6.560
20695SOL    HW273740   3.366   0.782   6.639
20696SOL     OW73741   9.503   2.930   3.095
20696SOL    HW173742   9.484   3.028   3.095
20696SOL    HW273743   9.484   2.892   3.185
20697SOL     OW73744   5.338   8.952   7.927
20697SOL    HW173745   5.318   8.920   8.020
20697SOL    HW273746   5.308   8.883   7.861
20698SOL     OW73747   8.256   1.844   2.102
20698SOL    HW173748   8.299   1.823   2.190
20698SOL    HW273749   8.162   1.811   2.101
20699SOL     OW73750   1.470   5.834   7.053
20699SOL    HW173751   1.395   5.900   7.054
20699SOL    HW273752   1.445   5.756   6.995
20700SOL     OW73753   9.150   8.914   6.963
20700SOL    HW173754   9.079   8.964   6.913
20700SOL    HW273755   9.123   8.819   6.974
20701SOL     OW73756   8.897   2.620   1.536
20701SOL    HW173757   8.813   2.649   1.490
20701SOL    HW273758   8.916   2.524   1.514
20702SOL     OW73759   9.128   2.421   0.388
20702SOL    HW173760   9.188   2.499   0.369
20702SOL    HW273761   9.038   2.454   0.417
20703SOL     OW73762   8.478   5.822   0.743
20703SOL    HW173763   8.553   5.772   0.785
20703SOL    HW273764   8.514   5.882   0.671
20704SOL     OW73765   2.646   9.917   1.532
20704SOL    HW173766   2.642   0.006   1.488
20704SOL    HW273767   2.618   9.926   1.628
20705SOL     OW73768   7.653   6.302   2.764
20705SOL    HW173769   7.644   6.283   2.862
20705SOL    HW273770   7.712   6.233   2.722
20706SOL     OW73771   9.944   2.369   6.422
20706SOL    HW173772   9.928   2.390   6.518
20706SOL    HW273773   9.858   2.379   6.371
20707SOL     OW73774   2.334   3.378   3.025
20707SOL    HW173775   2.349   3.334   2.936
20707SOL    HW273776   2.421   3.406   3.064
20708SOL     OW73777   9.630   3.809   5.983
20708SOL    HW173778   9.623   3.806   6.083
20708SOL    HW273779   9.680   3.728   5.951
20709SOL     OW73780   2.692   0.802   7.520
20709SOL    HW173781   2.663   0.713   7.483
20709SOL    HW273782   2.700   0.795   7.620
20710SOL     OW73783   0.032   5.922   2.939
20710SOL    HW173784   9.979   5.921   3.024
20710SOL    HW273785   0.057   6.016   2.916
20711SOL     OW73786   6.808   7.732   3.243
20711SOL    HW173787   6.820   7.766   3.336
20711SOL    HW273788   6.887   7.676   3.218
20712SOL     OW73789   0.178   2.014   4.804
20712SOL    HW173790   0.142   1.924   4.829
20712SOL    HW273791   0.223   2.054   4.884
20713SOL     OW73792   6.718   1.990   0.336
20713SOL    HW173793   6.644   2.033   0.284
20713SOL    HW273794   6.713   1.890   0.323
20714SOL     OW73795   1.335   5.972   4.469
20714SOL    HW173796   1.314   5.907   4.396
20714SOL    HW273797   1.253   5.986   4.525
20715SOL     OW73798   7.701   7.753   4.110
20715SOL    HW173799   7.737   7.661   4.124
20715SOL    HW273800   7.709   7.777   4.013
20716SOL     OW73801   1.993   2.091   4.795
20716SOL    HW173802   1.973   2.087   4.697
20716SOL    HW273803   1.969   2.181   4.830
20717SOL     OW73804   0.592   3.826   6.649
20717SOL    HW173805   0.688   3.830   6.622
20717SOL    HW273806   0.563   3.916   6.681
20718SOL     OW73807   5.712   6.577   1.017
20718SOL    HW173808   5.626   6.627   1.022
20718SOL    HW273809   5.707   6.507   0.946
20719SOL     OW73810   0.102   4.477   6.936
20719SOL    HW173811   0.042   4.404   6.967
20719SOL    HW273812   0.067   4.517   6.852
20720SOL     OW73813   9.987   9.726   7.190
20720SOL    HW173814   9.990   9.804   7.128
20720SOL    HW273815   0.059   9.661   7.165
20721SOL     OW73816   3.034   4.037   5.116
20721SOL    HW173817   2.987   4.108   5.063
20721SOL    HW273818   2.966   3.975   5.157
20722SOL     OW73819   1.790   5.730   3.677
20722SOL    HW173820   1.882   5.757   3.707
20722SOL    HW273821   1.796   5.690   3.585
20723SOL     OW73822   4.590   4.884   0.785
20723SOL    HW173823   4.686   4.859   0.775
20723SOL    HW273824   4.532   4.811   0.747
20724SOL     OW73825   9.984   9.860   7.651
20724SOL    HW173826   9.897   9.860   7.700
20724SOL    HW273827   0.056   9.895   7.711
20725SOL     OW73828   9.923   0.725   2.975
20725SOL    HW173829   0.018   0.701   2.959
20725SOL    HW273830   9.917   0.821   3.004
20726SOL     OW73831   1.774   4.858   5.540
20726SOL    HW173832   1.836   4.784   5.568
20726SOL    HW273833   1.828   4.941   5.522
20727SOL     OW73834   7.354   7.387   4.491
20727SOL    HW173835   7.315   7.403   4.401
20727SOL    HW273836   7.444   7.430   4.496
20728SOL     OW73837   1.053   2.158   3.689
20728SOL    HW173838   1.015   2.102   3.762
20728SOL    HW273839   1.134   2.207   3.723
20729SOL     OW73840   3.694   0.278   3.723
20729SOL    HW173841   3.633   0.226   3.784
20729SOL    HW273842   3.777   0.224   3.706
20730SOL     OW73843   8.298   5.707   1.039
20730SOL    HW173844   8.208   5.710   1.082
20730SOL    HW273845   8.287   5.693   0.940
20731SOL     OW73846   6.432   8.220   2.834
20731SOL    HW173847   6.516   8.183   2.875
20731SOL    HW273848   6.453   8.309   2.793
20732SOL     OW73849   9.184   0.511   2.845
20732SOL    HW173850   9.214   0.533   2.753
20732SOL    HW273851   9.231   0.429   2.877
20733SOL     OW73852   1.952   7.895   2.697
20733SOL    HW173853   1.920   7.897   2.792
20733SOL    HW273854   1.880   7.932   2.637
20734SOL     OW73855   2.229   3.555   2.755
20734SOL    HW173856   2.144   3.606   2.767
20734SOL    HW273857   2.209   3.466   2.715
20735SOL     OW73858   5.038   0.236   3.467
20735SOL    HW173859   5.124   0.188   3.451
20735SOL    HW273860   5.002   0.209   3.557
20736SOL     OW73861   2.684   9.784   7.728
20736SOL    HW173862   2.671   9.883   7.739
20736SOL    HW273863   2.744   9.767   7.650
20737SOL     OW73864   4.251   8.347   5.977
20737SOL    HW173865   4.321   8.399   6.025
20737SOL    HW273866   4.196   8.296   6.042
20738SOL     OW73867   0.706   0.346   6.469
20738SOL    HW173868   0.671   0.410   6.537
20738SOL    HW273869   0.792   0.381   6.431
20739SOL     OW73870   9.607   9.080   0.154
20739SOL    HW173871   9.515   9.093   0.117
20739SOL    HW273872   9.656   9.167   0.153
20740SOL     OW73873   3.085   7.488   7.095
20740SOL    HW173874   3.036   7.402   7.111
20740SOL    HW273875   3.044   7.536   7.017
20741SOL     OW73876   7.966   9.044   7.664
20741SOL    HW173877   7.877   9.055   7.708
20741SOL    HW273878   7.969   8.957   7.616
20742SOL     OW73879   4.844   7.080   2.998
20742SOL    HW173880   4.835   7.133   3.083
20742SOL    HW273881   4.928   7.106   2.952
20743SOL     OW73882   8.111   2.476   3.920
20743SOL    HW173883   8.077   2.421   3.844
20743SOL    HW273884   8.111   2.422   4.004
20744SOL     OW73885   2.969   4.506   6.998
20744SOL    HW173886   3.001   4.486   7.091
20744SOL    HW273887   3.048   4.531   6.941
20745SOL     OW73888   7.755   8.580   3.813
20745SOL    HW173889   7.687   8.512   3.785
20745SOL    HW273890   7.716   8.638   3.884
20746SOL     OW73891   6.362   8.976   4.980
20746SOL    HW173892   6.350   8.969   5.079
20746SOL    HW273893   6.377   9.071   4.954
20747SOL     OW73894   0.928   1.653   3.474
20747SOL    HW173895   0.884   1.731   3.518
20747SOL    HW273896   0.909   1.570   3.526
20748SOL     OW73897   0.708   5.829   5.725
20748SOL    HW173898   0.664   5.878   5.650
20748SOL    HW273899   0.797   5.872   5.745
20749SOL     OW73900   8.249   6.971   4.162
20749SOL    HW173901   8.323   7.009   4.106
20749SOL    HW273902   8.248   6.871   4.153
20750SOL     OW73903   7.930   5.381   0.214
20750SOL    HW173904   7.888   5.470   0.197
20750SOL    HW273905   7.859   5.311   0.221
20751SOL     OW73906   1.590   1.775   5.239
20751SOL    HW173907   1.663   1.817   5.293
20751SOL    HW273908   1.552   1.697   5.288
20752SOL     OW73909   1.175   9.007   1.037
20752SOL    HW173910   1.197   8.943   0.963
20752SOL    HW273911   1.152   9.096   0.997
20753SOL     OW73912   8.483   9.958   0.578
20753SOL    HW173913   8.448   0.008   0.498
20753SOL    HW273914   8.483   9.860   0.558
20754SOL     OW73915   8.929   7.878   5.401
20754SOL    HW173916   8.859   7.934   5.359
20754SOL    HW273917   8.996   7.850   5.332
20755SOL     OW73918   0.988   8.602   1.866
20755SOL    HW173919   1.031   8.597   1.776
20755SOL    HW273920   1.059   8.602   1.937
20756SOL     OW73921   3.115   9.558   2.775
20756SOL    HW173922   3.140   9.606   2.690
20756SOL    HW273923   3.027   9.591   2.807
20757SOL     OW73924   9.521   5.771   5.111
20757SOL    HW173925   9.553   5.695   5.055
20757SOL    HW273926   9.578   5.778   5.193
20758SOL     OW73927   3.267   4.151   7.343
20758SOL    HW173928   3.333   4.076   7.339
20758SOL    HW273929   3.314   4.238   7.340
20759SOL     OW73930   0.109   6.268   3.885
20759SOL    HW173931   0.144   6.353   3.924
20759SOL    HW273932   0.085   6.282   3.789
20760SOL     OW73933   8.504   3.954   3.005
20760SOL    HW173934   8.479   3.943   2.909
20760SOL    HW273935   8.440   4.016   3.050
20761SOL     OW73936   5.539   4.726   0.813
20761SOL    HW173937   5.551   4.799   0.881
20761SOL    HW273938   5.601   4.741   0.736
20762SOL     OW73939   9.567   6.019   7.820
20762SOL    HW173940   9.624   6.101   7.822
20762SOL    HW273941   9.611   5.947   7.873
20763SOL     OW73942   0.447   6.597   3.688
20763SOL    HW173943   0.534   6.630   3.651
20763SOL    HW273944   0.465   6.525   3.755
20764SOL     OW73945   4.879   0.235   0.745
20764SOL    HW173946   4.881   0.274   0.836
20764SOL    HW273947   4.876   0.308   0.677
20765SOL     OW73948   8.170   6.829   2.642
20765SOL    HW173949   8.266   6.802   2.651
20765SOL    HW273950   8.146   6.833   2.546
20766SOL     OW73951   9.154   2.243   0.180
20766SOL    HW173952   9.065   2.245   0.135
20766SOL    HW273953   9.152   2.302   0.261
20767SOL     OW73954   9.060   3.101   2.886
20767SOL    HW173955   8.963   3.107   2.908
20767SOL    HW273956   9.114   3.127   2.966
20768SOL     OW73957   7.445   6.426   3.749
20768SOL    HW173958   7.421   6.408   3.653
20768SOL    HW273959   7.537   6.393   3.767
20769SOL     OW73960   8.588   5.090   5.254
20769SOL    HW173961   8.563   5.179   5.293
20769SOL    HW273962   8.520   5.022   5.281
20770SOL     OW73963   0.185   9.114   0.117
20770SOL    HW173964   0.201   9.203   0.075
20770SOL    HW273965   0.269   9.083   0.161
20771SOL     OW73966   8.747   2.729   6.851
20771SOL    HW173967   8.702   2.654   6.804
20771SOL    HW273968   8.716   2.816   6.813
20772SOL     OW73969   7.176   3.350   7.851
20772SOL    HW173970   7.241   3.297   7.796
20772SOL    HW273971   7.226   3.398   7.924
20773SOL     OW73972   8.978   8.615   5.004
20773SOL    HW173973   9.019   8.681   4.942
20773SOL    HW273974   8.892   8.582   4.966
20774SOL     OW73975   8.895   0.028   6.559
20774SOL    HW173976   8.966   0.093   6.588
20774SOL    HW273977   8.937   9.939   6.541
20775SOL     OW73978   8.216   3.999   7.411
20775SOL    HW173979   8.145   3.939   7.448
20775SOL    HW273980   8.273   3.948   7.347
20776SOL     OW73981   0.589   3.069   4.437
20776SOL    HW173982   0.528   2.989   4.439
20776SOL    HW273983   0.606   3.095   4.342
20777SOL     OW73984   2.140   2.299   2.541
20777SOL    HW173985   2.188   2.294   2.628
20777SOL    HW273986   2.063   2.363   2.549
20778SOL     OW73987   9.443   2.272   2.046
20778SOL    HW173988   9.485   2.191   2.087
20778SOL    HW273989   9.448   2.265   1.947
20779SOL     OW73990   7.966   3.543   1.714
20779SOL    HW173991   8.029   3.520   1.639
20779SOL    HW273992   8.013   3.602   1.780
20780SOL     OW73993   9.361   3.249   4.655
20780SOL    HW173994   9.348   3.183   4.581
20780SOL    HW273995   9.455   3.283   4.653
20781SOL     OW73996   7.450   6.653   6.447
20781SOL    HW173997   7.466   6.572   6.390
20781SOL    HW273998   7.537   6.691   6.477
20782SOL     OW73999   8.020   7.424   3.392
20782SOL    HW174000   7.975   7.411   3.304
20782SOL    HW274001   7.956   7.402   3.466
20783SOL     OW74002   8.875   2.027   3.848
20783SOL    HW174003   8.779   2.000   3.835
20783SOL    HW274004   8.893   2.038   3.946
20784SOL     OW74005   8.174   4.897   0.828
20784SOL    HW174006   8.265   4.938   0.822
20784SOL    HW274007   8.158   4.841   0.746
20785SOL     OW74008   0.826   1.896   3.579
20785SOL    HW174009   0.904   1.937   3.531
20785SOL    HW274010   0.748   1.959   3.577
20786SOL     OW74011   2.297   6.680   5.787
20786SOL    HW174012   2.383   6.681   5.838
20786SOL    HW274013   2.222   6.706   5.849
20787SOL     OW74014   9.613   2.626   1.274
20787SOL    HW174015   9.542   2.647   1.342
20787SOL    HW274016   9.607   2.530   1.248
20788SOL     OW74017   0.536   0.528   3.108
20788SOL    HW174018   0.629   0.564   3.109
20788SOL    HW274019   0.520   0.479   3.022
20789SOL     OW74020   0.449   6.323   1.594
20789SOL    HW174021   0.529   6.273   1.563
20789SOL    HW274022   0.463   6.421   1.580
20790SOL     OW74023   8.743   8.777   5.521
20790SOL    HW174024   8.735   8.702   5.455
20790SOL    HW274025   8.838   8.786   5.549
20791SOL     OW74026   8.474   8.430   5.417
20791SOL    HW174027   8.467   8.411   5.514
20791SOL    HW274028   8.560   8.479   5.398
20792SOL     OW74029   3.160   1.435   7.081
20792SOL    HW174030   3.163   1.412   7.178
20792SOL    HW274031   3.134   1.354   7.028
20793SOL     OW74032   5.611   1.080   7.170
20793SOL    HW174033   5.642   1.067   7.076
20793SOL    HW274034   5.585   0.992   7.210
20794SOL     OW74035   9.244   9.074   1.694
20794SOL    HW174036   9.263   9.120   1.607
20794SOL    HW274037   9.325   9.077   1.751
20795SOL     OW74038   8.435   8.453   6.556
20795SOL    HW174039   8.349   8.470   6.509
20795SOL    HW274040   8.483   8.376   6.514
20796SOL     OW74041   3.103   1.310   1.383
20796SOL    HW174042   3.043   1.388   1.399
20796SOL    HW274043   3.049   1.225   1.385
20797SOL     OW74044   1.525   1.786   7.868
20797SOL    HW174045   1.472   1.841   7.932
20797SOL    HW274046   1.505   1.689   7.883
20798SOL     OW74047   9.182   1.564   0.902
20798SOL    HW174048   9.208   1.573   0.999
20798SOL    HW274049   9.225   1.638   0.850
20799SOL     OW74050   1.828   5.457   7.019
20799SOL    HW174051   1.836   5.395   6.940
20799SOL    HW274052   1.743   5.438   7.068
20800SOL     OW74053   9.172   3.193   7.374
20800SOL    HW174054   9.101   3.164   7.309
20800SOL    HW274055   9.184   3.292   7.368
20801SOL     OW74056   2.674   7.319   1.361
20801SOL    HW174057   2.632   7.402   1.398
20801SOL    HW274058   2.710   7.263   1.436
20802SOL     OW74059   3.145   7.139   5.099
20802SOL    HW174060   3.112   7.069   5.035
20802SOL    HW274061   3.068   7.191   5.135
20803SOL     OW74062   8.343   7.967   4.167
20803SOL    HW174063   8.434   7.934   4.194
20803SOL    HW274064   8.313   8.038   4.230
20804SOL     OW74065   7.231   3.308   1.214
20804SOL    HW174066   7.234   3.345   1.307
20804SOL    HW274067   7.137   3.284   1.191
20805SOL     OW74068   2.168   1.300   6.743
20805SOL    HW174069   2.111   1.224   6.775
20805SOL    HW274070   2.145   1.321   6.648
20806SOL     OW74071   9.198   1.974   7.691
20806SOL    HW174072   9.220   2.017   7.603
20806SOL    HW274073   9.280   1.972   7.748
20807SOL     OW74074   9.460   0.150   0.147
20807SOL    HW174075   9.515   0.233   0.146
20807SOL    HW274076   9.426   0.133   0.239
20808SOL     OW74077   3.686   1.706   3.189
20808SOL    HW174078   3.669   1.618   3.145
20808SOL    HW274079   3.692   1.693   3.288
20809SOL     OW74080   3.915   8.077   3.711
20809SOL    HW174081   3.996   8.029   3.745
20809SOL    HW274082   3.923   8.090   3.612
20810SOL     OW74083   8.511   2.505   1.242
20810SOL    HW174084   8.424   2.456   1.236
20810SOL    HW274085   8.576   2.450   1.296
20811SOL     OW74086   6.415   2.154   5.441
20811SOL    HW174087   6.381   2.223   5.377
20811SOL    HW274088   6.513   2.140   5.428
20812SOL     OW74089   0.372   3.804   2.470
20812SOL    HW174090   0.428   3.754   2.537
20812SOL    HW274091   0.399   3.777   2.378
20813SOL     OW74092   0.420   7.760   2.322
20813SOL    HW174093   0.482   7.827   2.364
20813SOL    HW274094   0.377   7.705   2.393
20814SOL     OW74095   4.513   1.551   7.847
20814SOL    HW174096   4.537   1.649   7.848
20814SOL    HW274097   4.413   1.542   7.850
20815SOL     OW74098   9.266   1.336   2.466
20815SOL    HW174099   9.323   1.418   2.458
20815SOL    HW274100   9.199   1.334   2.393
20816SOL     OW74101   4.015   0.143   5.658
20816SOL    HW174102   3.983   0.177   5.570
20816SOL    HW274103   4.063   0.217   5.707
20817SOL     OW74104   3.012   6.946   6.696
20817SOL    HW174105   2.922   6.904   6.681
20817SOL    HW274106   3.079   6.904   6.636
20818SOL     OW74107   3.698   3.598   5.345
20818SOL    HW174108   3.729   3.527   5.407
20818SOL    HW274109   3.728   3.687   5.378
20819SOL     OW74110   6.464   0.425   7.072
20819SOL    HW174111   6.466   0.517   7.032
20819SOL    HW274112   6.557   0.390   7.080
20820SOL     OW74113   9.755   1.488   4.888
20820SOL    HW174114   9.663   1.449   4.880
20820SOL    HW274115   9.823   1.416   4.873
20821SOL     OW74116   1.369   3.863   1.785
20821SOL    HW174117   1.449   3.824   1.738
20821SOL    HW274118   1.394   3.890   1.878
20822SOL     OW74119   9.170   9.903   3.603
20822SOL    HW174120   9.209   9.813   3.585
20822SOL    HW274121   9.236   9.974   3.577
20823SOL     OW74122   2.430   9.988   4.859
20823SOL    HW174123   2.512   9.986   4.802
20823SOL    HW274124   2.428   9.907   4.917
20824SOL     OW74125   1.461   0.347   0.378
20824SOL    HW174126   1.456   0.255   0.417
20824SOL    HW274127   1.501   0.341   0.286
20825SOL     OW74128   2.890   8.637   4.388
20825SOL    HW174129   2.981   8.614   4.351
20825SOL    HW274130   2.868   8.732   4.365
20826SOL     OW74131   4.047   1.659   3.280
20826SOL    HW174132   4.050   1.730   3.210
20826SOL    HW274133   4.006   1.576   3.242
20827SOL     OW74134   9.903   5.641   1.070
20827SOL    HW174135   9.920   5.590   0.986
20827SOL    HW274136   9.975   5.709   1.083
20828SOL     OW74137   2.440   4.749   4.160
20828SOL    HW174138   2.361   4.796   4.119
20828SOL    HW274139   2.414   4.657   4.188
20829SOL     OW74140   1.161   7.661   5.487
20829SOL    HW174141   1.255   7.627   5.482
20829SOL    HW274142   1.162   7.757   5.516
20830SOL     OW74143   9.962   8.049   7.014
20830SOL    HW174144   0.039   8.016   7.070
20830SOL    HW274145   9.939   8.142   7.041
20831SOL     OW74146   5.759   8.221   6.689
20831SOL    HW174147   5.681   8.176   6.646
20831SOL    HW274148   5.844   8.180   6.657
20832SOL     OW74149   2.456   0.655   0.875
20832SOL    HW174150   2.399   0.650   0.957
20832SOL    HW274151   2.552   0.667   0.902
20833SOL     OW74152   3.074   7.463   4.441
20833SOL    HW174153   3.082   7.498   4.535
20833SOL    HW274154   3.153   7.492   4.388
20834SOL     OW74155   3.943   9.232   7.482
20834SOL    HW174156   3.949   9.331   7.482
20834SOL    HW274157   3.889   9.202   7.403
20835SOL     OW74158   2.509   3.303   5.585
20835SOL    HW174159   2.447   3.365   5.535
20835SOL    HW274160   2.570   3.357   5.643
20836SOL     OW74161   2.522   1.024   2.944
20836SOL    HW174162   2.588   1.047   2.872
20836SOL    HW274163   2.558   1.052   3.032
20837SOL     OW74164   8.993   9.895   5.243
20837SOL    HW174165   9.026   9.927   5.332
20837SOL    HW274166   8.967   9.973   5.186
20838SOL     OW74167   0.961   8.583   5.882
20838SOL    HW174168   0.989   8.660   5.938
20838SOL    HW274169   1.011   8.584   5.796
20839SOL     OW74170   3.637   2.198   1.308
20839SOL    HW174171   3.689   2.146   1.240
20839SOL    HW274172   3.700   2.252   1.364
20840SOL     OW74173   0.006   7.620   2.370
20840SOL    HW174174   0.050   7.561   2.437
20840SOL    HW274175   0.072   7.686   2.334
20841SOL     OW74176   4.224   7.852   5.584
20841SOL    HW174177   4.138   7.865   5.633
20841SOL    HW274178   4.207   7.860   5.485
20842SOL     OW74179   9.070   1.883   4.682
20842SOL    HW174180   8.981   1.922   4.708
20842SOL    HW274181   9.065   1.849   4.588
20843SOL     OW74182   9.122   3.383   4.665
20843SOL    HW174183   9.209   3.335   4.667
20843SOL    HW274184   9.133   3.471   4.620
20844SOL     OW74185   6.260   2.551   0.066
20844SOL    HW174186   6.347   2.502   0.058
20844SOL    HW274187   6.196   2.498   0.122
20845SOL     OW74188   2.066   2.365   1.847
20845SOL    HW174189   2.064   2.268   1.823
20845SOL    HW274190   1.984   2.410   1.812
20846SOL     OW74191   2.072   6.992   1.511
20846SOL    HW174192   2.138   7.028   1.577
20846SOL    HW274193   2.007   7.065   1.486
20847SOL     OW74194   7.593   4.372   3.997
20847SOL    HW174195   7.672   4.429   3.974
20847SOL    HW274196   7.509   4.426   3.990
20848SOL     OW74197   0.307   7.112   2.136
20848SOL    HW174198   0.392   7.060   2.128
20848SOL    HW274199   0.265   7.122   2.045
20849SOL     OW74200   6.784   9.863   7.395
20849SOL    HW174201   6.725   9.814   7.331
20849SOL    HW274202   6.850   9.919   7.344
20850SOL     OW74203   9.527   6.481   5.400
20850SOL    HW174204   9.479   6.395   5.421
20850SOL    HW274205   9.602   6.462   5.336
20851SOL     OW74206   3.010   4.245   5.566
20851SOL    HW174207   3.066   4.186   5.624
20851SOL    HW274208   3.033   4.229   5.470
20852SOL     OW74209   2.809   8.088   7.334
20852SOL    HW174210   2.806   8.005   7.279
20852SOL    HW274211   2.903   8.103   7.366
20853SOL     OW74212   6.215   2.447   2.747
20853SOL    HW174213   6.285   2.376   2.759
20853SOL    HW274214   6.221   2.512   2.823
20854SOL     OW74215   6.960   2.599   1.788
20854SOL    HW174216   6.912   2.516   1.817
20854SOL    HW274217   6.898   2.677   1.795
20855SOL     OW74218   0.242   4.291   3.835
20855SOL    HW174219   0.145   4.280   3.818
20855SOL    HW274220   0.260   4.384   3.869
20856SOL     OW74221   1.289   8.484   6.767
20856SOL    HW174222   1.343   8.500   6.849
20856SOL    HW274223   1.240   8.397   6.776
20857SOL     OW74224   6.895   9.309   2.500
20857SOL    HW174225   6.946   9.395   2.503
20857SOL    HW274226   6.951   9.236   2.538
20858SOL     OW74227   4.943   2.777   5.562
20858SOL    HW174228   4.951   2.871   5.596
20858SOL    HW274229   4.953   2.777   5.462
20859SOL     OW74230   4.294   1.915   4.313
20859SOL    HW174231   4.340   1.972   4.381
20859SOL    HW274232   4.199   1.945   4.302
20860SOL     OW74233   9.661   3.453   4.011
20860SOL    HW174234   9.625   3.361   3.992
20860SOL    HW274235   9.670   3.465   4.110
20861SOL     OW74236   6.729   8.649   2.725
20861SOL    HW174237   6.753   8.687   2.814
20861SOL    HW274238   6.808   8.604   2.685
20862SOL     OW74239   3.432   3.282   5.180
20862SOL    HW174240   3.341   3.278   5.220
20862SOL    HW274241   3.440   3.215   5.106
20863SOL     OW74242   0.994   8.019   1.989
20863SOL    HW174243   1.074   8.072   2.016
20863SOL    HW274244   0.957   8.056   1.903
20864SOL     OW74245   9.553   0.496   5.712
20864SOL    HW174246   9.503   0.436   5.775
20864SOL    HW274247   9.636   0.450   5.681
20865SOL     OW74248   3.944   3.320   6.205
20865SOL    HW174249   3.962   3.412   6.171
20865SOL    HW274250   4.021   3.260   6.181
20866SOL     OW74251   4.499   4.555   6.362
20866SOL    HW174252   4.457   4.601   6.441
20866SOL    HW274253   4.558   4.620   6.314
20867SOL     OW74254   4.663   2.035   4.870
20867SOL    HW174255   4.706   2.103   4.930
20867SOL    HW274256   4.570   2.018   4.901
20868SOL     OW74257   7.950   9.318   6.408
20868SOL    HW174258   8.022   9.296   6.342
20868SOL    HW274259   7.907   9.404   6.382
20869SOL     OW74260   8.092   7.628   7.283
20869SOL    HW174261   8.060   7.704   7.227
20869SOL    HW274262   8.090   7.544   7.229
20870SOL     OW74263   5.163   0.971   4.237
20870SOL    HW174264   5.093   0.920   4.286
20870SOL    HW274265   5.238   0.909   4.211
20871SOL     OW74266   1.477   0.648   5.535
20871SOL    HW174267   1.491   0.553   5.564
20871SOL    HW274268   1.527   0.709   5.596
20872SOL     OW74269   9.609   2.470   2.962
20872SOL    HW174270   9.553   2.436   2.887
20872SOL    HW274271   9.552   2.518   3.028
20873SOL     OW74272   6.111   2.616   1.182
20873SOL    HW174273   6.122   2.517   1.188
20873SOL    HW274274   6.102   2.643   1.086
20874SOL     OW74275   9.670   5.644   7.159
20874SOL    HW174276   9.721   5.633   7.073
20874SOL    HW274277   9.572   5.644   7.140
20875SOL     OW74278   7.694   6.623   3.511
20875SOL    HW174279   7.717   6.716   3.541
20875SOL    HW274280   7.748   6.557   3.564
20876SOL     OW74281   7.000   1.085   1.112
20876SOL    HW174282   6.945   1.168   1.119
20876SOL    HW274283   6.954   1.019   1.052
20877SOL     OW74284   9.124   2.037   5.396
20877SOL    HW174285   9.206   2.094   5.394
20877SOL    HW274286   9.135   1.960   5.334
20878SOL     OW74287   3.105   0.756   7.554
20878SOL    HW174288   3.144   0.804   7.632
20878SOL    HW274289   3.178   0.715   7.500
20879SOL     OW74290   1.519   5.070   2.027
20879SOL    HW174291   1.556   5.105   2.114
20879SOL    HW274292   1.492   4.975   2.038
20880SOL     OW74293   3.002   9.207   5.315
20880SOL    HW174294   2.995   9.306   5.299
20880SOL    HW274295   3.033   9.162   5.232
20881SOL     OW74296   8.795   0.706   1.926
20881SOL    HW174297   8.727   0.640   1.957
20881SOL    HW274298   8.840   0.670   1.843
20882SOL     OW74299   1.838   6.640   7.029
20882SOL    HW174300   1.816   6.736   7.014
20882SOL    HW274301   1.775   6.583   6.977
20883SOL     OW74302   1.123   6.950   4.117
20883SOL    HW174303   1.048   6.887   4.136
20883SOL    HW274304   1.104   7.001   4.033
20884SOL     OW74305   8.852   3.460   6.607
20884SOL    HW174306   8.937   3.509   6.586
20884SOL    HW274307   8.786   3.523   6.649
20885SOL     OW74308   0.083   5.963   5.797
20885SOL    HW174309   0.162   5.906   5.780
20885SOL    HW274310   0.010   5.909   5.839
20886SOL     OW74311   2.040   7.932   5.455
20886SOL    HW174312   2.037   7.846   5.404
20886SOL    HW274313   1.948   7.959   5.480
20887SOL     OW74314   7.450   5.529   1.536
20887SOL    HW174315   7.416   5.483   1.618
20887SOL    HW274316   7.544   5.501   1.518
20888SOL     OW74317   0.348   2.386   1.996
20888SOL    HW174318   0.393   2.472   2.019
20888SOL    HW274319   0.364   2.320   2.069
20889SOL     OW74320   9.096   2.902   3.875
20889SOL    HW174321   9.063   2.871   3.964
20889SOL    HW274322   9.020   2.900   3.809
20890SOL     OW74323   8.935   3.971   3.387
20890SOL    HW174324   8.913   3.876   3.367
20890SOL    HW274325   8.974   3.978   3.478
20891SOL     OW74326   3.553   9.624   3.307
20891SOL    HW174327   3.570   9.597   3.212
20891SOL    HW274328   3.541   9.542   3.363
20892SOL     OW74329   1.468   2.572   1.599
20892SOL    HW174330   1.447   2.653   1.544
20892SOL    HW274331   1.383   2.524   1.619
20893SOL     OW74332   9.339   8.316   3.263
20893SOL    HW174333   9.248   8.275   3.264
20893SOL    HW274334   9.397   8.272   3.331
20894SOL     OW74335   1.856   5.219   2.485
20894SOL    HW174336   1.786   5.153   2.514
20894SOL    HW274337   1.946   5.186   2.514
20895SOL     OW74338   3.865   7.122   5.879
20895SOL    HW174339   3.789   7.108   5.944
20895SOL    HW274340   3.950   7.091   5.921
20896SOL     OW74341   4.219   7.516   0.400
20896SOL    HW174342   4.160   7.593   0.378
20896SOL    HW274343   4.195   7.438   0.341
20897SOL     OW74344   1.707   7.290   2.625
20897SOL    HW174345   1.768   7.339   2.687
20897SOL    HW274346   1.713   7.330   2.534
20898SOL     OW74347   7.707   8.826   5.733
20898SOL    HW174348   7.713   8.869   5.823
20898SOL    HW274349   7.678   8.895   5.666
20899SOL     OW74350   1.252   8.159   1.116
20899SOL    HW174351   1.252   8.244   1.168
20899SOL    HW274352   1.314   8.093   1.159
20900SOL     OW74353   6.334   5.060   2.200
20900SOL    HW174354   6.235   5.064   2.182
20900SOL    HW274355   6.354   4.983   2.260
20901SOL     OW74356   1.091   4.008   0.293
20901SOL    HW174357   1.034   3.947   0.347
20901SOL    HW274358   1.033   4.065   0.235
20902SOL     OW74359   8.032   5.964   2.280
20902SOL    HW174360   7.955   5.913   2.241
20902SOL    HW274361   8.014   6.062   2.274
20903SOL     OW74362   7.618   5.114   6.969
20903SOL    HW174363   7.587   5.022   6.991
20903SOL    HW274364   7.547   5.162   6.918
20904SOL     OW74365   8.817   6.386   2.823
20904SOL    HW174366   8.775   6.297   2.808
20904SOL    HW274367   8.793   6.419   2.915
20905SOL     OW74368   7.509   7.992   6.169
20905SOL    HW174369   7.528   8.080   6.211
20905SOL    HW274370   7.410   7.978   6.161
20906SOL     OW74371   3.906   7.418   4.470
20906SOL    HW174372   3.944   7.480   4.540
20906SOL    HW274373   3.899   7.326   4.508
20907SOL     OW74374   2.374   0.892   4.719
20907SOL    HW174375   2.412   0.842   4.797
20907SOL    HW274376   2.416   0.982   4.713
20908SOL     OW74377   1.920   6.876   6.765
20908SOL    HW174378   1.861   6.889   6.845
20908SOL    HW274379   1.921   6.959   6.710
20909SOL     OW74380   5.717   0.066   6.671
20909SOL    HW174381   5.740   9.982   6.719
20909SOL    HW274382   5.718   0.143   6.736
20910SOL     OW74383   7.305   1.546   3.515
20910SOL    HW174384   7.240   1.611   3.554
20910SOL    HW274385   7.289   1.538   3.416
20911SOL     OW74386   0.582   3.179   2.132
20911SOL    HW174387   0.673   3.202   2.168
20911SOL    HW274388   0.513   3.236   2.177
20912SOL     OW74389   2.584   4.373   3.757
20912SOL    HW174390   2.491   4.337   3.759
20912SOL    HW274391   2.585   4.466   3.795
20913SOL     OW74392   7.673   8.768   4.010
20913SOL    HW174393   7.765   8.800   4.033
20913SOL    HW274394   7.635   8.718   4.088
20914SOL     OW74395   7.120   8.682   5.957
20914SOL    HW174396   7.106   8.766   6.010
20914SOL    HW274397   7.208   8.642   5.981
20915SOL     OW74398   8.422   3.989   0.100
20915SOL    HW174399   8.474   4.011   0.018
20915SOL    HW274400   8.366   4.068   0.127
20916SOL     OW74401   9.705   9.064   4.054
20916SOL    HW174402   9.620   9.109   4.026
20916SOL    HW274403   9.745   9.114   4.131
20917SOL     OW74404   6.623   8.699   6.474
20917SOL    HW174405   6.643   8.786   6.519
20917SOL    HW274406   6.534   8.703   6.431
20918SOL     OW74407   0.187   6.376   6.383
20918SOL    HW174408   0.215   6.376   6.479
20918SOL    HW274409   0.091   6.348   6.376
20919SOL     OW74410   5.283   7.350   2.882
20919SOL    HW174411   5.374   7.380   2.911
20919SOL    HW274412   5.265   7.381   2.789
20920SOL     OW74413   1.588   4.723   7.258
20920SOL    HW174414   1.571   4.817   7.287
20920SOL    HW274415   1.513   4.665   7.288
20921SOL     OW74416   2.821   1.364   6.627
20921SOL    HW174417   2.918   1.366   6.650
20921SOL    HW274418   2.785   1.457   6.625
20922SOL     OW74419   2.677   0.225   2.165
20922SOL    HW174420   2.585   0.242   2.130
20922SOL    HW274421   2.740   0.214   2.088
20923SOL     OW74422   4.413   0.626   1.204
20923SOL    HW174423   4.472   0.707   1.193
20923SOL    HW274424   4.444   0.573   1.283
20924SOL     OW74425   6.698   5.482   0.592
20924SOL    HW174426   6.672   5.385   0.593
20924SOL    HW274427   6.790   5.491   0.553
20925SOL     OW74428   4.293   3.288   6.351
20925SOL    HW174429   4.341   3.208   6.387
20925SOL    HW274430   4.249   3.264   6.265
20926SOL     OW74431   8.472   8.085   3.539
20926SOL    HW174432   8.410   8.048   3.470
20926SOL    HW274433   8.540   8.144   3.496
20927SOL     OW74434   3.236   8.581   1.667
20927SOL    HW174435   3.174   8.632   1.607
20927SOL    HW274436   3.186   8.508   1.713
20928SOL     OW74437   3.203   0.630   6.206
20928SOL    HW174438   3.215   0.726   6.233
20928SOL    HW274439   3.110   0.601   6.230
20929SOL     OW74440   9.055   7.586   7.677
20929SOL    HW174441   9.005   7.520   7.621
20929SOL    HW274442   9.151   7.559   7.682
20930SOL     OW74443   9.300   0.906   1.823
20930SOL    HW174444   9.399   0.889   1.829
20930SOL    HW274445   9.252   0.846   1.888
20931SOL     OW74446   8.885   7.650   5.906
20931SOL    HW174447   8.826   7.570   5.918
20931SOL    HW274448   8.881   7.681   5.811
20932SOL     OW74449   4.416   4.243   5.811
20932SOL    HW174450   4.484   4.254   5.883
20932SOL    HW274451   4.326   4.226   5.853
20933SOL     OW74452   5.258   8.316   7.460
20933SOL    HW174453   5.301   8.250   7.521
20933SOL    HW274454   5.163   8.330   7.488
20934SOL     OW74455   9.152   5.209   6.574
20934SOL    HW174456   9.210   5.229   6.495
20934SOL    HW274457   9.170   5.117   6.606
20935SOL     OW74458   1.644   2.753   4.551
20935SOL    HW174459   1.611   2.774   4.643
20935SOL    HW274460   1.596   2.672   4.516
20936SOL     OW74461   4.574   5.107   4.579
20936SOL    HW174462   4.596   5.191   4.529
20936SOL    HW274463   4.537   5.131   4.668
20937SOL     OW74464   0.632   2.085   3.600
20937SOL    HW174465   0.551   2.131   3.562
20937SOL    HW274466   0.674   2.144   3.670
20938SOL     OW74467   9.296   9.794   5.735
20938SOL    HW174468   9.295   9.845   5.649
20938SOL    HW274469   9.293   9.696   5.716
20939SOL     OW74470   2.011   4.927   6.631
20939SOL    HW174471   2.058   5.002   6.583
20939SOL    HW274472   2.045   4.921   6.725
20940SOL     OW74473   3.357   0.345   2.651
20940SOL    HW174474   3.376   0.356   2.553
20940SOL    HW274475   3.420   0.278   2.690
20941SOL     OW74476   8.147   4.659   7.557
20941SOL    HW174477   8.116   4.648   7.462
20941SOL    HW274478   8.210   4.585   7.580
20942SOL     OW74479   9.857   5.924   3.161
20942SOL    HW174480   9.861   5.962   3.253
20942SOL    HW274481   9.777   5.960   3.113
20943SOL     OW74482   2.786   4.351   0.857
20943SOL    HW174483   2.727   4.289   0.805
20943SOL    HW274484   2.768   4.340   0.955
20944SOL     OW74485   7.038   4.883   3.102
20944SOL    HW174486   7.098   4.823   3.156
20944SOL    HW274487   7.080   4.973   3.093
20945SOL     OW74488   8.379   3.690   7.574
20945SOL    HW174489   8.439   3.644   7.639
20945SOL    HW274490   8.302   3.630   7.551
20946SOL     OW74491   3.060   8.807   7.102
20946SOL    HW174492   3.054   8.782   7.005
20946SOL    HW274493   3.082   8.726   7.156
20947SOL     OW74494   6.805   1.009   6.367
20947SOL    HW174495   6.757   1.075   6.425
20947SOL    HW274496   6.831   0.930   6.421
20948SOL     OW74497   0.072   2.254   4.720
20948SOL    HW174498   0.115   2.169   4.751
20948SOL    HW274499   0.143   2.320   4.695
20949SOL     OW74500   4.933   2.022   7.665
20949SOL    HW174501   4.943   1.974   7.578
20949SOL    HW274502   4.872   1.970   7.724
20950SOL     OW74503   3.912   6.251   3.168
20950SOL    HW174504   3.858   6.335   3.166
20950SOL    HW274505   4.002   6.270   3.208
20951SOL     OW74506   7.365   9.845   2.993
20951SOL    HW174507   7.292   9.812   3.053
20951SOL    HW274508   7.433   9.773   2.981
20952SOL     OW74509   7.797   2.206   2.169
20952SOL    HW174510   7.785   2.267   2.091
20952SOL    HW274511   7.713   2.154   2.185
20953SOL     OW74512   4.780   9.831   4.092
20953SOL    HW174513   4.860   9.777   4.066
20953SOL    HW274514   4.732   9.862   4.010
20954SOL     OW74515   4.197   3.542   1.840
20954SOL    HW174516   4.150   3.509   1.758
20954SOL    HW274517   4.143   3.615   1.883
20955SOL     OW74518   5.580   1.436   4.679
20955SOL    HW174519   5.561   1.391   4.766
20955SOL    HW274520   5.585   1.535   4.692
20956SOL     OW74521   7.209   0.932   3.882
20956SOL    HW174522   7.299   0.905   3.850
20956SOL    HW274523   7.205   1.031   3.891
20957SOL     OW74524   0.602   2.982   6.284
20957SOL    HW174525   0.550   3.007   6.365
20957SOL    HW274526   0.568   2.896   6.247
20958SOL     OW74527   4.282   4.885   2.924
20958SOL    HW174528   4.264   4.982   2.914
20958SOL    HW274529   4.372   4.863   2.886
20959SOL     OW74530   3.800   0.217   4.832
20959SOL    HW174531   3.718   0.165   4.809
20959SOL    HW274532   3.876   0.188   4.774
20960SOL     OW74533   1.420   6.943   7.506
20960SOL    HW174534   1.473   6.903   7.581
20960SOL    HW274535   1.380   7.029   7.537
20961SOL     OW74536   0.136   2.964   4.480
20961SOL    HW174537   0.100   2.871   4.468
20961SOL    HW274538   0.212   2.962   4.545
20962SOL     OW74539   4.628   7.613   5.726
20962SOL    HW174540   4.574   7.616   5.810
20962SOL    HW274541   4.714   7.565   5.744
20963SOL     OW74542   9.539   8.795   0.841
20963SOL    HW174543   9.477   8.860   0.797
20963SOL    HW274544   9.517   8.790   0.939
20964SOL     OW74545   3.314   2.368   1.769
20964SOL    HW174546   3.315   2.332   1.862
20964SOL    HW274547   3.407   2.391   1.741
20965SOL     OW74548   5.045   7.575   3.754
20965SOL    HW174549   5.079   7.513   3.683
20965SOL    HW274550   4.958   7.541   3.789
20966SOL     OW74551   2.359   6.504   3.965
20966SOL    HW174552   2.442   6.478   4.013
20966SOL    HW274553   2.343   6.602   3.975
20967SOL     OW74554   3.472   9.155   1.620
20967SOL    HW174555   3.413   9.128   1.544
20967SOL    HW274556   3.421   9.146   1.706
20968SOL     OW74557   7.510   1.130   1.149
20968SOL    HW174558   7.414   1.157   1.146
20968SOL    HW274559   7.568   1.211   1.148
20969SOL     OW74560   0.670   6.160   7.073
20969SOL    HW174561   0.677   6.215   7.156
20969SOL    HW274562   0.733   6.196   7.004
20970SOL     OW74563   2.752   0.905   6.341
20970SOL    HW174564   2.700   0.990   6.352
20970SOL    HW274565   2.688   0.829   6.327
20971SOL     OW74566   2.805   6.903   0.474
20971SOL    HW174567   2.814   6.982   0.534
20971SOL    HW274568   2.732   6.843   0.509
20972SOL     OW74569   6.096   8.898   2.387
20972SOL    HW174570   6.044   8.813   2.375
20972SOL    HW274571   6.155   8.890   2.468
20973SOL     OW74572   8.938   8.876   1.788
20973SOL    HW174573   8.944   8.958   1.732
20973SOL    HW274574   9.000   8.884   1.866
20974SOL     OW74575   8.975   4.292   7.326
20974SOL    HW174576   8.999   4.341   7.242
20974SOL    HW274577   9.044   4.221   7.344
20975SOL     OW74578   6.464   3.807   1.663
20975SOL    HW174579   6.515   3.864   1.727
20975SOL    HW274580   6.466   3.712   1.693
20976SOL     OW74581   8.053   2.281   2.600
20976SOL    HW174582   8.121   2.207   2.601
20976SOL    HW274583   8.026   2.301   2.506
20977SOL     OW74584   7.064   5.433   2.367
20977SOL    HW174585   7.149   5.433   2.315
20977SOL    HW274586   7.049   5.524   2.406
20978SOL     OW74587   2.358   9.581   2.529
20978SOL    HW174588   2.443   9.576   2.477
20978SOL    HW274589   2.292   9.517   2.490
20979SOL     OW74590   7.353   0.487   1.525
20979SOL    HW174591   7.295   0.536   1.460
20979SOL    HW274592   7.381   0.400   1.484
20980SOL     OW74593   2.800   6.287   3.462
20980SOL    HW174594   2.812   6.358   3.393
20980SOL    HW274595   2.764   6.204   3.419
20981SOL     OW74596   9.847   3.147   7.842
20981SOL    HW174597   9.870   3.177   7.934
20981SOL    HW274598   9.856   3.224   7.778
20982SOL     OW74599   1.820   3.750   7.607
20982SOL    HW174600   1.812   3.683   7.533
20982SOL    HW274601   1.917   3.770   7.622
20983SOL     OW74602   9.595   9.142   5.709
20983SOL    HW174603   9.658   9.140   5.631
20983SOL    HW274604   9.633   9.089   5.784
20984SOL     OW74605   1.367   5.888   5.408
20984SOL    HW174606   1.344   5.866   5.313
20984SOL    HW274607   1.426   5.969   5.410
20985SOL     OW74608   8.542   9.205   5.512
20985SOL    HW174609   8.443   9.195   5.522
20985SOL    HW274610   8.563   9.298   5.483
20986SOL     OW74611   3.973   3.787   2.968
20986SOL    HW174612   3.974   3.883   2.997
20986SOL    HW274613   3.906   3.775   2.894
20987SOL     OW74614   9.145   4.143   2.247
20987SOL    HW174615   9.074   4.077   2.223
20987SOL    HW274616   9.225   4.095   2.283
20988SOL     OW74617   8.947   8.429   0.796
20988SOL    HW174618   9.003   8.368   0.853
20988SOL    HW274619   9.004   8.504   0.763
20989SOL     OW74620   9.605   2.055   2.142
20989SOL    HW174621   9.593   1.956   2.137
20989SOL    HW274622   9.666   2.077   2.218
20990SOL     OW74623   9.289   9.366   5.188
20990SOL    HW174624   9.385   9.352   5.212
20990SOL    HW274625   9.232   9.309   5.247
20991SOL     OW74626   9.259   2.722   5.457
20991SOL    HW174627   9.338   2.681   5.411
20991SOL    HW274628   9.291   2.780   5.532
20992SOL     OW74629   9.009   2.781   5.328
20992SOL    HW174630   9.094   2.763   5.377
20992SOL    HW274631   9.028   2.792   5.230
20993SOL     OW74632   5.941   7.910   3.935
20993SOL    HW174633   5.916   7.818   3.967
20993SOL    HW274634   5.869   7.946   3.875
20994SOL     OW74635   8.131   9.639   0.894
20994SOL    HW174636   8.181   9.703   0.953
20994SOL    HW274637   8.113   9.554   0.944
20995SOL     OW74638   0.349   5.257   2.693
20995SOL    HW174639   0.354   5.352   2.723
20995SOL    HW274640   0.387   5.197   2.763
20996SOL     OW74641   7.140   7.420   6.074
20996SOL    HW174642   7.227   7.378   6.100
20996SOL    HW274643   7.105   7.376   5.991
20997SOL     OW74644   8.913   7.129   7.548
20997SOL    HW174645   9.010   7.116   7.530
20997SOL    HW274646   8.891   7.226   7.543
20998SOL     OW74647   6.008   2.078   5.753
20998SOL    HW174648   6.107   2.075   5.768
20998SOL    HW274649   5.962   2.019   5.820
20999SOL     OW74650   9.006   0.252   1.577
20999SOL    HW174651   9.043   0.247   1.670
20999SOL    HW274652   9.063   0.313   1.522
21000SOL     OW74653   7.599   3.398   3.251
21000SOL    HW174654   7.562   3.464   3.185
21000SOL    HW274655   7.688   3.430   3.284
21001SOL     OW74656   1.576   6.368   7.097
21001SOL    HW174657   1.495   6.315   7.072
21001SOL    HW274658   1.615   6.410   7.015
21002SOL     OW74659   2.188   6.827   6.447
21002SOL    HW174660   2.231   6.811   6.358
21002SOL    HW274661   2.221   6.759   6.513
21003SOL     OW74662   1.327   8.772   6.960
21003SOL    HW174663   1.254   8.839   6.970
21003SOL    HW274664   1.362   8.774   6.866
21004SOL     OW74665   5.925   9.832   7.053
21004SOL    HW174666   5.895   9.850   6.959
21004SOL    HW274667   6.008   9.885   7.072
21005SOL     OW74668   2.296   3.004   4.927
21005SOL    HW174669   2.391   2.974   4.925
21005SOL    HW274670   2.268   3.032   4.835
21006SOL     OW74671   6.408   5.376   1.902
21006SOL    HW174672   6.353   5.429   1.967
21006SOL    HW274673   6.432   5.288   1.944
21007SOL     OW74674   3.969   5.628   4.353
21007SOL    HW174675   3.938   5.596   4.443
21007SOL    HW274676   3.908   5.700   4.320
21008SOL     OW74677   3.936   6.383   7.860
21008SOL    HW174678   3.917   6.295   7.816
21008SOL    HW274679   4.034   6.399   7.863
21009SOL     OW74680   6.981   2.062   0.371
21009SOL    HW174681   6.887   2.034   0.353
21009SOL    HW274682   7.044   2.009   0.314
21010SOL     OW74683   5.711   4.062   0.061
21010SOL    HW174684   5.784   4.129   0.043
21010SOL    HW274685   5.623   4.110   0.064
21011SOL     OW74686   7.319   6.805   5.205
21011SOL    HW174687   7.394   6.766   5.258
21011SOL    HW274688   7.300   6.747   5.126
21012SOL     OW74689   3.159   6.069   5.404
21012SOL    HW174690   3.159   6.144   5.471
21012SOL    HW274691   3.249   6.026   5.402
21013SOL     OW74692   2.088   0.011   4.381
21013SOL    HW174693   2.023   0.019   4.456
21013SOL    HW274694   2.106   9.914   4.364
21014SOL     OW74695   9.980   6.519   2.122
21014SOL    HW174696   0.079   6.538   2.124
21014SOL    HW274697   9.933   6.591   2.071
21015SOL     OW74698   6.546   2.469   3.737
21015SOL    HW174699   6.603   2.536   3.785
21015SOL    HW274700   6.574   2.465   3.641
21016SOL     OW74701   4.459   6.902   3.188
21016SOL    HW174702   4.388   6.843   3.226
21016SOL    HW274703   4.430   6.998   3.194
21017SOL     OW74704   3.457   8.873   0.630
21017SOL    HW174705   3.401   8.866   0.713
21017SOL    HW274706   3.534   8.810   0.636
21018SOL     OW74707   9.738   9.580   0.056
21018SOL    HW174708   9.727   9.626  10.049
21018SOL    HW274709   9.649   9.574   0.101
21019SOL     OW74710   1.442   7.055   1.337
21019SOL    HW174711   1.483   7.145   1.323
21019SOL    HW274712   1.343   7.063   1.339
21020SOL     OW74713   6.579   2.773   4.096
21020SOL    HW174714   6.488   2.743   4.123
21020SOL    HW274715   6.609   2.722   4.015
21021SOL     OW74716   2.378   8.038   1.396
21021SOL    HW174717   2.393   8.080   1.486
21021SOL    HW274718   2.355   8.109   1.330
21022SOL     OW74719   1.769   8.399   0.400
21022SOL    HW174720   1.771   8.389   0.301
21022SOL    HW274721   1.842   8.343   0.441
21023SOL     OW74722   1.287   5.097   5.438
21023SOL    HW174723   1.253   5.011   5.401
21023SOL    HW274724   1.261   5.106   5.534
21024SOL     OW74725   0.773   1.216   3.985
21024SOL    HW174726   0.750   1.144   4.050
21024SOL    HW274727   0.797   1.300   4.035
21025SOL     OW74728   7.464   0.113   2.373
21025SOL    HW174729   7.490   0.027   2.329
21025SOL    HW274730   7.411   0.092   2.456
21026SOL     OW74731   7.563   8.246   6.251
21026SOL    HW174732   7.569   8.298   6.335
21026SOL    HW274733   7.646   8.260   6.197
21027SOL     OW74734   9.961   4.902   4.148
21027SOL    HW174735   9.907   4.913   4.231
21027SOL    HW274736   0.005   4.812   4.147
21028SOL     OW74737   7.701   5.182   0.758
21028SOL    HW174738   7.666   5.243   0.687
21028SOL    HW274739   7.763   5.232   0.818
21029SOL     OW74740   2.299   4.562   0.585
21029SOL    HW174741   2.306   4.662   0.589
21029SOL    HW274742   2.357   4.521   0.655
21030SOL     OW74743   4.252   5.361   3.600
21030SOL    HW174744   4.168   5.320   3.636
21030SOL    HW274745   4.271   5.445   3.651
21031SOL     OW74746   0.566   9.428   0.259
21031SOL    HW174747   0.495   9.498   0.252
21031SOL    HW274748   0.654   9.467   0.232
21032SOL     OW74749   6.587   0.466   0.717
21032SOL    HW174750   6.546   0.543   0.669
21032SOL    HW274751   6.516   0.417   0.768
21033SOL     OW74752   2.158   7.154   0.422
21033SOL    HW174753   2.213   7.071   0.424
21033SOL    HW274754   2.129   7.177   0.515
21034SOL     OW74755   0.001   7.377   4.344
21034SOL    HW174756   9.955   7.320   4.411
21034SOL    HW274757   0.098   7.386   4.368
21035SOL     OW74758   1.494   2.807   5.542
21035SOL    HW174759   1.405   2.794   5.499
21035SOL    HW274760   1.523   2.902   5.530
21036SOL     OW74761   8.365   6.535   5.272
21036SOL    HW174762   8.298   6.463   5.290
21036SOL    HW274763   8.318   6.620   5.248
21037SOL     OW74764   6.112   9.284   4.078
21037SOL    HW174765   6.143   9.349   4.008
21037SOL    HW274766   6.185   9.268   4.144
21038SOL     OW74767   1.563   1.128   3.910
21038SOL    HW174768   1.555   1.128   3.810
21038SOL    HW274769   1.594   1.217   3.942
21039SOL     OW74770   9.166   0.581   1.801
21039SOL    HW174771   9.077   0.591   1.757
21039SOL    HW274772   9.172   0.641   1.880
21040SOL     OW74773   5.273   4.678   0.770
21040SOL    HW174774   5.373   4.684   0.775
21040SOL    HW274775   5.236   4.663   0.862
21041SOL     OW74776   0.961   2.541   4.707
21041SOL    HW174777   0.984   2.576   4.798
21041SOL    HW274778   0.888   2.597   4.668
21042SOL     OW74779   0.836   7.855   0.756
21042SOL    HW174780   0.879   7.929   0.704
21042SOL    HW274781   0.737   7.863   0.751
21043SOL     OW74782   0.945   4.194   5.428
21043SOL    HW174783   0.937   4.290   5.454
21043SOL    HW274784   0.872   4.141   5.470
21044SOL     OW74785   3.551   1.009   1.794
21044SOL    HW174786   3.571   1.106   1.785
21044SOL    HW274787   3.637   0.957   1.789
21045SOL     OW74788   8.936   1.037   2.549
21045SOL    HW174789   8.932   0.964   2.617
21045SOL    HW274790   8.968   1.000   2.462
21046SOL     OW74791   4.759   8.467   4.229
21046SOL    HW174792   4.759   8.470   4.329
21046SOL    HW274793   4.803   8.382   4.199
21047SOL     OW74794   7.147   2.830   3.331
21047SOL    HW174795   7.192   2.746   3.301
21047SOL    HW274796   7.172   2.905   3.270
21048SOL     OW74797   5.829   0.555   6.568
21048SOL    HW174798   5.879   0.624   6.517
21048SOL    HW274799   5.894   0.498   6.619
21049SOL     OW74800   6.870   7.579   4.428
21049SOL    HW174801   6.916   7.494   4.454
21049SOL    HW274802   6.865   7.585   4.329
21050SOL     OW74803   9.173   3.085   2.059
21050SOL    HW174804   9.088   3.108   2.012
21050SOL    HW274805   9.152   3.058   2.154
21051SOL     OW74806   6.484   1.017   6.893
21051SOL    HW174807   6.559   1.064   6.846
21051SOL    HW274808   6.468   1.060   6.982
21052SOL     OW74809   6.686   9.730   1.476
21052SOL    HW174810   6.721   9.733   1.570
21052SOL    HW274811   6.763   9.724   1.413
21053SOL     OW74812   4.944   9.964   0.807
21053SOL    HW174813   4.948   0.060   0.777
21053SOL    HW274814   4.849   9.938   0.821
21054SOL     OW74815   4.078   5.012   7.133
21054SOL    HW174816   4.106   5.101   7.098
21054SOL    HW274817   4.158   4.962   7.165
21055SOL     OW74818   1.493   9.501   3.933
21055SOL    HW174819   1.474   9.508   4.030
21055SOL    HW274820   1.409   9.477   3.884
21056SOL     OW74821   7.333   6.136   1.642
21056SOL    HW174822   7.302   6.083   1.720
21056SOL    HW274823   7.268   6.210   1.624
21057SOL     OW74824   6.996   1.133   6.204
21057SOL    HW174825   6.956   1.220   6.173
21057SOL    HW274826   6.929   1.083   6.258
21058SOL     OW74827   3.565   9.393   1.496
21058SOL    HW174828   3.659   9.409   1.527
21058SOL    HW274829   3.524   9.319   1.550
21059SOL     OW74830   0.012   6.830   3.032
21059SOL    HW174831   9.949   6.805   2.958
21059SOL    HW274832   0.061   6.748   3.063
21060SOL     OW74833   4.888   9.659   2.676
21060SOL    HW174834   4.831   9.603   2.736
21060SOL    HW274835   4.845   9.749   2.663
21061SOL     OW74836   1.118   9.302   2.663
21061SOL    HW174837   1.058   9.280   2.740
21061SOL    HW274838   1.207   9.257   2.676
21062SOL     OW74839   1.149   8.375   2.173
21062SOL    HW174840   1.052   8.371   2.196
21062SOL    HW274841   1.178   8.288   2.133
21063SOL     OW74842   8.052   9.100   5.818
21063SOL    HW174843   7.997   9.092   5.735
21063SOL    HW274844   8.134   9.044   5.809
21064SOL     OW74845   2.879   3.558   4.083
21064SOL    HW174846   2.962   3.607   4.055
21064SOL    HW274847   2.895   3.460   4.080
21065SOL     OW74848   8.709   3.586   2.320
21065SOL    HW174849   8.654   3.513   2.277
21065SOL    HW274850   8.796   3.548   2.351
21066SOL     OW74851   1.053   5.261   3.898
21066SOL    HW174852   1.104   5.182   3.866
21066SOL    HW274853   1.026   5.248   3.993
21067SOL     OW74854   8.387   5.694   7.517
21067SOL    HW174855   8.463   5.665   7.459
21067SOL    HW274856   8.411   5.680   7.613
21068SOL     OW74857   0.831   2.743   2.024
21068SOL    HW174858   0.915   2.719   2.071
21068SOL    HW274859   0.786   2.660   1.990
21069SOL     OW74860   3.972   3.463   2.667
21069SOL    HW174861   3.933   3.419   2.748
21069SOL    HW274862   4.064   3.427   2.650
21070SOL     OW74863   6.790   8.777   2.965
21070SOL    HW174864   6.776   8.876   2.972
21070SOL    HW274865   6.707   8.730   2.996
21071SOL     OW74866   3.760   5.024   2.900
21071SOL    HW174867   3.763   4.934   2.942
21071SOL    HW274868   3.668   5.040   2.863
21072SOL     OW74869   6.641   5.825   1.505
21072SOL    HW174870   6.591   5.911   1.493
21072SOL    HW274871   6.657   5.783   1.416
21073SOL     OW74872   7.725   0.719   1.775
21073SOL    HW174873   7.788   0.648   1.745
21073SOL    HW274874   7.635   0.704   1.732
21074SOL     OW74875   6.944   0.523   5.049
21074SOL    HW174876   6.913   0.473   5.130
21074SOL    HW274877   6.928   0.621   5.063
21075SOL     OW74878   9.417   9.175   4.628
21075SOL    HW174879   9.362   9.092   4.622
21075SOL    HW274880   9.497   9.167   4.569
21076SOL     OW74881   0.136   7.113   6.869
21076SOL    HW174882   0.118   7.206   6.838
21076SOL    HW274883   0.057   7.055   6.847
21077SOL     OW74884   1.348   4.728   2.518
21077SOL    HW174885   1.320   4.648   2.465
21077SOL    HW274886   1.280   4.746   2.589
21078SOL     OW74887   5.439   9.054   5.465
21078SOL    HW174888   5.352   9.096   5.493
21078SOL    HW274889   5.485   9.113   5.399
21079SOL     OW74890   5.728   8.681   3.664
21079SOL    HW174891   5.780   8.726   3.592
21079SOL    HW274892   5.645   8.734   3.684
21080SOL     OW74893   4.954   3.897   7.263
21080SOL    HW174894   4.873   3.854   7.304
21080SOL    HW274895   4.925   3.966   7.196
21081SOL     OW74896   8.061   1.174   3.731
21081SOL    HW174897   8.012   1.224   3.659
21081SOL    HW274898   8.114   1.100   3.690
21082SOL     OW74899   1.057   9.817   7.701
21082SOL    HW174900   1.053   9.718   7.685
21082SOL    HW274901   1.000   9.864   7.635
21083SOL     OW74902   8.824   9.623   7.094
21083SOL    HW174903   8.842   9.720   7.108
21083SOL    HW274904   8.750   9.611   7.029
21084SOL     OW74905   2.430   2.584   6.111
21084SOL    HW174906   2.435   2.487   6.137
21084SOL    HW274907   2.520   2.613   6.078
21085SOL     OW74908   8.833   5.537   5.341
21085SOL    HW174909   8.740   5.553   5.308
21085SOL    HW274910   8.850   5.439   5.346
21086SOL     OW74911   3.300   1.003   2.819
21086SOL    HW174912   3.331   1.097   2.826
21086SOL    HW274913   3.269   0.970   2.908
21087SOL     OW74914   0.040   6.699   4.807
21087SOL    HW174915   0.017   6.669   4.900
21087SOL    HW274916   9.956   6.726   4.759
21088SOL     OW74917   0.149   4.979   1.588
21088SOL    HW174918   0.054   4.976   1.619
21088SOL    HW274919   0.158   5.045   1.513
21089SOL     OW74920   0.324   2.597   2.915
21089SOL    HW174921   0.326   2.528   2.988
21089SOL    HW274922   0.395   2.665   2.933
21090SOL     OW74923   9.974   3.487   6.168
21090SOL    HW174924   0.055   3.512   6.115
21090SOL    HW274925   9.907   3.444   6.107
21091SOL     OW74926   3.705   6.615   5.082
21091SOL    HW174927   3.727   6.527   5.039
21091SOL    HW274928   3.608   6.616   5.106
21092SOL     OW74929   9.115   1.052   3.024
21092SOL    HW174930   9.120   0.959   2.989
21092SOL    HW274931   9.193   1.069   3.085
21093SOL     OW74932   4.097   6.755   4.876
21093SOL    HW174933   4.136   6.763   4.968
21093SOL    HW274934   3.998   6.747   4.883
21094SOL     OW74935   4.369   3.833   5.604
21094SOL    HW174936   4.447   3.770   5.606
21094SOL    HW274937   4.303   3.807   5.674
21095SOL     OW74938   9.298   4.248   1.158
21095SOL    HW174939   9.285   4.163   1.208
21095SOL    HW274940   9.258   4.239   1.066
21096SOL     OW74941   2.749   5.902   1.142
21096SOL    HW174942   2.665   5.865   1.104
21096SOL    HW274943   2.810   5.931   1.068
21097SOL     OW74944   2.799   1.883   3.413
21097SOL    HW174945   2.803   1.949   3.338
21097SOL    HW274946   2.888   1.840   3.424
21098SOL     OW74947   2.003   6.823   4.060
21098SOL    HW174948   2.073   6.891   4.083
21098SOL    HW274949   2.018   6.741   4.116
21099SOL     OW74950   8.631   3.651   5.882
21099SOL    HW174951   8.601   3.663   5.977
21099SOL    HW274952   8.697   3.722   5.859
21100SOL     OW74953   2.893   3.000   5.211
21100SOL    HW174954   2.945   3.060   5.150
21100SOL    HW274955   2.957   2.944   5.264
21101SOL     OW74956   0.604   7.871   3.015
21101SOL    HW174957   0.665   7.910   2.946
21101SOL    HW274958   0.514   7.915   3.009
21102SOL     OW74959   9.840   8.647   0.591
21102SOL    HW174960   9.741   8.631   0.585
21102SOL    HW274961   9.861   8.700   0.673
21103SOL     OW74962   2.367   4.937   1.109
21103SOL    HW174963   2.345   5.020   1.058
21103SOL    HW274964   2.446   4.892   1.068
21104SOL     OW74965   6.431   2.777   3.530
21104SOL    HW174966   6.417   2.716   3.452
21104SOL    HW274967   6.527   2.804   3.534
21105SOL     OW74968   7.422   9.192   1.931
21105SOL    HW174969   7.366   9.251   1.872
21105SOL    HW274970   7.397   9.096   1.914
21106SOL     OW74971   5.742   9.541   5.993
21106SOL    HW174972   5.710   9.602   5.920
21106SOL    HW274973   5.751   9.448   5.958
21107SOL     OW74974   3.351   5.316   3.669
21107SOL    HW174975   3.308   5.377   3.736
21107SOL    HW274976   3.284   5.293   3.598
21108SOL     OW74977   0.883   9.264   2.813
21108SOL    HW174978   0.856   9.218   2.898
21108SOL    HW274979   0.836   9.222   2.736
21109SOL     OW74980   4.034   5.255   7.695
21109SOL    HW174981   4.132   5.265   7.710
21109SOL    HW274982   4.005   5.316   7.622
21110SOL     OW74983   7.523   0.868   1.464
21110SOL    HW174984   7.602   0.928   1.474
21110SOL    HW274985   7.516   0.808   1.544
21111SOL     OW74986   8.299   4.669   6.181
21111SOL    HW174987   8.394   4.698   6.167
21111SOL    HW274988   8.238   4.747   6.164
21112SOL     OW74989   6.463   1.313   6.379
21112SOL    HW174990   6.484   1.407   6.354
21112SOL    HW274991   6.448   1.258   6.297
21113SOL     OW74992   9.379   9.166   6.251
21113SOL    HW174993   9.401   9.247   6.196
21113SOL    HW274994   9.365   9.194   6.347
21114SOL     OW74995   9.988   0.986   6.048
21114SOL    HW174996   0.078   0.976   6.006
21114SOL    HW274997   9.924   1.024   5.982
21115SOL     OW74998   9.107   8.164   0.518
21115SOL    HW174999   9.099   8.066   0.503
21115SOL    HW275000   9.172   8.181   0.593
21116SOL     OW75001   1.726   3.622   7.153
21116SOL    HW175002   1.691   3.700   7.102
21116SOL    HW275003   1.786   3.568   7.094
21117SOL     OW75004   6.432   8.433   7.086
21117SOL    HW175005   6.529   8.430   7.113
21117SOL    HW275006   6.408   8.526   7.060
21118SOL     OW75007   3.138   5.399   0.679
21118SOL    HW175008   3.089   5.448   0.607
21118SOL    HW275009   3.096   5.309   0.693
21119SOL     OW75010   8.355   6.201   6.468
21119SOL    HW175011   8.310   6.243   6.547
21119SOL    HW275012   8.369   6.103   6.485
21120SOL     OW75013   4.198   9.056   7.848
21120SOL    HW175014   4.170   9.149   7.825
21120SOL    HW275015   4.119   8.995   7.842
21121SOL     OW75016   3.999   6.976   0.254
21121SOL    HW175017   4.090   6.941   0.231
21121SOL    HW275018   3.984   7.062   0.205
21122SOL     OW75019   5.982   8.084   6.609
21122SOL    HW175020   6.041   8.064   6.687
21122SOL    HW275021   6.033   8.136   6.541
21123SOL     OW75022   7.600   7.683   5.665
21123SOL    HW175023   7.583   7.687   5.567
21123SOL    HW275024   7.696   7.703   5.684
21124SOL     OW75025   1.992   6.280   5.389
21124SOL    HW175026   2.003   6.357   5.326
21124SOL    HW275027   1.963   6.315   5.478
21125SOL     OW75028   8.279   5.633   3.805
21125SOL    HW175029   8.303   5.684   3.722
21125SOL    HW275030   8.201   5.573   3.785
21126SOL     OW75031   4.491   4.707   1.770
21126SOL    HW175032   4.481   4.669   1.677
21126SOL    HW275033   4.405   4.750   1.798
21127SOL     OW75034   3.493   9.347   6.494
21127SOL    HW175035   3.536   9.309   6.575
21127SOL    HW275036   3.563   9.377   6.429
21128SOL     OW75037   6.948   3.935   3.211
21128SOL    HW175038   6.981   3.873   3.283
21128SOL    HW275039   6.992   4.024   3.221
21129SOL     OW75040   7.268   2.588   2.392
21129SOL    HW175041   7.182   2.562   2.349
21129SOL    HW275042   7.250   2.649   2.469
21130SOL     OW75043   3.445   2.951   0.565
21130SOL    HW175044   3.450   3.049   0.579
21130SOL    HW275045   3.531   2.918   0.524
21131SOL     OW75046   4.277   4.892   4.194
21131SOL    HW175047   4.179   4.913   4.197
21131SOL    HW275048   4.316   4.927   4.109
21132SOL     OW75049   7.469   0.183   4.316
21132SOL    HW175050   7.404   0.163   4.244
21132SOL    HW275051   7.436   0.144   4.402
21133SOL     OW75052   3.821   8.951   0.533
21133SOL    HW175053   3.771   9.036   0.517
21133SOL    HW275054   3.760   8.884   0.575
21134SOL     OW75055   3.847   9.267   0.917
21134SOL    HW175056   3.777   9.337   0.935
21134SOL    HW275057   3.938   9.309   0.924
21135SOL     OW75058   9.710   3.501   4.273
21135SOL    HW175059   9.680   3.422   4.327
21135SOL    HW275060   9.771   3.558   4.328
21136SOL     OW75061   2.733   8.393   7.650
21136SOL    HW175062   2.673   8.464   7.613
21136SOL    HW275063   2.763   8.420   7.741
21137SOL     OW75064   7.511   4.823   7.360
21137SOL    HW175065   7.465   4.748   7.311
21137SOL    HW275066   7.473   4.910   7.329
21138SOL     OW75067   7.425   5.606   7.433
21138SOL    HW175068   7.412   5.682   7.369
21138SOL    HW275069   7.503   5.626   7.493
21139SOL     OW75070   9.685   0.604   6.098
21139SOL    HW175071   9.769   0.657   6.111
21139SOL    HW275072   9.707   0.513   6.063
21140SOL     OW75073   9.644   0.184   5.822
21140SOL    HW175074   9.576   0.177   5.750
21140SOL    HW275075   9.729   0.141   5.792
21141SOL     OW75076   7.605   1.567   1.311
21141SOL    HW175077   7.666   1.543   1.386
21141SOL    HW275078   7.525   1.616   1.346
21142SOL     OW75079   8.839   5.286   7.209
21142SOL    HW175080   8.836   5.354   7.282
21142SOL    HW275081   8.757   5.296   7.152
21143SOL     OW75082   0.871   2.735   5.696
21143SOL    HW175083   0.928   2.804   5.651
21143SOL    HW275084   0.869   2.752   5.794
21144SOL     OW75085   4.746   2.808   1.197
21144SOL    HW175086   4.652   2.828   1.170
21144SOL    HW275087   4.778   2.726   1.151
21145SOL     OW75088   4.780   8.529   3.957
21145SOL    HW175089   4.717   8.597   3.920
21145SOL    HW275090   4.764   8.520   4.056
21146SOL     OW75091   8.959   0.381   7.351
21146SOL    HW175092   8.955   0.383   7.251
21146SOL    HW275093   8.965   0.286   7.382
21147SOL     OW75094   1.861   2.078   3.587
21147SOL    HW175095   1.934   2.064   3.519
21147SOL    HW275096   1.805   2.155   3.559
21148SOL     OW75097   2.613   9.131   2.985
21148SOL    HW175098   2.557   9.093   2.911
21148SOL    HW275099   2.554   9.153   3.063
21149SOL     OW75100   7.373   0.546   6.021
21149SOL    HW175101   7.453   0.553   5.960
21149SOL    HW275102   7.404   0.535   6.115
21150SOL     OW75103   2.655   0.285   4.821
21150SOL    HW175104   2.587   0.322   4.885
21150SOL    HW275105   2.608   0.250   4.740
21151SOL     OW75106   1.239   8.137   2.058
21151SOL    HW175107   1.270   8.060   2.114
21151SOL    HW275108   1.316   8.172   2.004
21152SOL     OW75109   1.768   9.502   5.419
21152SOL    HW175110   1.775   9.433   5.492
21152SOL    HW275111   1.725   9.584   5.455
21153SOL     OW75112   9.644   0.622   3.648
21153SOL    HW175113   9.741   0.626   3.624
21153SOL    HW275114   9.621   0.701   3.704
21154SOL     OW75115   8.274   0.813   5.673
21154SOL    HW175116   8.327   0.764   5.742
21154SOL    HW275117   8.182   0.774   5.667
21155SOL     OW75118   5.548   1.215   5.562
21155SOL    HW175119   5.503   1.201   5.474
21155SOL    HW275120   5.497   1.283   5.615
21156SOL     OW75121   1.450   1.442   7.607
21156SOL    HW175122   1.531   1.385   7.591
21156SOL    HW275123   1.369   1.394   7.573
21157SOL     OW75124   7.433   1.837   7.858
21157SOL    HW175125   7.459   1.818   7.763
21157SOL    HW275126   7.504   1.891   7.902
21158SOL     OW75127   9.299   5.085   3.356
21158SOL    HW175128   9.260   5.049   3.440
21158SOL    HW275129   9.233   5.145   3.311
21159SOL     OW75130   0.187   9.592   0.871
21159SOL    HW175131   0.273   9.559   0.908
21159SOL    HW275132   0.120   9.602   0.945
21160SOL     OW75133   1.438   1.861   2.626
21160SOL    HW175134   1.357   1.918   2.617
21160SOL    HW275135   1.413   1.775   2.672
21161SOL     OW75136   9.376   8.767   5.426
21161SOL    HW175137   9.452   8.827   5.400
21161SOL    HW275138   9.398   8.719   5.511
21162SOL     OW75139   0.430   8.144   5.085
21162SOL    HW175140   0.437   8.210   5.160
21162SOL    HW275141   0.520   8.129   5.045
21163SOL     OW75142   5.253   2.835   1.830
21163SOL    HW175143   5.341   2.880   1.845
21163SOL    HW275144   5.238   2.768   1.902
21164SOL     OW75145   4.965   1.752   6.378
21164SOL    HW175146   5.060   1.782   6.367
21164SOL    HW275147   4.962   1.671   6.437
21165SOL     OW75148   6.831   9.229   5.881
21165SOL    HW175149   6.739   9.249   5.846
21165SOL    HW275150   6.898   9.244   5.808
21166SOL     OW75151   0.918   0.846   6.663
21166SOL    HW175152   0.877   0.936   6.681
21166SOL    HW275153   1.017   0.851   6.680
21167SOL     OW75154   1.285   7.341   1.605
21167SOL    HW175155   1.207   7.365   1.663
21167SOL    HW275156   1.347   7.281   1.654
21168SOL     OW75157   1.730   3.973   2.805
21168SOL    HW175158   1.660   3.935   2.866
21168SOL    HW275159   1.713   3.940   2.712
21169SOL     OW75160   7.108   0.555   0.812
21169SOL    HW175161   7.130   0.566   0.909
21169SOL    HW275162   7.175   0.495   0.769
21170SOL     OW75163   7.109   3.765   1.662
21170SOL    HW175164   7.146   3.761   1.569
21170SOL    HW275165   7.156   3.697   1.719
21171SOL     OW75166   9.470   2.061   1.560
21171SOL    HW175167   9.483   2.011   1.475
21171SOL    HW275168   9.434   1.999   1.630
21172SOL     OW75169   8.771   7.921   7.654
21172SOL    HW175170   8.751   7.934   7.557
21172SOL    HW275171   8.696   7.959   7.709
21173SOL     OW75172   8.663   7.580   6.779
21173SOL    HW175173   8.716   7.503   6.745
21173SOL    HW275174   8.611   7.620   6.704
21174SOL     OW75175   8.338   5.380   6.149
21174SOL    HW175176   8.386   5.293   6.142
21174SOL    HW275177   8.403   5.451   6.176
21175SOL     OW75178   3.431   0.134   1.116
21175SOL    HW175179   3.495   0.174   1.051
21175SOL    HW275180   3.475   0.124   1.205
21176SOL     OW75181   9.328   0.460   4.716
21176SOL    HW175182   9.338   0.364   4.743
21176SOL    HW275183   9.403   0.514   4.756
21177SOL     OW75184   8.758   5.980   5.280
21177SOL    HW175185   8.760   6.074   5.314
21177SOL    HW275186   8.773   5.917   5.356
21178SOL     OW75187   9.079   2.670   4.477
21178SOL    HW175188   8.982   2.657   4.499
21178SOL    HW275189   9.135   2.608   4.533
21179SOL     OW75190   0.559   0.662   1.970
21179SOL    HW175191   0.486   0.669   1.902
21179SOL    HW275192   0.530   0.600   2.043
21180SOL     OW75193   9.344   1.589   6.053
21180SOL    HW175194   9.385   1.614   6.141
21180SOL    HW275195   9.299   1.669   6.013
21181SOL     OW75196   8.442   1.938   5.502
21181SOL    HW175197   8.364   1.919   5.443
21181SOL    HW275198   8.525   1.942   5.447
21182SOL     OW75199   8.456   7.687   3.967
21182SOL    HW175200   8.436   7.781   3.938
21182SOL    HW275201   8.394   7.624   3.920
21183SOL     OW75202   9.361   6.854   0.058
21183SOL    HW175203   9.337   6.766   0.017
21183SOL    HW275204   9.280   6.894   0.100
21184SOL     OW75205   7.539   3.963   0.531
21184SOL    HW175206   7.625   3.933   0.491
21184SOL    HW275207   7.463   3.936   0.472
21185SOL     OW75208   1.728   7.300   4.363
21185SOL    HW175209   1.664   7.229   4.333
21185SOL    HW275210   1.801   7.258   4.417
21186SOL     OW75211   0.745   0.400   7.081
21186SOL    HW175212   0.810   0.467   7.118
21186SOL    HW275213   0.669   0.390   7.145
21187SOL     OW75214   6.033   3.146   0.946
21187SOL    HW175215   6.022   3.213   0.872
21187SOL    HW275216   5.983   3.177   1.027
21188SOL     OW75217   5.498   0.497   7.535
21188SOL    HW175218   5.428   0.478   7.604
21188SOL    HW275219   5.588   0.498   7.579
21189SOL     OW75220   5.126   2.028   5.460
21189SOL    HW175221   5.143   2.095   5.532
21189SOL    HW275222   5.070   2.071   5.388
21190SOL     OW75223   3.287   9.949   7.063
21190SOL    HW175224   3.242   0.031   7.028
21190SOL    HW275225   3.375   9.937   7.016
21191SOL     OW75226   3.317   6.376   2.787
21191SOL    HW175227   3.312   6.319   2.706
21191SOL    HW275228   3.373   6.331   2.857
21192SOL     OW75229   0.029   1.951   3.790
21192SOL    HW175230   9.998   2.007   3.867
21192SOL    HW275231   9.950   1.925   3.734
21193SOL     OW75232   3.822   6.774   5.493
21193SOL    HW175233   3.787   6.853   5.544
21193SOL    HW275234   3.826   6.795   5.396
21194SOL     OW75235   4.152   0.167   0.094
21194SOL    HW175236   4.134   0.085   0.039
21194SOL    HW275237   4.229   0.150   0.156
21195SOL     OW75238   4.652   0.420   2.598
21195SOL    HW175239   4.659   0.485   2.522
21195SOL    HW275240   4.590   0.346   2.572
21196SOL     OW75241   3.451   9.131   7.174
21196SOL    HW175242   3.447   9.196   7.251
21196SOL    HW275243   3.357   9.108   7.146
21197SOL     OW75244   7.711   1.738   1.128
21197SOL    HW175245   7.673   1.670   1.191
21197SOL    HW275246   7.656   1.821   1.132
21198SOL     OW75247   1.654   5.330   6.295
21198SOL    HW175248   1.685   5.344   6.201
21198SOL    HW275249   1.733   5.311   6.353
21199SOL     OW75250   3.472   7.529   3.186
21199SOL    HW175251   3.479   7.445   3.239
21199SOL    HW275252   3.554   7.540   3.130
21200SOL     OW75253   4.693   4.987   2.439
21200SOL    HW175254   4.759   5.053   2.474
21200SOL    HW275255   4.722   4.895   2.466
21201SOL     OW75256   2.837   9.179   1.873
21201SOL    HW175257   2.761   9.239   1.895
21201SOL    HW275258   2.896   9.169   1.954
21202SOL     OW75259   8.361   2.932   4.903
21202SOL    HW175260   8.278   2.889   4.869
21202SOL    HW275261   8.356   3.031   4.888
21203SOL     OW75262   1.242   0.667   4.606
21203SOL    HW175263   1.214   0.685   4.512
21203SOL    HW275264   1.184   0.595   4.645
21204SOL     OW75265   2.637   8.050   4.901
21204SOL    HW175266   2.601   8.075   4.992
21204SOL    HW275267   2.736   8.042   4.906
21205SOL     OW75268   7.721   6.065   6.967
21205SOL    HW175269   7.686   6.141   7.020
21205SOL    HW275270   7.701   5.979   7.014
21206SOL     OW75271   4.464   5.708   2.159
21206SOL    HW175272   4.448   5.627   2.215
21206SOL    HW275273   4.478   5.682   2.064
21207SOL     OW75274   0.157   1.735   5.881
21207SOL    HW175275   0.152   1.710   5.785
21207SOL    HW275276   0.246   1.709   5.919
21208SOL     OW75277   9.548   1.489   3.733
21208SOL    HW175278   9.567   1.557   3.662
21208SOL    HW275279   9.520   1.403   3.691
21209SOL     OW75280   4.623   8.646   3.548
21209SOL    HW175281   4.548   8.643   3.613
21209SOL    HW275282   4.710   8.657   3.597
21210SOL     OW75283   9.237   7.127   7.468
21210SOL    HW175284   9.302   7.102   7.395
21210SOL    HW275285   9.235   7.055   7.537
21211SOL     OW75286   9.520   6.065   0.253
21211SOL    HW175287   9.501   5.976   0.212
21211SOL    HW275288   9.447   6.088   0.318
21212SOL     OW75289   7.937   3.104   3.890
21212SOL    HW175290   7.881   3.174   3.934
21212SOL    HW275291   8.029   3.105   3.930
21213SOL     OW75292   2.250   3.081   4.655
21213SOL    HW175293   2.151   3.089   4.655
21213SOL    HW275294   2.286   3.104   4.565
21214SOL     OW75295   3.282   3.713   0.250
21214SOL    HW175296   3.369   3.744   0.211
21214SOL    HW275297   3.211   3.782   0.233
21215SOL     OW75298   7.953   8.391   3.733
21215SOL    HW175299   8.043   8.400   3.776
21215SOL    HW275300   7.890   8.455   3.775
21216SOL     OW75301   3.044   3.693   1.466
21216SOL    HW175302   3.054   3.689   1.366
21216SOL    HW275303   3.134   3.681   1.508
21217SOL     OW75304   8.506   7.666   4.381
21217SOL    HW175305   8.536   7.726   4.308
21217SOL    HW275306   8.459   7.719   4.451
21218SOL     OW75307   0.152   3.519   0.308
21218SOL    HW175308   0.229   3.536   0.246
21218SOL    HW275309   0.103   3.604   0.324
21219SOL     OW75310   9.594   8.439   1.766
21219SOL    HW175311   9.603   8.340   1.755
21219SOL    HW275312   9.685   8.480   1.772
21220SOL     OW75313   9.808   1.360   3.067
21220SOL    HW175314   9.869   1.330   3.140
21220SOL    HW275315   9.765   1.446   3.093
21221SOL     OW75316   3.888   5.679   7.236
21221SOL    HW175317   3.980   5.718   7.233
21221SOL    HW275318   3.877   5.617   7.159
21222SOL     OW75319   4.204   7.635   2.179
21222SOL    HW175320   4.191   7.632   2.278
21222SOL    HW275321   4.302   7.642   2.158
21223SOL     OW75322   8.013   1.349   6.222
21223SOL    HW175323   8.020   1.398   6.309
21223SOL    HW275324   8.103   1.345   6.179
21224SOL     OW75325   5.006   4.946   2.344
21224SOL    HW175326   5.074   5.017   2.327
21224SOL    HW275327   4.995   4.935   2.443
21225SOL     OW75328   4.628   4.329   0.785
21225SOL    HW175329   4.649   4.419   0.823
21225SOL    HW275330   4.699   4.303   0.720
21226SOL     OW75331   8.163   3.454   5.320
21226SOL    HW175332   8.203   3.378   5.269
21226SOL    HW275333   8.069   3.431   5.347
21227SOL     OW75334   3.461   8.638   0.282
21227SOL    HW175335   3.405   8.594   0.211
21227SOL    HW275336   3.434   8.734   0.290
21228SOL     OW75337   9.669   8.910   4.438
21228SOL    HW175338   9.678   8.901   4.537
21228SOL    HW275339   9.747   8.865   4.394
21229SOL     OW75340   3.451   6.577   7.131
21229SOL    HW175341   3.481   6.580   7.227
21229SOL    HW275342   3.399   6.660   7.110
21230SOL     OW75343   7.415   2.574   2.164
21230SOL    HW175344   7.363   2.583   2.249
21230SOL    HW275345   7.439   2.478   2.149
21231SOL     OW75346   0.175   4.868   2.627
21231SOL    HW175347   0.130   4.855   2.539
21231SOL    HW275348   0.274   4.860   2.616
21232SOL     OW75349   7.679   6.196   7.357
21232SOL    HW175350   7.661   6.233   7.266
21232SOL    HW275351   7.644   6.102   7.362
21233SOL     OW75352   0.822   6.355   2.767
21233SOL    HW175353   0.825   6.447   2.805
21233SOL    HW275354   0.905   6.339   2.713
21234SOL     OW75355   2.426   2.362   1.651
21234SOL    HW175356   2.464   2.359   1.558
21234SOL    HW275357   2.488   2.316   1.714
21235SOL     OW75358   0.536   9.798   4.629
21235SOL    HW175359   0.460   9.854   4.595
21235SOL    HW275360   0.509   9.702   4.629
21236SOL     OW75361   2.030   1.083   6.838
21236SOL    HW175362   2.011   1.001   6.784
21236SOL    HW275363   1.962   1.092   6.910
21237SOL     OW75364   4.405   2.043   1.706
21237SOL    HW175365   4.383   2.135   1.739
21237SOL    HW275366   4.333   2.013   1.643
21238SOL     OW75367   3.357   5.797   7.273
21238SOL    HW175368   3.419   5.780   7.350
21238SOL    HW275369   3.287   5.726   7.270
21239SOL     OW75370   0.636   0.030   2.389
21239SOL    HW175371   0.547   0.073   2.375
21239SOL    HW275372   0.634   9.975   2.473
21240SOL     OW75373   8.064   4.877   1.665
21240SOL    HW175374   8.034   4.826   1.584
21240SOL    HW275375   8.157   4.850   1.688
21241SOL     OW75376   9.834   9.746   2.303
21241SOL    HW175377   9.792   9.690   2.374
21241SOL    HW275378   9.766   9.809   2.266
21242SOL     OW75379   1.448   3.936   7.898
21242SOL    HW175380   1.410   3.870   7.834
21242SOL    HW275381   1.434   4.029   7.864
21243SOL     OW75382   9.597   6.160   3.408
21243SOL    HW175383   9.581   6.221   3.331
21243SOL    HW275384   9.690   6.122   3.403
21244SOL     OW75385   8.635   3.391   4.154
21244SOL    HW175386   8.643   3.308   4.099
21244SOL    HW275387   8.724   3.414   4.194
21245SOL     OW75388   8.168   8.832   3.289
21245SOL    HW175389   8.163   8.926   3.257
21245SOL    HW275390   8.139   8.827   3.385
21246SOL     OW75391   8.516   0.073   6.331
21246SOL    HW175392   8.568   0.108   6.409
21246SOL    HW275393   8.467   9.990   6.358
21247SOL     OW75394   5.504   3.728   2.432
21247SOL    HW175395   5.487   3.825   2.416
21247SOL    HW275396   5.576   3.696   2.370
21248SOL     OW75397   0.070   3.890   3.779
21248SOL    HW175398   0.050   3.850   3.868
21248SOL    HW275399   0.066   3.819   3.709
21249SOL     OW75400   5.892   4.855   2.356
21249SOL    HW175401   5.907   4.770   2.307
21249SOL    HW275402   5.930   4.848   2.448
21250SOL     OW75403   6.279   8.712   3.867
21250SOL    HW175404   6.297   8.619   3.834
21250SOL    HW275405   6.346   8.775   3.828
21251SOL     OW75406   0.158   6.724   1.313
21251SOL    HW175407   0.072   6.770   1.291
21251SOL    HW275408   0.168   6.643   1.256
21252SOL     OW75409   3.215   3.275   3.002
21252SOL    HW175410   3.242   3.364   2.965
21252SOL    HW275411   3.296   3.218   3.016
21253SOL     OW75412   5.095   2.892   7.666
21253SOL    HW175413   5.071   2.845   7.581
21253SOL    HW275414   5.023   2.876   7.734
21254SOL     OW75415   1.014   5.853   6.598
21254SOL    HW175416   0.922   5.822   6.572
21254SOL    HW275417   1.080   5.780   6.579
21255SOL     OW75418   2.755   3.516   1.052
21255SOL    HW175419   2.707   3.538   1.137
21255SOL    HW275420   2.702   3.449   1.000
21256SOL     OW75421   3.263   5.526   7.681
21256SOL    HW175422   3.265   5.592   7.755
21256SOL    HW275423   3.252   5.434   7.718
21257SOL     OW75424   9.380   5.696   6.646
21257SOL    HW175425   9.426   5.662   6.728
21257SOL    HW275426   9.397   5.634   6.570
21258SOL     OW75427   9.207   3.589   7.070
21258SOL    HW175428   9.287   3.649   7.080
21258SOL    HW275429   9.186   3.578   6.973
21259SOL     OW75430   4.124   9.344   7.165
21259SOL    HW175431   4.069   9.384   7.091
21259SOL    HW275432   4.088   9.253   7.188
21260SOL     OW75433   3.897   0.726   4.592
21260SOL    HW175434   3.971   0.660   4.579
21260SOL    HW275435   3.851   0.708   4.679
21261SOL     OW75436   2.957   6.316   3.071
21261SOL    HW175437   3.046   6.270   3.071
21261SOL    HW275438   2.885   6.248   3.086
21262SOL     OW75439   6.694   8.414   7.147
21262SOL    HW175440   6.744   8.358   7.080
21262SOL    HW275441   6.751   8.427   7.228
21263SOL     OW75442   0.415   6.106   5.739
21263SOL    HW175443   0.424   6.121   5.837
21263SOL    HW275444   0.385   6.190   5.694
21264SOL     OW75445   3.846   7.732   1.372
21264SOL    HW175446   3.921   7.702   1.432
21264SOL    HW275447   3.879   7.805   1.313
21265SOL     OW75448   9.369   1.166   7.417
21265SOL    HW175449   9.404   1.100   7.483
21265SOL    HW275450   9.299   1.123   7.359
21266SOL     OW75451   7.294   6.537   1.443
21266SOL    HW175452   7.383   6.492   1.451
21266SOL    HW275453   7.278   6.563   1.348
21267SOL     OW75454   8.654   1.059   3.539
21267SOL    HW175455   8.616   0.967   3.553
21267SOL    HW275456   8.617   1.121   3.608
21268SOL     OW75457   7.248   9.136   5.736
21268SOL    HW175458   7.293   9.172   5.817
21268SOL    HW275459   7.249   9.036   5.739
21269SOL     OW75460   2.340   9.502   5.061
21269SOL    HW175461   2.241   9.500   5.044
21269SOL    HW275462   2.361   9.448   5.143
21270SOL     OW75463   2.305   0.168   6.100
21270SOL    HW175464   2.248   0.222   6.162
21270SOL    HW275465   2.400   0.173   6.130
21271SOL     OW75466   3.500   6.137   7.501
21271SOL    HW175467   3.403   6.158   7.498
21271SOL    HW275468   3.531   6.110   7.409
21272SOL     OW75469   3.235   7.376   0.675
21272SOL    HW175470   3.176   7.455   0.689
21272SOL    HW275471   3.271   7.377   0.582
21273SOL     OW75472   1.842   0.867   3.694
21273SOL    HW175473   1.793   0.792   3.737
21273SOL    HW275474   1.891   0.834   3.614
21274SOL     OW75475   9.370   4.005   2.334
21274SOL    HW175476   9.413   3.963   2.254
21274SOL    HW275477   9.379   3.945   2.413
21275SOL     OW75478   2.432   8.800   0.351
21275SOL    HW175479   2.332   8.801   0.341
21275SOL    HW275480   2.460   8.713   0.392
21276SOL     OW75481   6.425   8.595   3.481
21276SOL    HW175482   6.384   8.681   3.449
21276SOL    HW275483   6.484   8.613   3.559
21277SOL     OW75484   9.076   2.405   6.571
21277SOL    HW175485   9.150   2.339   6.581
21277SOL    HW275486   9.109   2.496   6.594
21278SOL     OW75487   8.586   9.504   0.793
21278SOL    HW175488   8.589   9.405   0.806
21278SOL    HW275489   8.493   9.531   0.768
21279SOL     OW75490   9.208   5.955   6.318
21279SOL    HW175491   9.213   6.038   6.373
21279SOL    HW275492   9.286   5.951   6.256
21280SOL     OW75493   8.642   3.671   4.737
21280SOL    HW175494   8.738   3.697   4.727
21280SOL    HW275495   8.597   3.676   4.648
21281SOL     OW75496   4.161   5.081   0.254
21281SOL    HW175497   4.205   5.012   0.311
21281SOL    HW275498   4.230   5.127   0.198
21282SOL     OW75499   9.506   7.979   3.167
21282SOL    HW175500   9.524   7.951   3.261
21282SOL    HW275501   9.494   7.898   3.110
21283SOL     OW75502   2.829   2.626   2.492
21283SOL    HW175503   2.833   2.725   2.501
21283SOL    HW275504   2.805   2.585   2.580
21284SOL     OW75505   6.288   1.304   3.099
21284SOL    HW175506   6.229   1.245   3.042
21284SOL    HW275507   6.370   1.327   3.047
21285SOL     OW75508   2.946   4.625   0.681
21285SOL    HW175509   3.010   4.605   0.754
21285SOL    HW275510   2.990   4.607   0.593
21286SOL     OW75511   3.448   0.678   0.119
21286SOL    HW175512   3.374   0.714   0.177
21286SOL    HW275513   3.410   0.641   0.035
21287SOL     OW75514   5.515   6.545   1.366
21287SOL    HW175515   5.505   6.489   1.284
21287SOL    HW275516   5.586   6.505   1.425
21288SOL     OW75517   1.470   5.421   0.159
21288SOL    HW175518   1.445   5.448   0.253
21288SOL    HW275519   1.389   5.429   0.100
21289SOL     OW75520   0.001   8.542   2.677
21289SOL    HW175521   0.091   8.579   2.657
21289SOL    HW275522   9.934   8.616   2.679
21290SOL     OW75523   7.328   6.576   1.956
21290SOL    HW175524   7.360   6.575   2.051
21290SOL    HW275525   7.228   6.583   1.955
21291SOL     OW75526   2.748   0.700   2.598
21291SOL    HW175527   2.673   0.704   2.532
21291SOL    HW275528   2.726   0.634   2.670
21292SOL     OW75529   8.182   2.077   1.479
21292SOL    HW175530   8.216   2.049   1.569
21292SOL    HW275531   8.170   2.176   1.477
21293SOL     OW75532   2.860   7.044   3.212
21293SOL    HW175533   2.849   6.968   3.276
21293SOL    HW275534   2.954   7.077   3.215
21294SOL     OW75535   9.992   1.221   1.081
21294SOL    HW175536   9.983   1.320   1.085
21294SOL    HW275537   0.089   1.196   1.072
21295SOL     OW75538   5.199   2.707   1.105
21295SOL    HW175539   5.297   2.724   1.115
21295SOL    HW275540   5.175   2.620   1.150
21296SOL     OW75541   3.400   6.001   2.239
21296SOL    HW175542   3.495   6.022   2.261
21296SOL    HW275543   3.352   6.086   2.216
21297SOL     OW75544   5.157   7.413   3.118
21297SOL    HW175545   5.221   7.374   3.184
21297SOL    HW275546   5.190   7.396   3.025
21298SOL     OW75547   6.092   8.737   6.723
21298SOL    HW175548   6.148   8.659   6.698
21298SOL    HW275549   6.149   8.805   6.770
21299SOL     OW75550   5.220   1.805   5.009
21299SOL    HW175551   5.275   1.722   5.003
21299SOL    HW275552   5.128   1.786   4.973
21300SOL     OW75553   9.042   0.709   1.469
21300SOL    HW175554   9.117   0.769   1.497
21300SOL    HW275555   8.987   0.755   1.400
21301SOL     OW75556   4.261   1.492   0.604
21301SOL    HW175557   4.307   1.420   0.551
21301SOL    HW275558   4.264   1.468   0.701
21302SOL     OW75559   6.821   4.996   2.319
21302SOL    HW175560   6.866   4.921   2.368
21302SOL    HW275561   6.862   5.082   2.348
21303SOL     OW75562   3.877   9.527   2.100
21303SOL    HW175563   3.858   9.597   2.169
21303SOL    HW275564   3.903   9.442   2.145
21304SOL     OW75565   2.950   2.998   6.855
21304SOL    HW175566   3.031   2.998   6.796
21304SOL    HW275567   2.898   3.082   6.840
21305SOL     OW75568   1.926   0.268   7.573
21305SOL    HW175569   1.959   0.223   7.489
21305SOL    HW275570   1.842   0.223   7.603
21306SOL     OW75571   8.623   2.889   5.745
21306SOL    HW175572   8.542   2.926   5.789
21306SOL    HW275573   8.599   2.805   5.696
21307SOL     OW75574   9.727   1.972   4.945
21307SOL    HW175575   9.779   2.013   4.869
21307SOL    HW275576   9.631   2.000   4.937
21308SOL     OW75577   4.371   9.457   7.126
21308SOL    HW175578   4.286   9.409   7.147
21308SOL    HW275579   4.443   9.391   7.104
21309SOL     OW75580   0.663   4.989   4.971
21309SOL    HW175581   0.737   4.974   4.906
21309SOL    HW275582   0.575   4.969   4.927
21310SOL     OW75583   1.873   0.023   1.580
21310SOL    HW175584   1.922   0.030   1.494
21310SOL    HW275585   1.775   0.016   1.563
21311SOL     OW75586   0.573   2.164   5.700
21311SOL    HW175587   0.509   2.089   5.718
21311SOL    HW275588   0.620   2.149   5.614
21312SOL     OW75589   9.204   9.164   7.850
21312SOL    HW175590   9.115   9.172   7.806
21312SOL    HW275591   9.239   9.256   7.870
21313SOL     OW75592   1.566   2.187   5.334
21313SOL    HW175593   1.505   2.261   5.363
21313SOL    HW275594   1.599   2.138   5.415
21314SOL     OW75595   8.155   3.321   3.426
21314SOL    HW175596   8.086   3.293   3.358
21314SOL    HW275597   8.244   3.327   3.382
21315SOL     OW75598   1.087   7.617   4.893
21315SOL    HW175599   1.010   7.554   4.885
21315SOL    HW275600   1.161   7.588   4.833
21316SOL     OW75601   1.185   3.508   1.942
21316SOL    HW175602   1.108   3.452   1.912
21316SOL    HW275603   1.160   3.605   1.933
21317SOL     OW75604   2.799   1.138   5.618
21317SOL    HW175605   2.735   1.066   5.647
21317SOL    HW275606   2.876   1.140   5.681
21318SOL     OW75607   4.621   9.480   0.580
21318SOL    HW175608   4.568   9.406   0.623
21318SOL    HW275609   4.675   9.527   0.650
21319SOL     OW75610   8.222   8.685   5.647
21319SOL    HW175611   8.224   8.635   5.560
21319SOL    HW275612   8.297   8.653   5.705
21320SOL     OW75613   8.469   3.048   1.849
21320SOL    HW175614   8.398   3.095   1.902
21320SOL    HW275615   8.557   3.055   1.896
21321SOL     OW75616   4.037   7.146   1.049
21321SOL    HW175617   4.013   7.203   1.128
21321SOL    HW275618   4.079   7.203   0.979
21322SOL     OW75619   8.004   0.648   7.148
21322SOL    HW175620   8.054   0.594   7.081
21322SOL    HW275621   7.926   0.596   7.182
21323SOL     OW75622   8.308   4.123   2.105
21323SOL    HW175623   8.323   4.219   2.080
21323SOL    HW275624   8.380   4.092   2.167
21324SOL     OW75625   9.044   1.905   6.106
21324SOL    HW175626   9.076   1.988   6.152
21324SOL    HW275627   9.115   1.871   6.044
21325SOL     OW75628   3.256   9.850   5.623
21325SOL    HW175629   3.202   9.931   5.599
21325SOL    HW275630   3.306   9.868   5.708
21326SOL     OW75631   7.882   9.654   2.518
21326SOL    HW175632   7.906   9.560   2.496
21326SOL    HW275633   7.912   9.676   2.611
21327SOL     OW75634   9.785   1.819   0.050
21327SOL    HW175635   9.854   1.849   0.116
21327SOL    HW275636   9.796   1.869  10.046
21328SOL     OW75637   8.542   4.555   6.690
21328SOL    HW175638   8.447   4.548   6.659
21328SOL    HW275639   8.544   4.592   6.782
21329SOL     OW75640   9.987   3.478   1.799
21329SOL    HW175641   0.087   3.478   1.788
21329SOL    HW275642   9.961   3.397   1.852
21330SOL     OW75643   2.036   5.761   3.139
21330SOL    HW175644   2.059   5.783   3.044
21330SOL    HW275645   1.952   5.809   3.165
21331SOL     OW75646   7.945   0.589   2.421
21331SOL    HW175647   7.962   0.497   2.459
21331SOL    HW275648   7.875   0.635   2.475
21332SOL     OW75649   9.628   5.780   6.078
21332SOL    HW175650   9.689   5.735   6.143
21332SOL    HW275651   9.679   5.804   5.996
21333SOL     OW75652   4.088   2.256   7.451
21333SOL    HW175653   4.046   2.167   7.436
21333SOL    HW275654   4.187   2.247   7.453
21334SOL     OW75655   3.446   3.130   3.025
21334SOL    HW175656   3.511   3.122   2.949
21334SOL    HW275657   3.436   3.041   3.069
21335SOL     OW75658   0.390   0.906   7.206
21335SOL    HW175659   0.389   0.847   7.125
21335SOL    HW275660   0.323   0.872   7.272
21336SOL     OW75661   9.222   8.463   4.440
21336SOL    HW175662   9.214   8.390   4.508
21336SOL    HW275663   9.159   8.446   4.364
21337SOL     OW75664   9.214   3.307   1.701
21337SOL    HW175665   9.251   3.288   1.792
21337SOL    HW275666   9.266   3.256   1.633
21338SOL     OW75667   3.029   4.813   0.387
21338SOL    HW175668   3.071   4.818   0.296
21338SOL    HW275669   3.024   4.718   0.417
21339SOL     OW75670   9.747   1.200   7.580
21339SOL    HW175671   9.711   1.291   7.598
21339SOL    HW275672   9.778   1.194   7.485
21340SOL     OW75673   6.080   0.568   5.960
21340SOL    HW175674   6.148   0.513   5.911
21340SOL    HW275675   5.995   0.570   5.908
21341SOL     OW75676   0.993   2.228   1.721
21341SOL    HW175677   1.063   2.270   1.778
21341SOL    HW275678   1.036   2.190   1.639
21342SOL     OW75679   2.659   5.567   5.361
21342SOL    HW175680   2.572   5.589   5.406
21342SOL    HW275681   2.656   5.601   5.266
21343SOL     OW75682   3.219   8.300   7.244
21343SOL    HW175683   3.299   8.281   7.301
21343SOL    HW275684   3.243   8.286   7.148
21344SOL     OW75685   2.488   4.486   6.969
21344SOL    HW175686   2.508   4.389   6.955
21344SOL    HW275687   2.449   4.500   7.060
21345SOL     OW75688   3.603   1.272   0.409
21345SOL    HW175689   3.672   1.232   0.469
21345SOL    HW275690   3.620   1.245   0.314
21346SOL     OW75691   3.820   8.385   7.872
21346SOL    HW175692   3.809   8.403   7.970
21346SOL    HW275693   3.826   8.472   7.824
21347SOL     OW75694   9.454   1.742   3.158
21347SOL    HW175695   9.394   1.665   3.181
21347SOL    HW275696   9.408   1.802   3.092
21348SOL     OW75697   6.801   9.291   4.774
21348SOL    HW175698   6.733   9.244   4.718
21348SOL    HW275699   6.829   9.375   4.728
21349SOL     OW75700   7.929   8.179   6.398
21349SOL    HW175701   7.998   8.190   6.469
21349SOL    HW275702   7.885   8.268   6.379
21350SOL     OW75703   9.179   0.333   2.466
21350SOL    HW175704   9.207   0.261   2.529
21350SOL    HW275705   9.079   0.342   2.467
21351SOL     OW75706   5.904   6.569   1.214
21351SOL    HW175707   5.826   6.578   1.152
21351SOL    HW275708   5.978   6.522   1.167
21352SOL     OW75709   7.701   2.687   5.230
21352SOL    HW175710   7.633   2.627   5.273
21352SOL    HW275711   7.657   2.742   5.159
21353SOL     OW75712   0.734   7.207   6.790
21353SOL    HW175713   0.688   7.154   6.719
21353SOL    HW275714   0.745   7.301   6.761
21354SOL     OW75715   9.579   7.999   0.439
21354SOL    HW175716   9.485   7.985   0.407
21354SOL    HW275717   9.642   7.978   0.364
21355SOL     OW75718   3.816   3.204   5.127
21355SOL    HW175719   3.763   3.288   5.113
21355SOL    HW275720   3.771   3.147   5.196
21356SOL     OW75721   4.383   3.768   1.584
21356SOL    HW175722   4.308   3.807   1.638
21356SOL    HW275723   4.404   3.829   1.508
21357SOL     OW75724   4.699   2.267   4.239
21357SOL    HW175725   4.717   2.341   4.304
21357SOL    HW275726   4.633   2.297   4.171
21358SOL     OW75727   3.766   5.784   2.890
21358SOL    HW175728   3.783   5.724   2.969
21358SOL    HW275729   3.844   5.846   2.879
21359SOL     OW75730   0.501   8.175   2.277
21359SOL    HW175731   0.554   8.231   2.214
21359SOL    HW275732   0.403   8.193   2.263
21360SOL     OW75733   7.864   3.145   5.598
21360SOL    HW175734   7.797   3.218   5.609
21360SOL    HW275735   7.956   3.185   5.601
21361SOL     OW75736   9.236   1.233   3.740
21361SOL    HW175737   9.219   1.267   3.832
21361SOL    HW275738   9.189   1.145   3.727
21362SOL     OW75739   1.475   2.708   0.146
21362SOL    HW175740   1.493   2.739   0.052
21362SOL    HW275741   1.465   2.609   0.146
21363SOL     OW75742   3.582   9.237   7.444
21363SOL    HW175743   3.518   9.209   7.515
21363SOL    HW275744   3.618   9.328   7.465
21364SOL     OW75745   8.565   3.997   7.053
21364SOL    HW175746   8.658   4.017   7.023
21364SOL    HW275747   8.538   4.062   7.123
21365SOL     OW75748   6.886   0.226   1.106
21365SOL    HW175749   6.813   0.172   1.065
21365SOL    HW275750   6.863   0.323   1.100
21366SOL     OW75751   3.679   4.556   6.089
21366SOL    HW175752   3.584   4.584   6.072
21366SOL    HW275753   3.706   4.486   6.023
21367SOL     OW75754   8.531   8.546   6.088
21367SOL    HW175755   8.521   8.576   6.183
21367SOL    HW275756   8.522   8.446   6.084
21368SOL     OW75757   8.019   0.543   4.439
21368SOL    HW175758   7.983   0.636   4.448
21368SOL    HW275759   7.981   0.500   4.357
21369SOL     OW75760   4.176   4.250   5.418
21369SOL    HW175761   4.174   4.319   5.491
21369SOL    HW275762   4.243   4.276   5.349
21370SOL     OW75763   2.496   8.218   0.393
21370SOL    HW175764   2.584   8.255   0.362
21370SOL    HW275765   2.489   8.122   0.365
21371SOL     OW75766   7.905   4.976   0.222
21371SOL    HW175767   7.828   5.040   0.213
21371SOL    HW275768   7.872   4.883   0.210
21372SOL     OW75769   3.354   9.459   2.470
21372SOL    HW175770   3.306   9.533   2.518
21372SOL    HW275771   3.304   9.436   2.386
21373SOL     OW75772   6.845   9.020   6.998
21373SOL    HW175773   6.875   9.016   6.903
21373SOL    HW275774   6.820   8.928   7.029
21374SOL     OW75775   0.201   8.615   0.909
21374SOL    HW175776   0.215   8.585   1.004
21374SOL    HW275777   0.105   8.601   0.885
21375SOL     OW75778   4.944   0.816   6.428
21375SOL    HW175779   4.904   0.888   6.370
21375SOL    HW275780   4.942   0.846   6.523
21376SOL     OW75781   8.298   9.633   6.746
21376SOL    HW175782   8.204   9.636   6.711
21376SOL    HW275783   8.299   9.591   6.836
21377SOL     OW75784   0.731   2.972   6.782
21377SOL    HW175785   0.743   2.899   6.714
21377SOL    HW275786   0.696   3.054   6.737
21378SOL     OW75787   9.343   6.557   7.770
21378SOL    HW175788   9.433   6.540   7.729
21378SOL    HW275789   9.335   6.505   7.855
21379SOL     OW75790   5.275   0.816   3.512
21379SOL    HW175791   5.190   0.776   3.547
21379SOL    HW275792   5.315   0.754   3.444
21380SOL     OW75793   1.703   8.864   1.468
21380SOL    HW175794   1.671   8.824   1.554
21380SOL    HW275795   1.634   8.927   1.432
21381SOL     OW75796   4.175   8.115   3.530
21381SOL    HW175797   4.140   8.166   3.452
21381SOL    HW275798   4.170   8.017   3.511
21382SOL     OW75799   3.961   8.562   4.060
21382SOL    HW175800   3.929   8.647   4.019
21382SOL    HW275801   3.935   8.485   4.002
21383SOL     OW75802   8.816   2.767   2.873
21383SOL    HW175803   8.803   2.847   2.814
21383SOL    HW275804   8.913   2.741   2.873
21384SOL     OW75805   9.211   8.262   2.299
21384SOL    HW175806   9.198   8.361   2.304
21384SOL    HW275807   9.122   8.217   2.292
21385SOL     OW75808   8.110   9.902   7.742
21385SOL    HW175809   8.136   9.906   7.646
21385SOL    HW275810   8.022   9.947   7.755
21386SOL     OW75811   8.855   9.374   4.777
21386SOL    HW175812   8.836   9.277   4.763
21386SOL    HW275813   8.813   9.428   4.704
21387SOL     OW75814   3.397   0.424   2.318
21387SOL    HW175815   3.378   0.516   2.353
21387SOL    HW275816   3.368   0.418   2.222
21388SOL     OW75817   0.706   0.731   4.541
21388SOL    HW175818   0.608   0.740   4.558
21388SOL    HW275819   0.741   0.816   4.501
21389SOL     OW75820   1.087   7.290   7.032
21389SOL    HW175821   1.000   7.260   6.993
21389SOL    HW275822   1.070   7.341   7.116
21390SOL     OW75823   7.839   1.677   0.898
21390SOL    HW175824   7.875   1.762   0.861
21390SOL    HW275825   7.782   1.696   0.978
21391SOL     OW75826   6.285   1.482   3.325
21391SOL    HW175827   6.266   1.423   3.246
21391SOL    HW275828   6.256   1.436   3.409
21392SOL     OW75829   7.931   7.977   5.901
21392SOL    HW175830   8.024   7.984   5.864
21392SOL    HW275831   7.934   7.988   6.001
21393SOL     OW75832   4.246   4.805   1.849
21393SOL    HW175833   4.218   4.784   1.943
21393SOL    HW275834   4.166   4.810   1.790
21394SOL     OW75835   1.932   9.086   4.846
21394SOL    HW175836   1.903   8.998   4.883
21394SOL    HW275837   1.927   9.083   4.746
21395SOL     OW75838   8.779   6.040   2.023
21395SOL    HW175839   8.730   5.982   2.088
21395SOL    HW275840   8.862   6.076   2.066
21396SOL     OW75841   1.940   9.297   4.191
21396SOL    HW175842   1.931   9.207   4.233
21396SOL    HW275843   1.942   9.367   4.262
21397SOL     OW75844   2.502   3.099   2.282
21397SOL    HW175845   2.558   3.166   2.330
21397SOL    HW275846   2.539   3.083   2.191
21398SOL     OW75847   3.337   2.054   0.990
21398SOL    HW175848   3.238   2.063   1.001
21398SOL    HW275849   3.356   1.989   0.917
21399SOL     OW75850   7.728   9.914   6.127
21399SOL    HW175851   7.746   9.827   6.080
21399SOL    HW275852   7.757   9.990   6.068
21400SOL     OW75853   3.083   1.454   6.027
21400SOL    HW175854   3.163   1.418   5.978
21400SOL    HW275855   3.000   1.408   5.994
21401SOL     OW75856   9.017   3.872   1.307
21401SOL    HW175857   8.988   3.840   1.216
21401SOL    HW275858   8.993   3.803   1.375
21402SOL     OW75859   2.134   9.034   3.908
21402SOL    HW175860   2.146   8.961   3.976
21402SOL    HW275861   2.048   9.081   3.924
21403SOL     OW75862   1.011   5.911   1.728
21403SOL    HW175863   1.083   5.842   1.742
21403SOL    HW275864   0.941   5.900   1.798
21404SOL     OW75865   8.949   6.368   6.025
21404SOL    HW175866   8.997   6.308   5.960
21404SOL    HW275867   9.015   6.430   6.068
21405SOL     OW75868   0.774   7.717   5.538
21405SOL    HW175869   0.823   7.800   5.564
21405SOL    HW275870   0.769   7.710   5.439
21406SOL     OW75871   1.078   3.255   5.515
21406SOL    HW175872   0.979   3.265   5.519
21406SOL    HW275873   1.118   3.281   5.602
21407SOL     OW75874   1.188   2.199   5.400
21407SOL    HW175875   1.201   2.103   5.425
21407SOL    HW275876   1.272   2.250   5.417
21408SOL     OW75877   2.682   4.786   4.597
21408SOL    HW175878   2.723   4.728   4.528
21408SOL    HW275879   2.583   4.792   4.582
21409SOL     OW75880   6.788   9.830   7.848
21409SOL    HW175881   6.857   9.852   7.917
21409SOL    HW275882   6.719   9.903   7.845
21410SOL     OW75883   0.384   4.557   0.212
21410SOL    HW175884   0.289   4.528   0.220
21410SOL    HW275885   0.397   4.606   0.126
21411SOL     OW75886   7.456   8.873   6.001
21411SOL    HW175887   7.446   8.828   6.090
21411SOL    HW275888   7.552   8.900   5.988
21412SOL     OW75889   4.430   8.483   4.018
21412SOL    HW175890   4.492   8.406   4.025
21412SOL    HW275891   4.367   8.468   3.942
21413SOL     OW75892   2.050   8.687   0.585
21413SOL    HW175893   2.144   8.671   0.615
21413SOL    HW275894   1.987   8.639   0.646
21414SOL     OW75895   9.685   5.626   2.810
21414SOL    HW175896   9.769   5.679   2.799
21414SOL    HW275897   9.701   5.532   2.781
21415SOL     OW75898   8.435   4.047   5.051
21415SOL    HW175899   8.466   4.035   5.145
21415SOL    HW275900   8.487   3.986   4.990
21416SOL     OW75901   7.474   5.800   7.731
21416SOL    HW175902   7.540   5.748   7.677
21416SOL    HW275903   7.446   5.882   7.681
21417SOL     OW75904   8.729   6.859   2.235
21417SOL    HW175905   8.790   6.850   2.157
21417SOL    HW275906   8.722   6.771   2.282
21418SOL     OW75907   2.803   3.102   2.256
21418SOL    HW175908   2.752   3.080   2.172
21418SOL    HW275909   2.808   3.021   2.314
21419SOL     OW75910   0.778   7.305   6.051
21419SOL    HW175911   0.855   7.357   6.014
21419SOL    HW275912   0.723   7.365   6.110
21420SOL     OW75913   1.572   2.445   6.943
21420SOL    HW175914   1.500   2.423   7.009
21420SOL    HW275915   1.620   2.361   6.916
21421SOL     OW75916   7.146   8.368   6.711
21421SOL    HW175917   7.190   8.293   6.663
21421SOL    HW275918   7.141   8.448   6.651
21422SOL     OW75919   1.065   6.645   0.922
21422SOL    HW175920   1.080   6.561   0.974
21422SOL    HW275921   1.151   6.697   0.917
21423SOL     OW75922   2.405   5.562   6.961
21423SOL    HW175923   2.480   5.504   6.929
21423SOL    HW275924   2.429   5.603   7.049
21424SOL     OW75925   6.627   2.065   4.714
21424SOL    HW175926   6.575   2.019   4.642
21424SOL    HW275927   6.625   2.009   4.797
21425SOL     OW75928   2.240   7.281   7.323
21425SOL    HW175929   2.319   7.290   7.383
21425SOL    HW275930   2.235   7.187   7.289
21426SOL     OW75931   4.056   4.192   2.835
21426SOL    HW175932   3.997   4.192   2.754
21426SOL    HW275933   4.017   4.134   2.906
21427SOL     OW75934   7.143   1.671   0.267
21427SOL    HW175935   7.068   1.679   0.332
21427SOL    HW275936   7.153   1.576   0.238
21428SOL     OW75937   8.620   7.652   3.550
21428SOL    HW175938   8.612   7.734   3.606
21428SOL    HW275939   8.576   7.575   3.597
21429SOL     OW75940   3.190   0.624   3.000
21429SOL    HW175941   3.100   0.601   3.036
21429SOL    HW275942   3.195   0.599   2.903
21430SOL     OW75943   9.821   9.082   3.149
21430SOL    HW175944   9.917   9.072   3.175
21430SOL    HW275945   9.767   9.107   3.229
21431SOL     OW75946   3.929   3.321   0.851
21431SOL    HW175947   3.834   3.351   0.844
21431SOL    HW275948   3.949   3.292   0.945
21432SOL     OW75949   7.761   5.571   7.091
21432SOL    HW175950   7.733   5.538   7.181
21432SOL    HW275951   7.860   5.589   7.092
21433SOL     OW75952   0.404   9.267   5.893
21433SOL    HW175953   0.354   9.271   5.979
21433SOL    HW275954   0.498   9.299   5.907
21434SOL     OW75955   4.832   9.678   7.545
21434SOL    HW175956   4.785   9.675   7.633
21434SOL    HW275957   4.809   9.597   7.492
21435SOL     OW75958   9.626   5.576   4.501
21435SOL    HW175959   9.624   5.479   4.526
21435SOL    HW275960   9.716   5.599   4.463
21436SOL     OW75961   8.142   2.720   1.100
21436SOL    HW175962   8.143   2.749   1.004
21436SOL    HW275963   8.133   2.621   1.105
21437SOL     OW75964   2.669   0.711   1.527
21437SOL    HW175965   2.596   0.767   1.565
21437SOL    HW275966   2.661   0.618   1.562
21438SOL     OW75967   9.927   3.745   1.796
21438SOL    HW175968   9.957   3.650   1.804
21438SOL    HW275969   9.865   3.754   1.718
21439SOL     OW75970   7.338   9.785   2.431
21439SOL    HW175971   7.414   9.812   2.373
21439SOL    HW275972   7.328   9.685   2.430
21440SOL     OW75973   4.123   6.485   7.314
21440SOL    HW175974   4.045   6.507   7.255
21440SOL    HW275975   4.175   6.409   7.274
21441SOL     OW75976   8.747   7.876   6.209
21441SOL    HW175977   8.717   7.792   6.164
21441SOL    HW275978   8.811   7.925   6.150
21442SOL     OW75979   0.758   4.392   6.518
21442SOL    HW175980   0.725   4.341   6.597
21442SOL    HW275981   0.695   4.466   6.497
21443SOL     OW75982   1.012   5.314   1.221
21443SOL    HW175983   1.076   5.356   1.157
21443SOL    HW275984   1.009   5.216   1.206
21444SOL     OW75985   0.350   0.383   2.458
21444SOL    HW175986   0.309   0.468   2.425
21444SOL    HW275987   0.450   0.389   2.452
21445SOL     OW75988   1.710   4.826   1.534
21445SOL    HW175989   1.712   4.876   1.620
21445SOL    HW275990   1.754   4.880   1.462
21446SOL     OW75991   8.922   6.412   0.882
21446SOL    HW175992   8.894   6.358   0.962
21446SOL    HW275993   8.871   6.381   0.802
21447SOL     OW75994   7.198   5.370   3.355
21447SOL    HW175995   7.180   5.392   3.259
21447SOL    HW275996   7.140   5.293   3.384
21448SOL     OW75997   3.136   6.730   0.740
21448SOL    HW175998   3.217   6.718   0.796
21448SOL    HW275999   3.163   6.743   0.644
21449SOL     OW76000   2.697   7.683   4.278
21449SOL    HW176001   2.607   7.650   4.250
21449SOL    HW276002   2.694   7.782   4.289
21450SOL     OW76003   0.464   8.225   4.220
21450SOL    HW176004   0.411   8.272   4.150
21450SOL    HW276005   0.546   8.277   4.241
21451SOL     OW76006   3.038   3.368   3.788
21451SOL    HW176007   2.984   3.358   3.872
21451SOL    HW276008   3.130   3.332   3.803
21452SOL     OW76009   8.529   7.597   7.680
21452SOL    HW176010   8.530   7.697   7.681
21452SOL    HW276011   8.516   7.565   7.586
21453SOL     OW76012   7.243   1.337   1.354
21453SOL    HW176013   7.207   1.427   1.332
21453SOL    HW276014   7.248   1.281   1.271
21454SOL     OW76015   0.405   9.920   6.438
21454SOL    HW176016   0.483   9.982   6.446
21454SOL    HW276017   0.352   9.945   6.356
21455SOL     OW76018   4.060   8.910   5.736
21455SOL    HW176019   3.962   8.893   5.726
21455SOL    HW276020   4.107   8.823   5.749
21456SOL     OW76021   1.940   7.366   3.295
21456SOL    HW176022   1.931   7.403   3.202
21456SOL    HW276023   1.949   7.266   3.289
21457SOL     OW76024   8.842   1.409   2.752
21457SOL    HW176025   8.832   1.385   2.849
21457SOL    HW276026   8.924   1.365   2.715
21458SOL     OW76027   9.573   4.968   1.708
21458SOL    HW176028   9.612   4.929   1.792
21458SOL    HW276029   9.521   4.897   1.661
21459SOL     OW76030   1.038   3.971   3.828
21459SOL    HW176031   1.134   3.947   3.817
21459SOL    HW276032   1.000   3.921   3.906
21460SOL     OW76033   8.970   1.265   3.140
21460SOL    HW176034   8.896   1.301   3.085
21460SOL    HW276035   9.010   1.184   3.095
21461SOL     OW76036   3.398   6.564   5.980
21461SOL    HW176037   3.363   6.647   6.023
21461SOL    HW276038   3.380   6.566   5.882
21462SOL     OW76039   6.400   1.282   4.150
21462SOL    HW176040   6.323   1.258   4.209
21462SOL    HW276041   6.368   1.335   4.072
21463SOL     OW76042   0.857   2.694   6.856
21463SOL    HW176043   0.760   2.697   6.832
21463SOL    HW276044   0.904   2.768   6.808
21464SOL     OW76045   2.231   2.147   7.446
21464SOL    HW176046   2.134   2.168   7.435
21464SOL    HW276047   2.272   2.213   7.509
21465SOL     OW76048   3.287   9.676   1.807
21465SOL    HW176049   3.213   9.684   1.740
21465SOL    HW276050   3.259   9.718   1.893
21466SOL     OW76051   9.292   4.112   5.854
21466SOL    HW176052   9.308   4.039   5.920
21466SOL    HW276053   9.193   4.125   5.843
21467SOL     OW76054   3.215   4.857   3.574
21467SOL    HW176055   3.309   4.831   3.596
21467SOL    HW276056   3.167   4.883   3.658
21468SOL     OW76057   2.530   0.529   3.834
21468SOL    HW176058   2.458   0.476   3.789
21468SOL    HW276059   2.510   0.627   3.824
21469SOL     OW76060   4.636   3.483   5.571
21469SOL    HW176061   4.678   3.393   5.556
21469SOL    HW276062   4.602   3.519   5.484
21470SOL     OW76063   6.023   4.834   2.601
21470SOL    HW176064   6.087   4.909   2.617
21470SOL    HW276065   6.073   4.747   2.596
21471SOL     OW76066   8.927   2.299   0.623
21471SOL    HW176067   8.882   2.216   0.589
21471SOL    HW276068   8.896   2.378   0.570
21472SOL     OW76069   8.646   2.544   4.920
21472SOL    HW176070   8.629   2.638   4.889
21472SOL    HW276071   8.563   2.509   4.964
21473SOL     OW76072   1.661   9.797   6.610
21473SOL    HW176073   1.651   9.715   6.666
21473SOL    HW276074   1.755   9.830   6.615
21474SOL     OW76075   6.285   8.389   2.404
21474SOL    HW176076   6.380   8.371   2.430
21474SOL    HW276077   6.224   8.335   2.463
21475SOL     OW76078   8.900   9.124   5.549
21475SOL    HW176079   8.849   9.071   5.481
21475SOL    HW276080   8.853   9.120   5.637
21476SOL     OW76081   3.323   4.432   2.685
21476SOL    HW176082   3.372   4.518   2.701
21476SOL    HW276083   3.366   4.384   2.609
21477SOL     OW76084   8.764   4.783   1.548
21477SOL    HW176085   8.825   4.826   1.481
21477SOL    HW276086   8.760   4.684   1.531
21478SOL     OW76087   8.095   0.050   0.884
21478SOL    HW176088   8.150   0.085   0.808
21478SOL    HW276089   8.140   9.970   0.924
21479SOL     OW76090   3.419   6.841   2.709
21479SOL    HW176091   3.429   6.883   2.619
21479SOL    HW276092   3.458   6.749   2.708
21480SOL     OW76093   7.645   9.103   4.253
21480SOL    HW176094   7.694   9.135   4.173
21480SOL    HW276095   7.648   9.172   4.325
21481SOL     OW76096   6.907   4.690   0.306
21481SOL    HW176097   6.916   4.614   0.242
21481SOL    HW276098   6.832   4.672   0.369
21482SOL     OW76099   1.236   7.072   0.983
21482SOL    HW176100   1.258   7.136   1.056
21482SOL    HW276101   1.141   7.086   0.953
21483SOL     OW76102   1.995   9.073   2.113
21483SOL    HW176103   1.940   8.990   2.118
21483SOL    HW276104   1.949   9.139   2.054
21484SOL     OW76105   6.479   9.885   6.448
21484SOL    HW176106   6.506   9.889   6.544
21484SOL    HW276107   6.391   9.931   6.437
21485SOL     OW76108   8.409   9.333   0.033
21485SOL    HW176109   8.459   9.377   0.108
21485SOL    HW276110   8.399   9.398  10.039
21486SOL     OW76111   2.513   0.368   5.061
21486SOL    HW176112   2.551   0.285   5.102
21486SOL    HW276113   2.510   0.441   5.129
21487SOL     OW76114   2.845   6.469   1.563
21487SOL    HW176115   2.791   6.397   1.519
21487SOL    HW276116   2.802   6.558   1.547
21488SOL     OW76117   8.408   4.781   5.583
21488SOL    HW176118   8.403   4.843   5.504
21488SOL    HW276119   8.473   4.819   5.650
21489SOL     OW76120   0.840   4.606   1.275
21489SOL    HW176121   0.772   4.534   1.285
21489SOL    HW276122   0.930   4.565   1.258
21490SOL     OW76123   2.430   2.097   5.160
21490SOL    HW176124   2.455   2.000   5.166
21490SOL    HW276125   2.337   2.106   5.125
21491SOL     OW76126   4.294   7.021   2.423
21491SOL    HW176127   4.370   7.075   2.458
21491SOL    HW276128   4.308   6.924   2.447
21492SOL     OW76129   2.209   9.430   3.937
21492SOL    HW176130   2.247   9.337   3.948
21492SOL    HW276131   2.254   9.475   3.860
21493SOL     OW76132   8.982   7.531   6.411
21493SOL    HW176133   9.007   7.519   6.507
21493SOL    HW276134   9.036   7.605   6.371
21494SOL     OW76135   9.340   2.196   5.376
21494SOL    HW176136   9.326   2.211   5.278
21494SOL    HW276137   9.438   2.189   5.395
21495SOL     OW76138   6.604   5.226   0.602
21495SOL    HW176139   6.622   5.139   0.648
21495SOL    HW276140   6.511   5.225   0.565
21496SOL     OW76141   1.235   4.974   6.198
21496SOL    HW176142   1.162   4.958   6.265
21496SOL    HW276143   1.307   4.906   6.209
21497SOL     OW76144   7.602   7.279   5.237
21497SOL    HW176145   7.563   7.329   5.314
21497SOL    HW276146   7.625   7.186   5.265
21498SOL     OW76147   1.612   8.919   5.083
21498SOL    HW176148   1.569   8.833   5.110
21498SOL    HW276149   1.629   8.974   5.165
21499SOL     OW76150   3.796   7.452   5.523
21499SOL    HW176151   3.814   7.423   5.617
21499SOL    HW276152   3.756   7.544   5.524
21500SOL     OW76153   1.362   2.607   7.858
21500SOL    HW176154   1.439   2.646   7.807
21500SOL    HW276155   1.368   2.507   7.855
21501SOL     OW76156   4.763   0.407   5.464
21501SOL    HW176157   4.666   0.388   5.476
21501SOL    HW276158   4.775   0.501   5.433
21502SOL     OW76159   8.266   0.423   1.361
21502SOL    HW176160   8.324   0.374   1.296
21502SOL    HW276161   8.176   0.437   1.321
21503SOL     OW76162   8.302   1.982   3.197
21503SOL    HW176163   8.216   1.939   3.225
21503SOL    HW276164   8.345   1.926   3.126
21504SOL     OW76165   7.951   8.849   7.162
21504SOL    HW176166   7.910   8.827   7.250
21504SOL    HW276167   8.002   8.935   7.169
21505SOL     OW76168   0.526   2.994   5.109
21505SOL    HW176169   0.554   2.960   5.199
21505SOL    HW276170   0.433   3.030   5.114
21506SOL     OW76171   1.018   9.022   5.054
21506SOL    HW176172   1.104   9.013   5.105
21506SOL    HW276173   0.943   9.033   5.119
21507SOL     OW76174   1.542   7.280   7.867
21507SOL    HW176175   1.460   7.233   7.900
21507SOL    HW276176   1.520   7.375   7.845
21508SOL     OW76177   8.954   1.341   7.393
21508SOL    HW176178   8.897   1.381   7.464
21508SOL    HW276179   9.003   1.413   7.345
21509SOL     OW76180   7.806   7.539   1.191
21509SOL    HW176181   7.714   7.521   1.157
21509SOL    HW276182   7.832   7.633   1.169
21510SOL     OW76183   4.141   9.421   0.296
21510SOL    HW176184   4.133   9.412   0.395
21510SOL    HW276185   4.177   9.512   0.274
21511SOL     OW76186   3.240   8.807   3.120
21511SOL    HW176187   3.332   8.837   3.142
21511SOL    HW276188   3.243   8.720   3.071
21512SOL     OW76189   2.482   3.721   5.170
21512SOL    HW176190   2.465   3.784   5.245
21512SOL    HW276191   2.570   3.743   5.128
21513SOL     OW76192   0.819   7.091   6.228
21513SOL    HW176193   0.808   7.156   6.153
21513SOL    HW276194   0.916   7.078   6.247
21514SOL     OW76195   3.066   1.104   3.689
21514SOL    HW176196   3.085   1.173   3.760
21514SOL    HW276197   3.100   1.015   3.720
21515SOL     OW76198   0.475   7.301   4.563
21515SOL    HW176199   0.491   7.212   4.607
21515SOL    HW276200   0.560   7.333   4.521
21516SOL     OW76201   1.660   8.657   1.281
21516SOL    HW176202   1.678   8.743   1.329
21516SOL    HW276203   1.708   8.583   1.327
21517SOL     OW76204   3.635   6.302   1.799
21517SOL    HW176205   3.674   6.257   1.880
21517SOL    HW276206   3.614   6.234   1.729
21518SOL     OW76207   8.742   2.518   5.927
21518SOL    HW176208   8.789   2.605   5.911
21518SOL    HW276209   8.643   2.532   5.925
21519SOL     OW76210   2.494   0.337   2.929
21519SOL    HW176211   2.534   0.251   2.961
21519SOL    HW276212   2.398   0.321   2.903
21520SOL     OW76213   0.938   9.034   4.314
21520SOL    HW176214   0.996   9.040   4.233
21520SOL    HW276215   0.985   9.075   4.392
21521SOL     OW76216   2.995   1.676   4.344
21521SOL    HW176217   3.034   1.758   4.303
21521SOL    HW276218   2.978   1.692   4.442
21522SOL     OW76219   9.174   3.937   4.005
21522SOL    HW176220   9.103   4.002   4.031
21522SOL    HW276221   9.222   3.970   3.924
21523SOL     OW76222   9.639   3.393   6.245
21523SOL    HW176223   9.694   3.457   6.299
21523SOL    HW276224   9.633   3.306   6.293
21524SOL     OW76225   8.611   5.795   7.918
21524SOL    HW176226   8.659   5.829   7.999
21524SOL    HW276227   8.677   5.776   7.846
21525SOL     OW76228   0.542   6.959   3.079
21525SOL    HW176229   0.445   6.955   3.054
21525SOL    HW276230   0.561   7.045   3.126
21526SOL     OW76231   8.640   9.667   1.444
21526SOL    HW176232   8.733   9.704   1.443
21526SOL    HW276233   8.595   9.689   1.357
21527SOL     OW76234   3.284   2.905   0.987
21527SOL    HW176235   3.310   3.000   0.967
21527SOL    HW276236   3.209   2.904   1.054
21528SOL     OW76237   2.997   3.005   3.142
21528SOL    HW176238   3.015   3.101   3.162
21528SOL    HW276239   3.004   2.990   3.044
21529SOL     OW76240   1.094   3.198   7.826
21529SOL    HW176241   1.176   3.256   7.826
21529SOL    HW276242   1.117   3.106   7.858
21530SOL     OW76243   8.784   7.903   1.926
21530SOL    HW176244   8.792   7.831   1.996
21530SOL    HW276245   8.730   7.868   1.849
21531SOL     OW76246   3.869   0.708   3.370
21531SOL    HW176247   3.818   0.730   3.287
21531SOL    HW276248   3.934   0.781   3.390
21532SOL     OW76249   0.578   2.897   2.090
21532SOL    HW176250   0.670   2.864   2.067
21532SOL    HW276251   0.581   2.997   2.100
21533SOL     OW76252   2.658   8.491   4.305
21533SOL    HW176253   2.599   8.455   4.377
21533SOL    HW276254   2.730   8.546   4.347
21534SOL     OW76255   3.183   9.580   7.567
21534SOL    HW176256   3.205   9.677   7.560
21534SOL    HW276257   3.084   9.567   7.557
21535SOL     OW76258   9.937   7.921   3.118
21535SOL    HW176259   9.987   8.001   3.150
21535SOL    HW276260   9.993   7.872   3.051
21536SOL     OW76261   5.760   7.408   3.080
21536SOL    HW176262   5.795   7.351   3.155
21536SOL    HW276263   5.835   7.462   3.041
21537SOL     OW76264   8.711   0.396   6.696
21537SOL    HW176265   8.786   0.436   6.644
21537SOL    HW276266   8.682   0.311   6.652
21538SOL     OW76267   3.459   6.845   7.464
21538SOL    HW176268   3.418   6.856   7.555
21538SOL    HW276269   3.402   6.891   7.396
21539SOL     OW76270   3.167   6.840   3.426
21539SOL    HW176271   3.151   6.745   3.398
21539SOL    HW276272   3.227   6.884   3.359
21540SOL     OW76273   7.817   7.788   2.925
21540SOL    HW176274   7.884   7.783   2.999
21540SOL    HW276275   7.808   7.882   2.894
21541SOL     OW76276   4.987   6.156   2.934
21541SOL    HW176277   4.897   6.190   2.960
21541SOL    HW276278   5.038   6.227   2.886
21542SOL     OW76279   8.140   5.527   7.712
21542SOL    HW176280   8.159   5.512   7.615
21542SOL    HW276281   8.156   5.442   7.762
21543SOL     OW76282   9.598   8.612   4.155
21543SOL    HW176283   9.571   8.699   4.196
21543SOL    HW276284   9.563   8.607   4.061
21544SOL     OW76285   2.589   3.462   7.619
21544SOL    HW176286   2.559   3.437   7.527
21544SOL    HW276287   2.511   3.498   7.671
21545SOL     OW76288   7.109   3.335   0.484
21545SOL    HW176289   7.103   3.385   0.570
21545SOL    HW276290   7.198   3.288   0.479
21546SOL     OW76291   4.840   8.747   2.893
21546SOL    HW176292   4.846   8.730   2.991
21546SOL    HW276293   4.931   8.770   2.857
21547SOL     OW76294   1.537   3.921   3.011
21547SOL    HW176295   1.477   3.841   3.003
21547SOL    HW276296   1.486   4.003   2.982
21548SOL     OW76297   4.584   0.334   3.088
21548SOL    HW176298   4.571   0.384   3.002
21548SOL    HW276299   4.534   0.379   3.161
21549SOL     OW76300   9.407   3.394   5.916
21549SOL    HW176301   9.398   3.386   5.816
21549SOL    HW276302   9.478   3.332   5.948
21550SOL     OW76303   0.277   1.184   6.320
21550SOL    HW176304   0.270   1.202   6.222
21550SOL    HW276305   0.363   1.139   6.340
21551SOL     OW76306   2.003   0.915   2.041
21551SOL    HW176307   1.925   0.892   2.099
21551SOL    HW276308   2.003   0.856   1.960
21552SOL     OW76309   3.348   2.561   2.463
21552SOL    HW176310   3.251   2.542   2.477
21552SOL    HW276311   3.365   2.659   2.475
21553SOL     OW76312   0.323   9.929   4.518
21553SOL    HW176313   0.345   9.982   4.436
21553SOL    HW276314   0.232   9.954   4.550
21554SOL     OW76315   2.898   3.347   2.918
21554SOL    HW176316   2.928   3.300   3.001
21554SOL    HW276317   2.972   3.406   2.885
21555SOL     OW76318   0.195   7.652   0.599
21555SOL    HW176319   0.198   7.752   0.604
21555SOL    HW276320   0.147   7.616   0.680
21556SOL     OW76321   8.407   7.952   3.902
21556SOL    HW176322   8.354   8.014   3.844
21556SOL    HW276323   8.378   7.963   3.997
21557SOL     OW76324   8.368   9.373   6.642
21557SOL    HW176325   8.390   9.315   6.721
21557SOL    HW276326   8.352   9.467   6.674
21558SOL     OW76327   2.294   7.133   5.535
21558SOL    HW176328   2.253   7.102   5.450
21558SOL    HW276329   2.258   7.223   5.560
21559SOL     OW76330   2.873   6.002   6.220
21559SOL    HW176331   2.964   5.994   6.179
21559SOL    HW276332   2.860   6.094   6.256
21560SOL     OW76333   0.805   8.843   1.290
21560SOL    HW176334   0.769   8.791   1.212
21560SOL    HW276335   0.844   8.781   1.357
21561SOL     OW76336   4.448   2.534   0.383
21561SOL    HW176337   4.417   2.442   0.406
21561SOL    HW276338   4.392   2.571   0.309
21562SOL     OW76339   9.356   1.878   1.726
21562SOL    HW176340   9.416   1.828   1.788
21562SOL    HW276341   9.263   1.880   1.763
21563SOL     OW76342   0.467   0.910   0.756
21563SOL    HW176343   0.385   0.890   0.703
21563SOL    HW276344   0.444   0.912   0.854
21564SOL     OW76345   3.267   3.953   1.500
21564SOL    HW176346   3.172   3.963   1.530
21564SOL    HW276347   3.274   3.975   1.403
21565SOL     OW76348   9.301   4.932   4.689
21565SOL    HW176349   9.219   4.881   4.716
21565SOL    HW276350   9.383   4.881   4.715
21566SOL     OW76351   8.225   1.189   5.414
21566SOL    HW176352   8.167   1.156   5.340
21566SOL    HW276353   8.173   1.252   5.471
21567SOL     OW76354   1.310   2.643   4.786
21567SOL    HW176355   1.281   2.598   4.701
21567SOL    HW276356   1.261   2.729   4.797
21568SOL     OW76357   6.033   2.539   1.777
21568SOL    HW176358   6.021   2.443   1.802
21568SOL    HW276359   6.109   2.548   1.713
21569SOL     OW76360   0.599   5.856   5.975
21569SOL    HW176361   0.627   5.846   5.880
21569SOL    HW276362   0.622   5.947   6.008
21570SOL     OW76363   2.585   1.348   2.259
21570SOL    HW176364   2.662   1.412   2.267
21570SOL    HW276365   2.592   1.279   2.332
21571SOL     OW76366   5.856   8.334   2.534
21571SOL    HW176367   5.841   8.310   2.438
21571SOL    HW276368   5.829   8.430   2.548
21572SOL     OW76369   1.382   3.688   0.470
21572SOL    HW176370   1.342   3.730   0.388
21572SOL    HW276371   1.315   3.625   0.510
21573SOL     OW76372   7.477   4.292   1.279
21573SOL    HW176373   7.428   4.359   1.222
21573SOL    HW276374   7.440   4.200   1.261
21574SOL     OW76375   5.331   6.588   2.447
21574SOL    HW176376   5.396   6.631   2.510
21574SOL    HW276377   5.307   6.498   2.481
21575SOL     OW76378   9.713   4.340   6.426
21575SOL    HW176379   9.716   4.416   6.361
21575SOL    HW276380   9.802   4.332   6.471
21576SOL     OW76381   5.237   2.023   0.602
21576SOL    HW176382   5.307   2.066   0.545
21576SOL    HW276383   5.278   1.995   0.689
21577SOL     OW76384   5.454   2.443   1.293
21577SOL    HW176385   5.452   2.447   1.193
21577SOL    HW276386   5.431   2.532   1.331
21578SOL     OW76387   9.149   9.823   1.709
21578SOL    HW176388   9.198   9.821   1.621
21578SOL    HW276389   9.143   9.730   1.745
21579SOL     OW76390   0.374   4.372   0.825
21579SOL    HW176391   0.346   4.336   0.914
21579SOL    HW276392   0.417   4.300   0.771
21580SOL     OW76393   9.900   1.962   2.999
21580SOL    HW176394   9.901   1.995   3.093
21580SOL    HW276395   9.809   1.930   2.975
21581SOL     OW76396   5.561   3.422   1.241
21581SOL    HW176397   5.467   3.392   1.256
21581SOL    HW276398   5.614   3.347   1.201
21582SOL     OW76399   8.461   6.990   7.301
21582SOL    HW176400   8.541   6.934   7.282
21582SOL    HW276401   8.487   7.086   7.303
21583SOL     OW76402   7.751   1.566   0.664
21583SOL    HW176403   7.774   1.611   0.750
21583SOL    HW276404   7.732   1.469   0.682
21584SOL     OW76405   3.763   8.094   6.463
21584SOL    HW176406   3.717   8.065   6.547
21584SOL    HW276407   3.746   8.026   6.391
21585SOL     OW76408   7.784   5.484   3.517
21585SOL    HW176409   7.780   5.532   3.429
21585SOL    HW276410   7.866   5.427   3.521
21586SOL     OW76411   0.316   5.582   0.297
21586SOL    HW176412   0.267   5.637   0.230
21586SOL    HW276413   0.297   5.615   0.389
21587SOL     OW76414   4.302   5.806   0.711
21587SOL    HW176415   4.375   5.842   0.653
21587SOL    HW276416   4.255   5.881   0.757
21588SOL     OW76417   6.283   8.828   3.445
21588SOL    HW176418   6.352   8.900   3.434
21588SOL    HW276419   6.232   8.844   3.530
21589SOL     OW76420   9.798   1.196   2.025
21589SOL    HW176421   9.732   1.152   2.087
21589SOL    HW276422   9.858   1.256   2.078
21590SOL     OW76423   8.587   8.245   1.912
21590SOL    HW176424   8.613   8.341   1.907
21590SOL    HW276425   8.599   8.203   1.822
21591SOL     OW76426   0.024   4.617   1.496
21591SOL    HW176427   0.001   4.568   1.412
21591SOL    HW276428   0.117   4.652   1.490
21592SOL     OW76429   2.719   6.511   4.828
21592SOL    HW176430   2.643   6.459   4.789
21592SOL    HW276431   2.805   6.480   4.788
21593SOL     OW76432   8.588   8.165   5.765
21593SOL    HW176433   8.668   8.110   5.788
21593SOL    HW276434   8.526   8.112   5.706
21594SOL     OW76435   2.559   7.763   7.849
21594SOL    HW176436   2.545   7.667   7.827
21594SOL    HW276437   2.631   7.801   7.791
21595SOL     OW76438   3.797   5.829   4.268
21595SOL    HW176439   3.716   5.787   4.227
21595SOL    HW276440   3.820   5.912   4.218
21596SOL     OW76441   9.084   8.525   5.989
21596SOL    HW176442   9.080   8.542   5.890
21596SOL    HW276443   9.119   8.607   6.035
21597SOL     OW76444   9.885   4.386   6.123
21597SOL    HW176445   9.837   4.459   6.171
21597SOL    HW276446   9.962   4.426   6.072
21598SOL     OW76447   5.578   9.098   5.696
21598SOL    HW176448   5.523   9.064   5.620
21598SOL    HW276449   5.640   9.169   5.662
21599SOL     OW76450   3.249   0.074   1.782
21599SOL    HW176451   3.280   0.054   1.875
21599SOL    HW276452   3.253   0.173   1.766
21600SOL     OW76453   8.553   2.861   1.548
21600SOL    HW176454   8.526   2.957   1.545
21600SOL    HW276455   8.521   2.820   1.634
21601SOL     OW76456   3.593   3.166   0.136
21601SOL    HW176457   3.654   3.193   0.210
21601SOL    HW276458   3.574   3.068   0.143
21602SOL     OW76459   7.788   3.048   5.226
21602SOL    HW176460   7.751   3.003   5.307
21602SOL    HW276461   7.870   3.100   5.250
21603SOL     OW76462   9.934   0.227   1.021
21603SOL    HW176463   9.851   0.237   0.966
21603SOL    HW276464   0.012   0.265   0.971
21604SOL     OW76465   1.350   1.197   4.463
21604SOL    HW176466   1.394   1.107   4.470
21604SOL    HW276467   1.356   1.230   4.369
21605SOL     OW76468   3.889   8.028   7.618
21605SOL    HW176469   3.932   7.994   7.534
21605SOL    HW276470   3.938   8.109   7.650
21606SOL     OW76471   8.868   2.792   0.541
21606SOL    HW176472   8.913   2.876   0.511
21606SOL    HW276473   8.914   2.757   0.622
21607SOL     OW76474   2.929   1.148   0.277
21607SOL    HW176475   2.866   1.074   0.297
21607SOL    HW276476   3.019   1.110   0.254
21608SOL     OW76477   9.732   1.311   0.807
21608SOL    HW176478   9.798   1.386   0.795
21608SOL    HW276479   9.673   1.331   0.885
21609SOL     OW76480   9.246   6.392   1.226
21609SOL    HW176481   9.331   6.365   1.180
21609SOL    HW276482   9.213   6.478   1.187
21610SOL     OW76483   1.845   6.453   1.144
21610SOL    HW176484   1.773   6.483   1.206
21610SOL    HW276485   1.895   6.376   1.186
21611SOL     OW76486   9.328   7.974   0.329
21611SOL    HW176487   9.299   7.940   0.239
21611SOL    HW276488   9.264   7.942   0.399
21612SOL     OW76489   6.384   0.783   1.585
21612SOL    HW176490   6.366   0.879   1.564
21612SOL    HW276491   6.303   0.729   1.564
21613SOL     OW76492   9.200   3.871   3.195
21613SOL    HW176493   9.198   3.919   3.283
21613SOL    HW276494   9.108   3.871   3.155
21614SOL     OW76495   5.005   2.950   6.974
21614SOL    HW176496   5.009   2.851   6.956
21614SOL    HW276497   5.016   2.999   6.888
21615SOL     OW76498   0.483   3.432   0.373
21615SOL    HW176499   0.572   3.394   0.399
21615SOL    HW276500   0.410   3.373   0.407
21616SOL     OW76501   3.705   5.429   3.820
21616SOL    HW176502   3.775   5.455   3.754
21616SOL    HW276503   3.660   5.344   3.790
21617SOL     OW76504   6.239   4.180   0.742
21617SOL    HW176505   6.317   4.133   0.784
21617SOL    HW276506   6.155   4.153   0.789
21618SOL     OW76507   2.963   5.123   3.350
21618SOL    HW176508   2.921   5.185   3.284
21618SOL    HW276509   2.895   5.057   3.382
21619SOL     OW76510   8.517   7.135   1.083
21619SOL    HW176511   8.581   7.205   1.053
21619SOL    HW276512   8.567   7.051   1.105
21620SOL     OW76513   3.183   7.664   1.796
21620SOL    HW176514   3.182   7.706   1.887
21620SOL    HW276515   3.121   7.716   1.736
21621SOL     OW76516   6.637   0.067   2.779
21621SOL    HW176517   6.655   0.007   2.702
21621SOL    HW276518   6.612   0.158   2.746
21622SOL     OW76519   9.500   8.666   4.866
21622SOL    HW176520   9.410   8.659   4.825
21622SOL    HW276521   9.570   8.646   4.798
21623SOL     OW76522   1.084   8.664   7.468
21623SOL    HW176523   1.136   8.744   7.439
21623SOL    HW276524   1.054   8.677   7.563
21624SOL     OW76525   9.425   0.625   2.123
21624SOL    HW176526   9.387   0.546   2.173
21624SOL    HW276527   9.432   0.602   2.026
21625SOL     OW76528   6.972   2.416   4.837
21625SOL    HW176529   7.069   2.397   4.853
21625SOL    HW276530   6.951   2.509   4.865
21626SOL     OW76531   7.990   2.389   5.116
21626SOL    HW176532   8.047   2.312   5.146
21626SOL    HW276533   8.049   2.461   5.079
21627SOL     OW76534   0.606   8.696   7.387
21627SOL    HW176535   0.514   8.656   7.390
21627SOL    HW276536   0.629   8.719   7.293
21628SOL     OW76537   3.737   4.099   3.765
21628SOL    HW176538   3.660   4.158   3.741
21628SOL    HW276539   3.704   4.022   3.819
21629SOL     OW76540   9.242   8.966   4.594
21629SOL    HW176541   9.210   8.959   4.499
21629SOL    HW276542   9.167   8.945   4.656
21630SOL     OW76543   0.926   5.409   0.143
21630SOL    HW176544   1.015   5.454   0.153
21630SOL    HW276545   0.865   5.441   0.215
21631SOL     OW76546   6.877   6.980   3.703
21631SOL    HW176547   6.799   7.010   3.648
21631SOL    HW276548   6.919   7.058   3.748
21632SOL     OW76549   9.919   7.136   1.989
21632SOL    HW176550   9.914   7.137   2.089
21632SOL    HW276551   0.013   7.118   1.960
21633SOL     OW76552   3.457   1.325   3.567
21633SOL    HW176553   3.407   1.369   3.642
21633SOL    HW276554   3.394   1.310   3.490
21634SOL     OW76555   9.679   2.621   5.581
21634SOL    HW176556   9.657   2.547   5.643
21634SOL    HW276557   9.609   2.627   5.509
21635SOL     OW76558   2.896   6.378   5.453
21635SOL    HW176559   2.968   6.432   5.410
21635SOL    HW276560   2.935   6.294   5.491
21636SOL     OW76561   3.326   2.091   6.928
21636SOL    HW176562   3.270   2.106   7.010
21636SOL    HW276563   3.319   1.996   6.899
21637SOL     OW76564   2.808   5.066   4.928
21637SOL    HW176565   2.736   5.094   4.863
21637SOL    HW276566   2.867   5.145   4.948
21638SOL     OW76567   2.819   2.591   5.290
21638SOL    HW176568   2.769   2.652   5.228
21638SOL    HW276569   2.807   2.497   5.261
21639SOL     OW76570   1.459   8.939   5.606
21639SOL    HW176571   1.506   8.874   5.545
21639SOL    HW276572   1.397   8.995   5.552
21640SOL     OW76573   1.995   3.879   1.527
21640SOL    HW176574   2.072   3.911   1.582
21640SOL    HW276575   1.909   3.900   1.574
21641SOL     OW76576   3.459   5.009   2.186
21641SOL    HW176577   3.411   4.979   2.104
21641SOL    HW276578   3.556   5.022   2.164
21642SOL     OW76579   0.097   2.275   5.874
21642SOL    HW176580   0.180   2.287   5.928
21642SOL    HW276581   0.086   2.178   5.850
21643SOL     OW76582   1.007   3.767   7.379
21643SOL    HW176583   0.927   3.716   7.349
21643SOL    HW276584   1.085   3.745   7.320
21644SOL     OW76585   6.527   2.794   1.263
21644SOL    HW176586   6.490   2.864   1.203
21644SOL    HW276587   6.627   2.801   1.264
21645SOL     OW76588   8.482   0.631   1.706
21645SOL    HW176589   8.421   0.556   1.679
21645SOL    HW276590   8.577   0.606   1.689
21646SOL     OW76591   3.765   7.455   2.175
21646SOL    HW176592   3.740   7.524   2.107
21646SOL    HW276593   3.863   7.436   2.170
21647SOL     OW76594   6.663   9.624   4.821
21647SOL    HW176595   6.712   9.564   4.758
21647SOL    HW276596   6.688   9.719   4.802
21648SOL     OW76597   5.967   9.391   1.660
21648SOL    HW176598   6.013   9.332   1.593
21648SOL    HW276599   5.908   9.336   1.718
21649SOL     OW76600   3.040   4.236   1.607
21649SOL    HW176601   3.017   4.264   1.700
21649SOL    HW276602   3.033   4.137   1.599
21650SOL     OW76603   1.518   0.756   5.275
21650SOL    HW176604   1.611   0.791   5.280
21650SOL    HW276605   1.499   0.699   5.355
21651SOL     OW76606   1.432   9.516   5.740
21651SOL    HW176607   1.360   9.466   5.788
21651SOL    HW276608   1.517   9.508   5.790
21652SOL     OW76609   8.130   8.347   0.795
21652SOL    HW176610   8.057   8.281   0.815
21652SOL    HW276611   8.143   8.354   0.696
21653SOL     OW76612   9.691   4.845   5.151
21653SOL    HW176613   9.640   4.793   5.082
21653SOL    HW276614   9.736   4.782   5.214
21654SOL     OW76615   9.746   5.116   6.135
21654SOL    HW176616   9.794   5.147   6.052
21654SOL    HW276617   9.687   5.039   6.112
21655SOL     OW76618   2.198   1.364   4.306
21655SOL    HW176619   2.150   1.392   4.389
21655SOL    HW276620   2.131   1.346   4.234
21656SOL     OW76621   7.767   5.604   5.330
21656SOL    HW176622   7.701   5.646   5.268
21656SOL    HW276623   7.724   5.591   5.419
21657SOL     OW76624   7.158   5.565   7.463
21657SOL    HW176625   7.137   5.468   7.456
21657SOL    HW276626   7.256   5.578   7.473
21658SOL     OW76627   0.142   6.616   3.157
21658SOL    HW176628   0.059   6.561   3.152
21658SOL    HW276629   0.216   6.562   3.198
21659SOL     OW76630   3.824   3.969   4.641
21659SOL    HW176631   3.733   3.931   4.656
21659SOL    HW276632   3.848   3.960   4.544
21660SOL     OW76633   3.085   2.874   1.219
21660SOL    HW176634   3.101   2.783   1.257
21660SOL    HW276635   3.042   2.932   1.288
21661SOL     OW76636   2.607   5.085   6.620
21661SOL    HW176637   2.659   5.168   6.600
21661SOL    HW276638   2.605   5.026   6.540
21662SOL     OW76639   7.323   8.947   1.847
21662SOL    HW176640   7.274   8.872   1.891
21662SOL    HW276641   7.384   8.910   1.777
21663SOL     OW76642   8.710   1.027   4.848
21663SOL    HW176643   8.689   1.086   4.770
21663SOL    HW276644   8.626   1.013   4.901
21664SOL     OW76645   5.122   7.474   2.127
21664SOL    HW176646   5.217   7.477   2.097
21664SOL    HW276647   5.091   7.567   2.146
21665SOL     OW76648   6.060   9.796   2.425
21665SOL    HW176649   6.140   9.793   2.365
21665SOL    HW276650   5.986   9.742   2.385
21666SOL     OW76651   1.716   3.044   2.689
21666SOL    HW176652   1.670   3.071   2.605
21666SOL    HW276653   1.674   2.959   2.724
21667SOL     OW76654   5.725   0.466   3.169
21667SOL    HW176655   5.636   0.433   3.199
21667SOL    HW276656   5.747   0.551   3.215
21668SOL     OW76657   7.577   0.571   5.838
21668SOL    HW176658   7.671   0.601   5.823
21668SOL    HW276659   7.522   0.595   5.758
21669SOL     OW76660   4.218   9.742   1.103
21669SOL    HW176661   4.286   9.792   1.050
21669SOL    HW276662   4.258   9.657   1.139
21670SOL     OW76663   3.296   1.464   7.565
21670SOL    HW176664   3.242   1.428   7.489
21670SOL    HW276665   3.235   1.513   7.628
21671SOL     OW76666   6.038   1.995   0.827
21671SOL    HW176667   6.051   1.915   0.886
21671SOL    HW276668   5.982   1.969   0.749
21672SOL     OW76669   0.861   8.698   3.365
21672SOL    HW176670   0.803   8.774   3.333
21672SOL    HW276671   0.919   8.731   3.440
21673SOL     OW76672   1.598   0.845   2.033
21673SOL    HW176673   1.661   0.877   2.104
21673SOL    HW276674   1.575   0.749   2.049
21674SOL     OW76675   9.426   9.347   4.838
21674SOL    HW176676   9.434   9.287   4.759
21674SOL    HW276677   9.339   9.330   4.884
21675SOL     OW76678   1.861   2.624   6.435
21675SOL    HW176679   1.845   2.660   6.527
21675SOL    HW276680   1.922   2.545   6.440
21676SOL     OW76681   1.434   5.601   6.047
21676SOL    HW176682   1.394   5.669   5.986
21676SOL    HW276683   1.473   5.527   5.992
21677SOL     OW76684   0.910   2.785   2.906
21677SOL    HW176685   0.969   2.834   2.841
21677SOL    HW276686   0.937   2.689   2.910
21678SOL     OW76687   5.454   9.033   2.940
21678SOL    HW176688   5.436   8.990   3.029
21678SOL    HW276689   5.538   8.996   2.901
21679SOL     OW76690   9.683   8.827   3.149
21679SOL    HW176691   9.603   8.840   3.208
21679SOL    HW276692   9.731   8.914   3.139
21680SOL     OW76693   4.577   0.108   0.064
21680SOL    HW176694   4.604   0.016   0.091
21680SOL    HW276695   4.535   0.107  10.055
21681SOL     OW76696   0.957   5.658   6.077
21681SOL    HW176697   0.865   5.627   6.054
21681SOL    HW276698   1.020   5.634   6.002
21682SOL     OW76699   7.726   3.341   0.204
21682SOL    HW176700   7.792   3.337   0.279
21682SOL    HW276701   7.639   3.377   0.239
21683SOL     OW76702   6.438   0.191   5.505
21683SOL    HW176703   6.511   0.154   5.563
21683SOL    HW276704   6.361   0.218   5.562
21684SOL     OW76705   8.808   4.725   5.094
21684SOL    HW176706   8.779   4.668   5.017
21684SOL    HW276707   8.757   4.698   5.176
21685SOL     OW76708   4.540   1.615   5.077
21685SOL    HW176709   4.560   1.564   4.994
21685SOL    HW276710   4.620   1.669   5.103
21686SOL     OW76711   3.978   4.688   0.224
21686SOL    HW176712   4.078   4.682   0.224
21686SOL    HW276713   3.943   4.659   0.313
21687SOL     OW76714   0.168   9.079   2.973
21687SOL    HW176715   0.156   9.075   3.072
21687SOL    HW276716   0.087   9.120   2.931
21688SOL     OW76717   0.322   5.002   6.314
21688SOL    HW176718   0.420   4.997   6.333
21688SOL    HW276719   0.286   5.089   6.349
21689SOL     OW76720   0.722   3.146   2.961
21689SOL    HW176721   0.661   3.222   2.982
21689SOL    HW276722   0.747   3.100   3.046
21690SOL     OW76723   8.918   8.521   2.186
21690SOL    HW176724   8.905   8.618   2.165
21690SOL    HW276725   8.998   8.511   2.245
21691SOL     OW76726   7.718   8.963   5.971
21691SOL    HW176727   7.806   8.969   6.019
21691SOL    HW276728   7.689   9.055   5.944
21692SOL     OW76729   2.024   2.009   3.807
21692SOL    HW176730   1.967   2.051   3.736
21692SOL    HW276731   2.084   2.079   3.847
21693SOL     OW76732   4.437   3.240   6.950
21693SOL    HW176733   4.499   3.207   7.022
21693SOL    HW276734   4.348   3.196   6.960
21694SOL     OW76735   1.198   6.519   3.473
21694SOL    HW176736   1.244   6.459   3.539
21694SOL    HW276737   1.105   6.488   3.458
21695SOL     OW76738   4.874   4.252   6.257
21695SOL    HW176739   4.894   4.190   6.332
21695SOL    HW276740   4.777   4.274   6.256
21696SOL     OW76741   4.779   6.330   1.344
21696SOL    HW176742   4.701   6.268   1.340
21696SOL    HW276743   4.752   6.420   1.310
21697SOL     OW76744   7.572   8.925   3.473
21697SOL    HW176745   7.599   8.983   3.396
21697SOL    HW276746   7.619   8.954   3.556
21698SOL     OW76747   8.975   9.365   1.512
21698SOL    HW176748   9.054   9.401   1.462
21698SOL    HW276749   8.933   9.438   1.565
21699SOL     OW76750   3.025   8.116   2.926
21699SOL    HW176751   3.105   8.070   2.965
21699SOL    HW276752   2.951   8.051   2.914
21700SOL     OW76753   3.317   4.005   2.271
21700SOL    HW176754   3.265   4.051   2.343
21700SOL    HW276755   3.376   4.071   2.224
21701SOL     OW76756   4.614   8.033   4.401
21701SOL    HW176757   4.672   7.971   4.349
21701SOL    HW276758   4.556   7.981   4.462
21702SOL     OW76759   9.742   7.134   3.058
21702SOL    HW176760   9.720   7.083   3.142
21702SOL    HW276761   9.714   7.081   2.978
21703SOL     OW76762   4.356   5.096   4.357
21703SOL    HW176763   4.324   5.018   4.303
21703SOL    HW276764   4.456   5.100   4.354
21704SOL     OW76765   0.056   7.867   6.310
21704SOL    HW176766   0.016   7.787   6.265
21704SOL    HW276767   0.010   7.950   6.278
21705SOL     OW76768   9.441   2.729   4.838
21705SOL    HW176769   9.441   2.646   4.893
21705SOL    HW276770   9.408   2.805   4.894
21706SOL     OW76771   2.913   4.913   4.140
21706SOL    HW176772   3.003   4.869   4.147
21706SOL    HW276773   2.884   4.944   4.230
21707SOL     OW76774   9.802   4.580   5.768
21707SOL    HW176775   9.746   4.662   5.781
21707SOL    HW276776   9.899   4.604   5.769
21708SOL     OW76777   8.318   1.522   7.833
21708SOL    HW176778   8.278   1.530   7.924
21708SOL    HW276779   8.403   1.470   7.838
21709SOL     OW76780   6.333   8.018   4.532
21709SOL    HW176781   6.256   7.961   4.559
21709SOL    HW276782   6.305   8.114   4.535
21710SOL     OW76783   0.355   4.880   0.130
21710SOL    HW176784   0.361   4.979   0.122
21710SOL    HW276785   0.264   4.854   0.162
21711SOL     OW76786   3.840   4.970   1.551
21711SOL    HW176787   3.810   5.065   1.561
21711SOL    HW276788   3.826   4.940   1.457
21712SOL     OW76789   3.721   5.347   6.403
21712SOL    HW176790   3.709   5.333   6.305
21712SOL    HW276791   3.646   5.304   6.453
21713SOL     OW76792   8.275   4.247   6.483
21713SOL    HW176793   8.200   4.277   6.542
21713SOL    HW276794   8.289   4.315   6.410
21714SOL     OW76795   5.023   4.262   0.614
21714SOL    HW176796   5.086   4.214   0.552
21714SOL    HW276797   5.042   4.360   0.612
21715SOL     OW76798   7.686   4.223   5.464
21715SOL    HW176799   7.629   4.146   5.493
21715SOL    HW276800   7.765   4.188   5.413
21716SOL     OW76801   8.523   5.382   2.066
21716SOL    HW176802   8.473   5.374   2.153
21716SOL    HW276803   8.600   5.444   2.078
21717SOL     OW76804   0.195   7.470   3.697
21717SOL    HW176805   0.244   7.549   3.659
21717SOL    HW276806   0.152   7.418   3.623
21718SOL     OW76807   3.199   0.551   2.741
21718SOL    HW176808   3.206   0.636   2.689
21718SOL    HW276809   3.256   0.481   2.699
21719SOL     OW76810   8.563   0.999   2.405
21719SOL    HW176811   8.631   1.072   2.400
21719SOL    HW276812   8.490   1.017   2.340
21720SOL     OW76813   3.214   5.006   3.334
21720SOL    HW176814   3.121   5.044   3.327
21720SOL    HW276815   3.221   4.952   3.418
21721SOL     OW76816   3.599   5.728   1.964
21721SOL    HW176817   3.663   5.797   1.929
21721SOL    HW276818   3.507   5.769   1.970
21722SOL     OW76819   5.505   8.979   5.930
21722SOL    HW176820   5.535   9.024   5.846
21722SOL    HW276821   5.457   9.044   5.988
21723SOL     OW76822   7.085   6.837   4.368
21723SOL    HW176823   7.181   6.821   4.345
21723SOL    HW276824   7.079   6.881   4.457
21724SOL     OW76825   6.557   2.576   0.279
21724SOL    HW176826   6.608   2.536   0.355
21724SOL    HW276827   6.600   2.663   0.252
21725SOL     OW76828   9.195   3.463   3.502
21725SOL    HW176829   9.119   3.511   3.548
21725SOL    HW276830   9.211   3.506   3.413
21726SOL     OW76831   2.745   6.080   2.260
21726SOL    HW176832   2.657   6.043   2.234
21726SOL    HW276833   2.752   6.084   2.360
21727SOL     OW76834   1.757   3.005   0.244
21727SOL    HW176835   1.851   2.990   0.214
21727SOL    HW276836   1.699   3.026   0.165
21728SOL     OW76837   1.194   0.819   6.675
21728SOL    HW176838   1.280   0.865   6.696
21728SOL    HW276839   1.182   0.813   6.576
21729SOL     OW76840   3.579   7.639   7.156
21729SOL    HW176841   3.627   7.633   7.068
21729SOL    HW276842   3.554   7.547   7.187
21730SOL     OW76843   8.514   9.889   7.774
21730SOL    HW176844   8.602   9.906   7.817
21730SOL    HW276845   8.483   9.970   7.725
21731SOL     OW76846   7.614   8.438   4.885
21731SOL    HW176847   7.686   8.488   4.932
21731SOL    HW276848   7.596   8.352   4.934
21732SOL     OW76849   3.941   1.291   5.947
21732SOL    HW176850   3.855   1.333   5.918
21732SOL    HW276851   3.969   1.222   5.880
21733SOL     OW76852   7.253   3.859   0.107
21733SOL    HW176853   7.202   3.773   0.109
21733SOL    HW276854   7.252   3.897   0.015
21734SOL     OW76855   5.477   4.810   7.721
21734SOL    HW176856   5.531   4.741   7.768
21734SOL    HW276857   5.476   4.790   7.623
21735SOL     OW76858   9.191   2.229   3.067
21735SOL    HW176859   9.201   2.188   3.157
21735SOL    HW276860   9.260   2.191   3.005
21736SOL     OW76861   6.503   8.977   2.055
21736SOL    HW176862   6.481   8.967   1.958
21736SOL    HW276863   6.425   8.947   2.110
21737SOL     OW76864   9.372   2.973   7.129
21737SOL    HW176865   9.440   2.902   7.118
21737SOL    HW276866   9.393   3.027   7.211
21738SOL     OW76867   7.963   0.029   0.168
21738SOL    HW176868   7.927   0.122   0.175
21738SOL    HW276869   7.888   9.965   0.158
21739SOL     OW76870   2.812   3.877   6.488
21739SOL    HW176871   2.826   3.973   6.464
21739SOL    HW276872   2.847   3.819   6.414
21740SOL     OW76873   6.718   0.432   1.519
21740SOL    HW176874   6.692   0.382   1.601
21740SOL    HW276875   6.811   0.468   1.530
21741SOL     OW76876   0.382   8.745   4.801
21741SOL    HW176877   0.374   8.726   4.704
21741SOL    HW276878   0.448   8.682   4.842
21742SOL     OW76879   8.128   6.144   0.596
21742SOL    HW176880   8.076   6.154   0.681
21742SOL    HW276881   8.088   6.072   0.540
21743SOL     OW76882   1.218   6.271   4.181
21743SOL    HW176883   1.203   6.355   4.130
21743SOL    HW276884   1.167   6.274   4.267
21744SOL     OW76885   3.518   4.578   2.095
21744SOL    HW176886   3.461   4.557   2.015
21744SOL    HW276887   3.466   4.559   2.178
21745SOL     OW76888   7.972   0.518   0.228
21745SOL    HW176889   7.917   0.578   0.286
21745SOL    HW276890   7.983   0.560   0.138
21746SOL     OW76891   2.426   0.286   2.089
21746SOL    HW176892   2.364   0.288   2.168
21746SOL    HW276893   2.379   0.243   2.011
21747SOL     OW76894   3.183   4.106   5.732
21747SOL    HW176895   3.260   4.168   5.744
21747SOL    HW276896   3.216   4.013   5.721
21748SOL     OW76897   1.530   2.924   6.189
21748SOL    HW176898   1.530   2.932   6.289
21748SOL    HW276899   1.621   2.893   6.158
21749SOL     OW76900   3.716   3.701   2.318
21749SOL    HW176901   3.759   3.710   2.408
21749SOL    HW276902   3.619   3.722   2.326
21750SOL     OW76903   2.713   4.320   1.971
21750SOL    HW176904   2.686   4.416   1.973
21750SOL    HW276905   2.661   4.272   1.900
21751SOL     OW76906   3.501   7.425   3.817
21751SOL    HW176907   3.415   7.452   3.860
21751SOL    HW276908   3.492   7.332   3.781
21752SOL     OW76909   4.678   3.904   7.114
21752SOL    HW176910   4.745   3.882   7.043
21752SOL    HW276911   4.643   3.820   7.155
21753SOL     OW76912   9.850   3.540   6.606
21753SOL    HW176913   9.851   3.588   6.519
21753SOL    HW276914   9.782   3.466   6.603
21754SOL     OW76915   9.111   5.208   2.947
21754SOL    HW176916   9.112   5.308   2.941
21754SOL    HW276917   9.200   5.173   2.919
21755SOL     OW76918   5.291   9.137   2.071
21755SOL    HW176919   5.358   9.206   2.095
21755SOL    HW276920   5.241   9.108   2.153
21756SOL     OW76921   3.022   7.979   6.209
21756SOL    HW176922   3.018   7.988   6.309
21756SOL    HW276923   3.101   7.923   6.184
21757SOL     OW76924   1.781   7.763   4.715
21757SOL    HW176925   1.854   7.827   4.691
21757SOL    HW276926   1.808   7.671   4.687
21758SOL     OW76927   7.919   3.412   0.023
21758SOL    HW176928   7.915   3.511   0.008
21758SOL    HW276929   7.843   3.384   0.080
21759SOL     OW76930   1.348   1.930   4.247
21759SOL    HW176931   1.281   2.004   4.244
21759SOL    HW276932   1.366   1.906   4.342
21760SOL     OW76933   8.421   6.530   3.982
21760SOL    HW176934   8.515   6.539   4.015
21760SOL    HW276935   8.401   6.433   3.966
21761SOL     OW76936   3.419   4.558   6.957
21761SOL    HW176937   3.433   4.643   7.007
21761SOL    HW276938   3.475   4.486   6.998
21762SOL     OW76939   1.645   4.852   1.855
21762SOL    HW176940   1.592   4.823   1.934
21762SOL    HW276941   1.643   4.952   1.849
21763SOL     OW76942   0.906   4.797   0.190
21763SOL    HW176943   0.943   4.890   0.180
21763SOL    HW276944   0.807   4.800   0.191
21764SOL     OW76945   0.917   2.413   1.028
21764SOL    HW176946   0.823   2.418   0.993
21764SOL    HW276947   0.981   2.408   0.952
21765SOL     OW76948   4.199   6.537   1.682
21765SOL    HW176949   4.298   6.541   1.700
21765SOL    HW276950   4.159   6.460   1.732
21766SOL     OW76951   1.641   3.259   7.163
21766SOL    HW176952   1.616   3.162   7.157
21766SOL    HW276953   1.731   3.272   7.122
21767SOL     OW76954   1.064   7.625   2.242
21767SOL    HW176955   1.095   7.677   2.163
21767SOL    HW276956   1.094   7.671   2.326
21768SOL     OW76957   0.418   5.556   6.288
21768SOL    HW176958   0.412   5.646   6.246
21768SOL    HW276959   0.333   5.506   6.272
21769SOL     OW76960   5.079   6.624   1.201
21769SOL    HW176961   5.149   6.635   1.272
21769SOL    HW276962   5.063   6.527   1.184
21770SOL     OW76963   8.938   2.399   3.914
21770SOL    HW176964   8.904   2.491   3.894
21770SOL    HW276965   8.933   2.343   3.831
21771SOL     OW76966   6.903   1.614   3.439
21771SOL    HW176967   6.920   1.515   3.444
21771SOL    HW276968   6.814   1.635   3.478
21772SOL     OW76969   4.040   8.266   0.846
21772SOL    HW176970   4.063   8.270   0.749
21772SOL    HW276971   4.122   8.282   0.901
21773SOL     OW76972   9.370   4.663   3.367
21773SOL    HW176973   9.442   4.594   3.360
21773SOL    HW276974   9.331   4.662   3.459
21774SOL     OW76975   4.172   1.499   4.133
21774SOL    HW176976   4.212   1.411   4.159
21774SOL    HW276977   4.072   1.494   4.140
21775SOL     OW76978   3.034   8.020   6.485
21775SOL    HW176979   3.009   8.116   6.478
21775SOL    HW276980   3.127   8.012   6.520
21776SOL     OW76981   8.000   8.110   3.699
21776SOL    HW176982   7.921   8.066   3.659
21776SOL    HW276983   7.977   8.204   3.725
21777SOL     OW76984   6.366   1.333   0.792
21777SOL    HW176985   6.341   1.272   0.867
21777SOL    HW276986   6.425   1.406   0.827
21778SOL     OW76987   9.741   6.924   6.070
21778SOL    HW176988   9.736   6.830   6.036
21778SOL    HW276989   9.744   6.987   5.993
21779SOL     OW76990   9.598   1.873   3.345
21779SOL    HW176991   9.541   1.822   3.280
21779SOL    HW276992   9.596   1.970   3.322
21780SOL     OW76993   3.311   6.802   7.080
21780SOL    HW176994   3.232   6.822   7.023
21780SOL    HW276995   3.319   6.870   7.152
21781SOL     OW76996   9.318   9.479   2.332
21781SOL    HW176997   9.303   9.577   2.341
21781SOL    HW276998   9.399   9.452   2.384
21782SOL     OW76999   0.120   1.066   2.334
21782SOL    HW177000   0.220   1.071   2.337
21782SOL    HW277001   0.082   1.154   2.363
21783SOL     OW77002   2.855   4.607   0.975
21783SOL    HW177003   2.835   4.523   0.925
21783SOL    HW277004   2.824   4.685   0.921
21784SOL     OW77005   0.050   8.670   3.071
21784SOL    HW177006   9.958   8.687   3.035
21784SOL    HW277007   0.117   8.715   3.011
21785SOL     OW77008   1.064   0.226   3.512
21785SOL    HW177009   1.122   0.307   3.517
21785SOL    HW277010   1.109   0.151   3.561
21786SOL     OW77011   9.908   9.876   1.207
21786SOL    HW177012   9.965   9.899   1.129
21786SOL    HW277013   9.965   9.857   1.286
21787SOL     OW77014   8.102   7.383   7.168
21787SOL    HW177015   8.119   7.335   7.254
21787SOL    HW277016   8.109   7.318   7.092
21788SOL     OW77017   2.237   5.071   7.730
21788SOL    HW177018   2.258   5.162   7.765
21788SOL    HW277019   2.147   5.071   7.686
21789SOL     OW77020   9.249   2.990   5.080
21789SOL    HW177021   9.327   2.971   5.139
21789SOL    HW277022   9.276   3.055   5.009
21790SOL     OW77023   7.880   8.284   4.039
21790SOL    HW177024   7.922   8.196   4.061
21790SOL    HW277025   7.786   8.270   4.009
21791SOL     OW77026   4.946   9.156   2.197
21791SOL    HW177027   4.930   9.245   2.239
21791SOL    HW277028   5.032   9.118   2.230
21792SOL     OW77029   9.919   3.348   5.736
21792SOL    HW177030   9.822   3.339   5.715
21792SOL    HW277031   9.940   3.295   5.819
21793SOL     OW77032   4.515   6.432   0.833
21793SOL    HW177033   4.534   6.416   0.736
21793SOL    HW277034   4.599   6.416   0.886
21794SOL     OW77035   6.316   1.106   5.180
21794SOL    HW177036   6.406   1.081   5.216
21794SOL    HW277037   6.250   1.033   5.200
21795SOL     OW77038   0.978   4.470   5.497
21795SOL    HW177039   0.902   4.529   5.472
21795SOL    HW277040   1.029   4.511   5.572
21796SOL     OW77041   1.867   8.562   1.775
21796SOL    HW177042   1.943   8.498   1.784
21796SOL    HW277043   1.801   8.546   1.849
21797SOL     OW77044   2.709   9.071   6.860
21797SOL    HW177045   2.666   9.042   6.946
21797SOL    HW277046   2.751   8.992   6.815
21798SOL     OW77047   1.576   3.353   6.749
21798SOL    HW177048   1.675   3.363   6.740
21798SOL    HW277049   1.537   3.322   6.662
21799SOL     OW77050   0.623   5.763   5.352
21799SOL    HW177051   0.677   5.833   5.306
21799SOL    HW277052   0.563   5.806   5.420
21800SOL     OW77053   0.998   4.965   2.763
21800SOL    HW177054   1.030   5.053   2.728
21800SOL    HW277055   0.964   4.977   2.856
21801SOL     OW77056   7.755   1.391   4.814
21801SOL    HW177057   7.834   1.418   4.757
21801SOL    HW277058   7.708   1.474   4.845
21802SOL     OW77059   0.726   8.694   1.069
21802SOL    HW177060   0.787   8.699   0.990
21802SOL    HW277061   0.724   8.600   1.104
21803SOL     OW77062   9.767   5.998   2.591
21803SOL    HW177063   9.862   6.028   2.585
21803SOL    HW277064   9.722   6.011   2.503
21804SOL     OW77065   8.735   9.667   2.073
21804SOL    HW177066   8.666   9.666   2.001
21804SOL    HW277067   8.752   9.762   2.101
21805SOL     OW77068   1.359   0.474   2.464
21805SOL    HW177069   1.458   0.489   2.453
21805SOL    HW277070   1.335   0.475   2.561
21806SOL     OW77071   2.338   0.534   1.638
21806SOL    HW177072   2.434   0.513   1.658
21806SOL    HW277073   2.305   0.602   1.704
21807SOL     OW77074   1.330   8.213   4.390
21807SOL    HW177075   1.348   8.133   4.332
21807SOL    HW277076   1.234   8.211   4.418
21808SOL     OW77077   9.399   1.309   3.349
21808SOL    HW177078   9.479   1.369   3.347
21808SOL    HW277079   9.391   1.269   3.440
21809SOL     OW77080   1.457   3.082   5.969
21809SOL    HW177081   1.437   3.016   5.896
21809SOL    HW277082   1.482   3.033   6.052
21810SOL     OW77083   3.781   9.164   7.270
21810SOL    HW177084   3.699   9.168   7.327
21810SOL    HW277085   3.772   9.089   7.204
21811SOL     OW77086   4.821   6.686   2.909
21811SOL    HW177087   4.862   6.714   2.823
21811SOL    HW277088   4.760   6.758   2.942
21812SOL     OW77089   8.099   9.533   5.359
21812SOL    HW177090   8.046   9.453   5.387
21812SOL    HW277091   8.189   9.531   5.404
21813SOL     OW77092   7.330   7.955   5.140
21813SOL    HW177093   7.425   7.927   5.129
21813SOL    HW277094   7.277   7.927   5.060
21814SOL     OW77095   1.162   4.035   1.141
21814SOL    HW177096   1.145   4.043   1.239
21814SOL    HW277097   1.260   4.030   1.124
21815SOL     OW77098   7.558   2.833   5.030
21815SOL    HW177099   7.599   2.864   4.944
21815SOL    HW277100   7.508   2.908   5.073
21816SOL     OW77101   9.419   0.674   5.542
21816SOL    HW177102   9.490   0.733   5.503
21816SOL    HW277103   9.462   0.606   5.602
21817SOL     OW77104   9.354   0.874   7.800
21817SOL    HW177105   9.441   0.880   7.849
21817SOL    HW277106   9.297   0.804   7.843
21818SOL     OW77107   2.303   8.757   2.251
21818SOL    HW177108   2.231   8.745   2.319
21818SOL    HW277109   2.331   8.668   2.215
21819SOL     OW77110   3.038   5.637   7.558
21819SOL    HW177111   3.015   5.705   7.629
21819SOL    HW277112   3.119   5.586   7.585
21820SOL     OW77113   0.810   5.428   7.647
21820SOL    HW177114   0.901   5.392   7.623
21820SOL    HW277115   0.740   5.376   7.599
21821SOL     OW77116   7.884   0.332   5.393
21821SOL    HW177117   7.883   0.326   5.294
21821SOL    HW277118   7.794   0.360   5.426
21822SOL     OW77119   4.733   5.197   1.692
21822SOL    HW177120   4.770   5.158   1.776
21822SOL    HW277121   4.668   5.133   1.651
21823SOL     OW77122   3.656   2.069   5.045
21823SOL    HW177123   3.602   2.131   4.987
21823SOL    HW277124   3.599   2.036   5.120
21824SOL     OW77125   5.550   1.304   6.479
21824SOL    HW177126   5.563   1.383   6.539
21824SOL    HW277127   5.453   1.284   6.470
21825SOL     OW77128   0.290   0.061   0.321
21825SOL    HW177129   0.203   0.110   0.322
21825SOL    HW277130   0.289   9.990   0.391
21826SOL     OW77131   2.185   6.920   1.272
21826SOL    HW177132   2.242   6.998   1.248
21826SOL    HW277133   2.140   6.937   1.359
21827SOL     OW77134   5.482   8.031   6.296
21827SOL    HW177135   5.405   8.038   6.233
21827SOL    HW277136   5.535   7.949   6.275
21828SOL     OW77137   0.131   0.412   7.249
21828SOL    HW177138   0.128   0.459   7.161
21828SOL    HW277139   0.072   0.332   7.246
21829SOL     OW77140   9.414   4.916   0.007
21829SOL    HW177141   9.326   4.870   0.003
21829SOL    HW277142   9.451   4.926   9.996
21830SOL     OW77143   1.373   9.722   5.420
21830SOL    HW177144   1.292   9.681   5.379
21830SOL    HW277145   1.350   9.756   5.512
21831SOL     OW77146   7.358   5.858   5.749
21831SOL    HW177147   7.376   5.910   5.833
21831SOL    HW277148   7.329   5.765   5.773
21832SOL     OW77149   0.901   5.767   3.799
21832SOL    HW177150   0.812   5.767   3.753
21832SOL    HW277151   0.971   5.731   3.737
21833SOL     OW77152   2.626   2.576   1.871
21833SOL    HW177153   2.695   2.504   1.883
21833SOL    HW277154   2.543   2.551   1.920
21834SOL     OW77155   7.776   9.557   4.314
21834SOL    HW177156   7.798   9.532   4.220
21834SOL    HW277157   7.855   9.539   4.373
21835SOL     OW77158   7.003   1.838   2.005
21835SOL    HW177159   7.053   1.890   2.075
21835SOL    HW277160   7.067   1.780   1.956
21836SOL     OW77161   0.665   6.912   1.413
21836SOL    HW177162   0.586   6.864   1.374
21836SOL    HW277163   0.641   6.948   1.504
21837SOL     OW77164   0.657   3.119   1.210
21837SOL    HW177165   0.704   3.143   1.125
21837SOL    HW277166   0.710   3.049   1.258
21838SOL     OW77167   7.193   1.208   3.930
21838SOL    HW177168   7.215   1.276   3.861
21838SOL    HW277169   7.268   1.202   3.997
21839SOL     OW77170   2.189   0.865   3.643
21839SOL    HW177171   2.121   0.835   3.575
21839SOL    HW277172   2.180   0.963   3.658
21840SOL     OW77173   0.346   1.991   5.681
21840SOL    HW177174   0.330   2.044   5.599
21840SOL    HW277175   0.265   1.994   5.740
21841SOL     OW77176   3.092   8.405   0.357
21841SOL    HW177177   3.077   8.438   0.264
21841SOL    HW277178   3.124   8.480   0.414
21842SOL     OW77179   1.600   2.608   3.884
21842SOL    HW177180   1.622   2.687   3.827
21842SOL    HW277181   1.639   2.621   3.975
21843SOL     OW77182   5.396   4.053   0.578
21843SOL    HW177183   5.488   4.075   0.546
21843SOL    HW277184   5.328   4.097   0.519
21844SOL     OW77185   4.277   3.832   2.703
21844SOL    HW177186   4.368   3.796   2.680
21844SOL    HW277187   4.240   3.782   2.781
21845SOL     OW77188   8.452   8.330   1.215
21845SOL    HW177189   8.493   8.252   1.168
21845SOL    HW277190   8.382   8.371   1.157
21846SOL     OW77191   9.197   6.847   0.578
21846SOL    HW177192   9.123   6.861   0.512
21846SOL    HW277193   9.162   6.860   0.671
21847SOL     OW77194   1.193   6.955   0.657
21847SOL    HW177195   1.272   6.986   0.606
21847SOL    HW277196   1.131   7.032   0.674
21848SOL     OW77197   4.723   8.114   5.101
21848SOL    HW177198   4.789   8.177   5.142
21848SOL    HW277199   4.729   8.120   5.001
21849SOL     OW77200   2.167   4.749   3.377
21849SOL    HW177201   2.224   4.824   3.343
21849SOL    HW277202   2.151   4.684   3.303
21850SOL     OW77203   4.512   0.038   6.730
21850SOL    HW177204   4.549   0.131   6.741
21850SOL    HW277205   4.576   9.983   6.677
21851SOL     OW77206   2.985   7.315   5.285
21851SOL    HW177207   3.001   7.412   5.304
21851SOL    HW277208   2.892   7.304   5.249
21852SOL     OW77209   4.547   1.359   7.643
21852SOL    HW177210   4.550   1.412   7.727
21852SOL    HW277211   4.611   1.397   7.577
21853SOL     OW77212   4.510   2.333   5.416
21853SOL    HW177213   4.559   2.335   5.503
21853SOL    HW277214   4.503   2.238   5.385
21854SOL     OW77215   4.544   4.574   0.252
21854SOL    HW177216   4.611   4.609   0.186
21854SOL    HW277217   4.584   4.497   0.303
21855SOL     OW77218   2.425   8.890   7.280
21855SOL    HW177219   2.335   8.856   7.308
21855SOL    HW277220   2.492   8.866   7.349
21856SOL     OW77221   3.598   0.949   5.591
21856SOL    HW177222   3.646   1.025   5.635
21856SOL    HW277223   3.500   0.957   5.610
21857SOL     OW77224   9.280   5.544   1.513
21857SOL    HW177225   9.206   5.491   1.557
21857SOL    HW277226   9.240   5.612   1.452
21858SOL     OW77227   3.730   5.955   1.850
21858SOL    HW177228   3.676   5.987   1.773
21858SOL    HW277229   3.732   6.025   1.921
21859SOL     OW77230   2.334   7.518   2.808
21859SOL    HW177231   2.323   7.599   2.751
21859SOL    HW277232   2.282   7.530   2.893
21860SOL     OW77233   6.654   8.686   2.307
21860SOL    HW177234   6.721   8.636   2.362
21860SOL    HW277235   6.699   8.764   2.263
21861SOL     OW77236   4.284   1.231   7.116
21861SOL    HW177237   4.211   1.257   7.052
21861SOL    HW277238   4.368   1.280   7.091
21862SOL     OW77239   1.589   8.760   5.448
21862SOL    HW177240   1.625   8.683   5.501
21862SOL    HW277241   1.557   8.727   5.359
21863SOL     OW77242   0.661   1.862   7.044
21863SOL    HW177243   0.654   1.885   7.141
21863SOL    HW277244   0.753   1.829   7.025
21864SOL     OW77245   8.690   5.133   5.704
21864SOL    HW177246   8.606   5.177   5.675
21864SOL    HW277247   8.756   5.202   5.734
21865SOL     OW77248   7.874   9.363   1.890
21865SOL    HW177249   7.809   9.287   1.891
21865SOL    HW277250   7.925   9.362   1.803
21866SOL     OW77251   7.974   4.218   2.808
21866SOL    HW177252   8.005   4.156   2.736
21866SOL    HW277253   8.040   4.292   2.819
21867SOL     OW77254   2.716   1.163   7.698
21867SOL    HW177255   2.809   1.129   7.713
21867SOL    HW277256   2.720   1.260   7.673
21868SOL     OW77257   3.425   7.301   4.232
21868SOL    HW177258   3.519   7.329   4.252
21868SOL    HW277259   3.364   7.379   4.247
21869SOL     OW77260   8.261   6.774   6.975
21869SOL    HW177261   8.357   6.751   6.989
21869SOL    HW277262   8.240   6.772   6.878
21870SOL     OW77263   4.311   2.298   1.782
21870SOL    HW177264   4.365   2.367   1.830
21870SOL    HW277265   4.226   2.281   1.832
21871SOL     OW77266   6.678   4.025   1.210
21871SOL    HW177267   6.643   3.968   1.284
21871SOL    HW277268   6.698   3.967   1.130
21872SOL     OW77269   3.193   3.178   7.531
21872SOL    HW177270   3.292   3.173   7.524
21872SOL    HW277271   3.154   3.197   7.440
21873SOL     OW77272   0.273   7.975   4.762
21873SOL    HW177273   0.354   8.014   4.718
21873SOL    HW277274   0.269   7.877   4.743
21874SOL     OW77275   0.834   8.539   7.779
21874SOL    HW177276   0.915   8.598   7.768
21874SOL    HW277277   0.784   8.566   7.861
21875SOL     OW77278   7.712   6.515   2.225
21875SOL    HW177279   7.763   6.520   2.139
21875SOL    HW277280   7.700   6.608   2.261
21876SOL     OW77281   6.033   1.726   0.937
21876SOL    HW177282   6.117   1.684   0.971
21876SOL    HW277283   5.964   1.725   1.010
21877SOL     OW77284   4.287   0.909   5.902
21877SOL    HW177285   4.253   0.995   5.939
21877SOL    HW277286   4.316   0.849   5.977
21878SOL     OW77287   2.486   4.953   2.228
21878SOL    HW177288   2.412   4.932   2.164
21878SOL    HW277289   2.553   5.012   2.184
21879SOL     OW77290   5.221   2.684   0.552
21879SOL    HW177291   5.188   2.595   0.585
21879SOL    HW277292   5.181   2.703   0.462
21880SOL     OW77293   8.870   2.632   2.462
21880SOL    HW177294   8.867   2.675   2.372
21880SOL    HW277295   8.921   2.690   2.525
21881SOL     OW77296   2.129   2.785   5.786
21881SOL    HW177297   2.152   2.843   5.708
21881SOL    HW277298   2.039   2.745   5.772
21882SOL     OW77299   9.168   5.560   6.245
21882SOL    HW177300   9.158   5.613   6.329
21882SOL    HW277301   9.261   5.573   6.209
21883SOL     OW77302   3.615   8.459   5.684
21883SOL    HW177303   3.683   8.512   5.634
21883SOL    HW277304   3.660   8.405   5.756
21884SOL     OW77305   4.104   2.985   1.435
21884SOL    HW177306   4.054   3.047   1.373
21884SOL    HW277307   4.115   2.896   1.391
21885SOL     OW77308   9.137   5.682   2.533
21885SOL    HW177309   9.235   5.674   2.515
21885SOL    HW277310   9.103   5.595   2.569
21886SOL     OW77311   2.763   9.662   1.506
21886SOL    HW177312   2.730   9.611   1.585
21886SOL    HW277313   2.734   9.758   1.514
21887SOL     OW77314   5.229   3.017   5.088
21887SOL    HW177315   5.197   3.047   4.998
21887SOL    HW277316   5.326   2.992   5.082
21888SOL     OW77317   1.308   8.860   4.073
21888SOL    HW177318   1.406   8.858   4.089
21888SOL    HW277319   1.263   8.793   4.132
21889SOL     OW77320   6.804   3.464   2.748
21889SOL    HW177321   6.731   3.397   2.736
21889SOL    HW277322   6.873   3.451   2.677
21890SOL     OW77323   4.494   5.046   7.847
21890SOL    HW177324   4.511   4.964   7.792
21890SOL    HW277325   4.422   5.101   7.803
21891SOL     OW77326   3.057   0.645   7.232
21891SOL    HW177327   3.024   0.691   7.150
21891SOL    HW277328   3.017   0.554   7.238
21892SOL     OW77329   7.213   3.851   3.919
21892SOL    HW177330   7.200   3.875   3.823
21892SOL    HW277331   7.201   3.752   3.930
21893SOL     OW77332   9.705   2.950   4.640
21893SOL    HW177333   9.693   2.851   4.646
21893SOL    HW277334   9.721   2.987   4.732
21894SOL     OW77335   6.577   8.438   6.564
21894SOL    HW177336   6.604   8.530   6.536
21894SOL    HW277337   6.647   8.373   6.535
21895SOL     OW77338   1.847   0.164   6.302
21895SOL    HW177339   1.829   0.167   6.400
21895SOL    HW277340   1.860   0.256   6.267
21896SOL     OW77341   8.135   7.470   6.338
21896SOL    HW177342   8.191   7.512   6.266
21896SOL    HW277343   8.188   7.465   6.422
21897SOL     OW77344   6.983   5.400   1.294
21897SOL    HW177345   6.942   5.328   1.349
21897SOL    HW277346   7.077   5.415   1.324
21898SOL     OW77347   8.529   4.799   0.635
21898SOL    HW177348   8.477   4.862   0.692
21898SOL    HW277349   8.585   4.851   0.571
21899SOL     OW77350   4.001   9.640   5.388
21899SOL    HW177351   3.979   9.736   5.368
21899SOL    HW277352   4.079   9.636   5.450
21900SOL     OW77353   3.251   1.422   1.768
21900SOL    HW177354   3.217   1.511   1.736
21900SOL    HW277355   3.263   1.425   1.867
21901SOL     OW77356   3.913   2.414   7.058
21901SOL    HW177357   3.828   2.362   7.053
21901SOL    HW277358   3.899   2.506   7.021
21902SOL     OW77359   4.412   9.263   7.421
21902SOL    HW177360   4.463   9.324   7.481
21902SOL    HW277361   4.476   9.206   7.369
21903SOL     OW77362   8.634   4.981   7.209
21903SOL    HW177363   8.668   5.000   7.301
21903SOL    HW277364   8.579   4.897   7.211
21904SOL     OW77365   0.744   4.052   1.079
21904SOL    HW177366   0.686   3.994   1.022
21904SOL    HW277367   0.828   4.074   1.030
21905SOL     OW77368   1.846   6.579   4.701
21905SOL    HW177369   1.924   6.546   4.648
21905SOL    HW277370   1.795   6.646   4.647
21906SOL     OW77371   5.081   9.632   6.142
21906SOL    HW177372   5.135   9.677   6.214
21906SOL    HW277373   5.074   9.693   6.063
21907SOL     OW77374   7.819   4.563   0.734
21907SOL    HW177375   7.801   4.476   0.781
21907SOL    HW277376   7.918   4.576   0.726
21908SOL     OW77377   0.048   2.128   5.391
21908SOL    HW177378   0.050   2.167   5.299
21908SOL    HW277379   0.023   2.031   5.386
21909SOL     OW77380   3.741   9.200   0.378
21909SOL    HW177381   3.765   9.297   0.378
21909SOL    HW277382   3.756   9.162   0.287
21910SOL     OW77383   0.270   1.052   5.413
21910SOL    HW177384   0.271   1.051   5.513
21910SOL    HW277385   0.259   0.959   5.379
21911SOL     OW77386   6.988   3.142   0.118
21911SOL    HW177387   6.910   3.198   0.145
21911SOL    HW277388   6.957   3.068   0.059
21912SOL     OW77389   9.568   1.840   6.935
21912SOL    HW177390   9.578   1.742   6.952
21912SOL    HW277391   9.474   1.868   6.956
21913SOL     OW77392   4.157   6.000   0.196
21913SOL    HW177393   4.148   5.931   0.267
21913SOL    HW277394   4.069   6.016   0.152
21914SOL     OW77395   1.426   3.633   0.903
21914SOL    HW177396   1.352   3.633   0.970
21914SOL    HW277397   1.422   3.549   0.849
21915SOL     OW77398   0.169   0.122   4.216
21915SOL    HW177399   0.146   0.219   4.225
21915SOL    HW277400   0.264   0.108   4.245
21916SOL     OW77401   5.762   9.643   7.927
21916SOL    HW177402   5.832   9.669   7.861
21916SOL    HW277403   5.803   9.583   7.996
21917SOL     OW77404   1.709   2.222   6.855
21917SOL    HW177405   1.716   2.251   6.759
21917SOL    HW277406   1.676   2.127   6.858
21918SOL     OW77407   9.081   2.097   1.941
21918SOL    HW177408   9.077   2.007   1.897
21918SOL    HW277409   9.096   2.167   1.871
21919SOL     OW77410   8.780   5.793   6.299
21919SOL    HW177411   8.848   5.860   6.269
21919SOL    HW277412   8.688   5.831   6.288
21920SOL     OW77413   5.721   4.608   1.088
21920SOL    HW177414   5.800   4.667   1.101
21920SOL    HW277415   5.751   4.513   1.082
21921SOL     OW77416   1.103   3.939   3.183
21921SOL    HW177417   1.126   3.879   3.105
21921SOL    HW277418   1.187   3.976   3.222
21922SOL     OW77419   9.181   8.687   3.677
21922SOL    HW177420   9.170   8.743   3.759
21922SOL    HW277421   9.159   8.592   3.698
21923SOL     OW77422   7.242   5.730   1.466
21923SOL    HW177423   7.290   5.665   1.523
21923SOL    HW277424   7.226   5.689   1.375
21924SOL     OW77425   2.801   5.224   4.510
21924SOL    HW177426   2.795   5.311   4.461
21924SOL    HW277427   2.803   5.149   4.443
21925SOL     OW77428   0.158   9.649   0.382
21925SOL    HW177429   0.139   9.581   0.453
21925SOL    HW277430   0.087   9.645   0.312
21926SOL     OW77431   0.326   4.335   7.015
21926SOL    HW177432   0.252   4.396   6.985
21926SOL    HW277433   0.307   4.303   7.108
21927SOL     OW77434   3.268   7.134   2.016
21927SOL    HW177435   3.281   7.151   2.113
21927SOL    HW277436   3.243   7.038   2.002
21928SOL     OW77437   2.381   7.995   2.614
21928SOL    HW177438   2.473   8.002   2.653
21928SOL    HW277439   2.377   8.046   2.528
21929SOL     OW77440   5.562   2.717   0.125
21929SOL    HW177441   5.529   2.623   0.126
21929SOL    HW277442   5.651   2.722   0.171
21930SOL     OW77443   2.292   9.101   0.784
21930SOL    HW177444   2.300   9.047   0.868
21930SOL    HW277445   2.319   9.045   0.706
21931SOL     OW77446   9.146   6.177   7.330
21931SOL    HW177447   9.200   6.218   7.403
21931SOL    HW277448   9.103   6.249   7.276
21932SOL     OW77449   3.371   3.964   3.974
21932SOL    HW177450   3.279   3.948   3.937
21932SOL    HW277451   3.367   3.966   4.074
21933SOL     OW77452   3.333   8.770   3.893
21933SOL    HW177453   3.351   8.717   3.811
21933SOL    HW277454   3.246   8.818   3.884
21934SOL     OW77455   9.026   1.277   3.405
21934SOL    HW177456   8.992   1.189   3.439
21934SOL    HW277457   9.011   1.283   3.307
21935SOL     OW77458   9.536   4.122   7.462
21935SOL    HW177459   9.468   4.059   7.500
21935SOL    HW277460   9.494   4.178   7.391
21936SOL     OW77461   8.431   5.528   1.848
21936SOL    HW177462   8.338   5.493   1.852
21936SOL    HW277463   8.483   5.494   1.926
21937SOL     OW77464   7.618   1.611   4.909
21937SOL    HW177465   7.648   1.612   5.004
21937SOL    HW277466   7.525   1.574   4.903
21938SOL     OW77467   0.828   2.068   4.705
21938SOL    HW177468   0.744   2.084   4.654
21938SOL    HW277469   0.896   2.136   4.679
21939SOL     OW77470   7.547   0.817   0.732
21939SOL    HW177471   7.517   0.860   0.818
21939SOL    HW277472   7.587   0.727   0.752
21940SOL     OW77473   8.034   7.238   2.959
21940SOL    HW177474   8.011   7.319   2.905
21940SOL    HW277475   8.061   7.163   2.898
21941SOL     OW77476   2.602   7.317   1.836
21941SOL    HW177477   2.671   7.364   1.782
21941SOL    HW277478   2.557   7.247   1.779
21942SOL     OW77479   4.562   2.629   5.957
21942SOL    HW177480   4.620   2.606   5.880
21942SOL    HW277481   4.599   2.589   6.041
21943SOL     OW77482   8.236   7.000   5.443
21943SOL    HW177483   8.234   7.056   5.525
21943SOL    HW277484   8.157   6.939   5.441
21944SOL     OW77485   8.281   0.458   3.372
21944SOL    HW177486   8.344   0.456   3.450
21944SOL    HW277487   8.207   0.523   3.391
21945SOL     OW77488   1.245   8.873   7.411
21945SOL    HW177489   1.328   8.879   7.467
21945SOL    HW277490   1.231   8.959   7.363
21946SOL     OW77491   2.402   3.982   1.849
21946SOL    HW177492   2.382   3.997   1.946
21946SOL    HW277493   2.432   3.888   1.835
21947SOL     OW77494   5.633   7.707   5.346
21947SOL    HW177495   5.701   7.778   5.366
21947SOL    HW277496   5.550   7.726   5.399
21948SOL     OW77497   0.090   4.914   7.347
21948SOL    HW177498   0.034   4.980   7.398
21948SOL    HW277499   0.036   4.832   7.328
21949SOL     OW77500   2.056   1.565   3.352
21949SOL    HW177501   2.116   1.565   3.432
21949SOL    HW277502   1.991   1.640   3.360
21950SOL     OW77503   6.184   8.473   4.243
21950SOL    HW177504   6.104   8.416   4.261
21950SOL    HW277505   6.157   8.552   4.188
21951SOL     OW77506   0.666   0.798   4.010
21951SOL    HW177507   0.763   0.784   3.991
21951SOL    HW277508   0.618   0.816   3.924
21952SOL     OW77509   3.892   9.232   3.283
21952SOL    HW177510   3.846   9.263   3.366
21952SOL    HW277511   3.938   9.145   3.300
21953SOL     OW77512   3.885   3.409   3.895
21953SOL    HW177513   3.805   3.469   3.899
21953SOL    HW277514   3.855   3.314   3.891
21954SOL     OW77515   3.551   2.262   7.563
21954SOL    HW177516   3.555   2.350   7.515
21954SOL    HW277517   3.482   2.268   7.636
21955SOL     OW77518   2.040   4.621   0.500
21955SOL    HW177519   2.005   4.661   0.585
21955SOL    HW277520   2.134   4.590   0.515
21956SOL     OW77521   1.691   9.985   0.774
21956SOL    HW177522   1.618   9.923   0.805
21956SOL    HW277523   1.768   9.931   0.740
21957SOL     OW77524   9.548   9.313   5.258
21957SOL    HW177525   9.603   9.267   5.188
21957SOL    HW277526   9.511   9.245   5.321
21958SOL     OW77527   0.362   7.706   6.676
21958SOL    HW177528   0.335   7.726   6.582
21958SOL    HW277529   0.286   7.664   6.725
21959SOL     OW77530   0.635   4.262   5.018
21959SOL    HW177531   0.733   4.275   5.030
21959SOL    HW277532   0.618   4.193   4.948
21960SOL     OW77533   2.385   1.402   5.077
21960SOL    HW177534   2.296   1.428   5.038
21960SOL    HW277535   2.409   1.310   5.047
21961SOL     OW77536   9.031   2.870   6.544
21961SOL    HW177537   8.938   2.866   6.508
21961SOL    HW277538   9.095   2.891   6.470
21962SOL     OW77539   6.853   6.059   0.273
21962SOL    HW177540   6.849   5.960   0.261
21962SOL    HW277541   6.936   6.095   0.228
21963SOL     OW77542   8.423   3.127   2.588
21963SOL    HW177543   8.343   3.125   2.647
21963SOL    HW277544   8.462   3.036   2.580
21964SOL     OW77545   3.211   4.448   5.540
21964SOL    HW177546   3.272   4.419   5.613
21964SOL    HW277547   3.126   4.395   5.545
21965SOL     OW77548   3.308   7.587   2.473
21965SOL    HW177549   3.250   7.533   2.413
21965SOL    HW277550   3.269   7.588   2.566
21966SOL     OW77551   4.736   8.444   3.394
21966SOL    HW177552   4.702   8.437   3.300
21966SOL    HW277553   4.694   8.522   3.439
21967SOL     OW77554   5.128   2.066   5.040
21967SOL    HW177555   5.163   1.975   5.020
21967SOL    HW277556   5.180   2.134   4.987
21968SOL     OW77557   8.589   0.765   2.540
21968SOL    HW177558   8.584   0.845   2.480
21968SOL    HW277559   8.679   0.721   2.530
21969SOL     OW77560   8.970   3.128   4.277
21969SOL    HW177561   8.988   3.127   4.375
21969SOL    HW277562   8.896   3.064   4.256
21970SOL     OW77563   6.906   1.151   4.663
21970SOL    HW177564   6.958   1.163   4.747
21970SOL    HW277565   6.968   1.132   4.587
21971SOL     OW77566   7.613   6.447   1.523
21971SOL    HW177567   7.575   6.459   1.615
21971SOL    HW277568   7.683   6.376   1.525
21972SOL     OW77569   3.952   5.426   2.782
21972SOL    HW177570   3.959   5.326   2.781
21972SOL    HW277571   3.969   5.460   2.874
21973SOL     OW77572   7.047   9.274   3.608
21973SOL    HW177573   6.981   9.270   3.682
21973SOL    HW277574   7.039   9.361   3.560
21974SOL     OW77575   6.609   5.066   2.585
21974SOL    HW177576   6.593   5.110   2.497
21974SOL    HW277577   6.636   4.971   2.571
21975SOL     OW77578   6.578   2.313   4.169
21975SOL    HW177579   6.650   2.369   4.128
21975SOL    HW277580   6.548   2.354   4.255
21976SOL     OW77581   4.683   0.898   0.131
21976SOL    HW177582   4.684   0.998   0.130
21976SOL    HW277583   4.588   0.866   0.132
21977SOL     OW77584   3.179   2.620   0.606
21977SOL    HW177585   3.087   2.600   0.640
21977SOL    HW277586   3.213   2.704   0.649
21978SOL     OW77587   3.622   5.808   3.253
21978SOL    HW177588   3.678   5.750   3.194
21978SOL    HW277589   3.653   5.799   3.348
21979SOL     OW77590   4.939   3.772   0.723
21979SOL    HW177591   4.879   3.733   0.793
21979SOL    HW277592   4.953   3.869   0.742
21980SOL     OW77593   6.127   9.691   4.229
21980SOL    HW177594   6.107   9.686   4.132
21980SOL    HW277595   6.167   9.605   4.260
21981SOL     OW77596   2.763   1.577   3.660
21981SOL    HW177597   2.815   1.496   3.632
21981SOL    HW277598   2.780   1.595   3.757
21982SOL     OW77599   3.878   1.359   3.682
21982SOL    HW177600   3.812   1.401   3.744
21982SOL    HW277601   3.836   1.347   3.592
21983SOL     OW77602   0.734   8.434   1.177
21983SOL    HW177603   0.660   8.425   1.243
21983SOL    HW277604   0.744   8.349   1.126
21984SOL     OW77605   4.360   9.096   6.451
21984SOL    HW177606   4.320   9.019   6.502
21984SOL    HW277607   4.311   9.180   6.473
21985SOL     OW77608   3.032   3.178   5.058
21985SOL    HW177609   2.977   3.245   5.010
21985SOL    HW277610   3.089   3.128   4.993
21986SOL     OW77611   8.780   2.591   3.088
21986SOL    HW177612   8.845   2.519   3.064
21986SOL    HW277613   8.779   2.660   3.015
21987SOL     OW77614   3.661   3.595   3.891
21987SOL    HW177615   3.671   3.693   3.902
21987SOL    HW277616   3.595   3.576   3.819
21988SOL     OW77617   7.226   1.748   5.112
21988SOL    HW177618   7.234   1.800   5.197
21988SOL    HW277619   7.263   1.656   5.127
21989SOL     OW77620   1.541   6.829   7.731
21989SOL    HW177621   1.626   6.786   7.701
21989SOL    HW277622   1.513   6.791   7.819
21990SOL     OW77623   7.098   4.810   0.461
21990SOL    HW177624   7.186   4.812   0.413
21990SOL    HW277625   7.028   4.773   0.401
21991SOL     OW77626   0.499   9.488   5.568
21991SOL    HW177627   0.538   9.505   5.659
21991SOL    HW277628   0.523   9.564   5.507
21992SOL     OW77629   2.694   9.376   6.331
21992SOL    HW177630   2.635   9.302   6.363
21992SOL    HW277631   2.721   9.359   6.237
21993SOL     OW77632   1.503   7.231   1.988
21993SOL    HW177633   1.596   7.197   1.977
21993SOL    HW277634   1.457   7.180   2.061
21994SOL     OW77635   9.166   9.293   1.061
21994SOL    HW177636   9.093   9.341   1.111
21994SOL    HW277637   9.250   9.294   1.116
21995SOL     OW77638   7.459   8.077   4.063
21995SOL    HW177639   7.454   8.008   3.991
21995SOL    HW277640   7.522   8.150   4.035
21996SOL     OW77641   9.849   6.300   1.323
21996SOL    HW177642   9.801   6.219   1.357
21996SOL    HW277643   9.888   6.350   1.400
21997SOL     OW77644   7.837   7.666   6.732
21997SOL    HW177645   7.743   7.640   6.754
21997SOL    HW277646   7.859   7.635   6.639
21998SOL     OW77647   9.682   7.560   7.637
21998SOL    HW177648   9.692   7.589   7.541
21998SOL    HW277649   9.702   7.638   7.697
21999SOL     OW77650   3.359   4.126   0.990
21999SOL    HW177651   3.457   4.143   0.976
21999SOL    HW277652   3.320   4.088   0.906
22000SOL     OW77653   8.446   2.290   3.818
22000SOL    HW177654   8.467   2.341   3.902
22000SOL    HW277655   8.508   2.320   3.745
22001SOL     OW77656   1.639   6.346   2.911
22001SOL    HW177657   1.732   6.381   2.903
22001SOL    HW277658   1.574   6.416   2.883
22002SOL     OW77659   3.524   5.535   4.712
22002SOL    HW177660   3.560   5.626   4.727
22002SOL    HW277661   3.424   5.540   4.701
22003SOL     OW77662   1.385   8.758   3.061
22003SOL    HW177663   1.299   8.714   3.037
22003SOL    HW277664   1.367   8.850   3.097
22004SOL     OW77665   4.665   2.824   6.198
22004SOL    HW177666   4.728   2.858   6.268
22004SOL    HW277667   4.653   2.726   6.210
22005SOL     OW77668   2.479   5.211   3.027
22005SOL    HW177669   2.421   5.131   3.011
22005SOL    HW277670   2.502   5.253   2.939
22006SOL     OW77671   4.613   2.008   6.310
22006SOL    HW177672   4.682   1.946   6.271
22006SOL    HW277673   4.553   2.041   6.238
22007SOL     OW77674   5.738   5.546   2.126
22007SOL    HW177675   5.672   5.591   2.066
22007SOL    HW277676   5.705   5.454   2.150
22008SOL     OW77677   9.082   4.516   6.680
22008SOL    HW177678   9.153   4.448   6.697
22008SOL    HW277679   9.051   4.554   6.768
22009SOL     OW77680   6.030   2.005   0.429
22009SOL    HW177681   5.968   1.985   0.505
22009SOL    HW277682   6.099   1.933   0.423
22010SOL     OW77683   6.229   7.690   3.758
22010SOL    HW177684   6.219   7.780   3.802
22010SOL    HW277685   6.291   7.698   3.680
22011SOL     OW77686   8.877   8.846   0.847
22011SOL    HW177687   8.951   8.854   0.780
22011SOL    HW277688   8.796   8.807   0.803
22012SOL     OW77689   4.286   4.322   4.624
22012SOL    HW177690   4.300   4.245   4.563
22012SOL    HW277691   4.300   4.293   4.719
22013SOL     OW77692   8.388   3.718   0.163
22013SOL    HW177693   8.398   3.810   0.126
22013SOL    HW277694   8.478   3.673   0.165
22014SOL     OW77695   5.024   5.273   7.929
22014SOL    HW177696   4.937   5.270   7.979
22014SOL    HW277697   5.048   5.369   7.911
22015SOL     OW77698   9.466   1.703   4.463
22015SOL    HW177699   9.483   1.726   4.559
22015SOL    HW277700   9.373   1.667   4.454
22016SOL     OW77701   2.939   0.552   3.078
22016SOL    HW177702   2.877   0.625   3.105
22016SOL    HW277703   2.960   0.494   3.157
22017SOL     OW77704   2.934   8.299   3.672
22017SOL    HW177705   2.844   8.336   3.695
22017SOL    HW277706   2.987   8.368   3.622
22018SOL     OW77707   7.159   5.994   0.108
22018SOL    HW177708   7.206   6.081   0.099
22018SOL    HW277709   7.223   5.919   0.087
22019SOL     OW77710   8.988   9.677   0.649
22019SOL    HW177711   9.073   9.709   0.606
22019SOL    HW277712   8.916   9.670   0.580
22020SOL     OW77713   4.028   9.186   4.979
22020SOL    HW177714   4.084   9.207   5.060
22020SOL    HW277715   4.072   9.224   4.898
22021SOL     OW77716   8.360   4.917   5.915
22021SOL    HW177717   8.373   4.981   5.990
22021SOL    HW277718   8.448   4.900   5.870
22022SOL     OW77719   5.884   0.403   1.736
22022SOL    HW177720   5.895   0.468   1.811
22022SOL    HW277721   5.908   0.311   1.767
22023SOL     OW77722   7.366   0.155   0.485
22023SOL    HW177723   7.408   0.073   0.445
22023SOL    HW277724   7.325   0.132   0.573
22024SOL     OW77725   6.648   1.030   7.731
22024SOL    HW177726   6.614   1.062   7.819
22024SOL    HW277727   6.622   0.934   7.719
22025SOL     OW77728   7.231   1.808   0.744
22025SOL    HW177729   7.327   1.815   0.718
22025SOL    HW277730   7.177   1.870   0.687
22026SOL     OW77731   7.960   3.623   2.156
22026SOL    HW177732   7.905   3.702   2.129
22026SOL    HW277733   7.983   3.630   2.253
22027SOL     OW77734   1.623   1.069   1.298
22027SOL    HW177735   1.639   0.973   1.320
22027SOL    HW277736   1.533   1.079   1.255
22028SOL     OW77737   2.975   1.928   1.913
22028SOL    HW177738   3.037   1.984   1.858
22028SOL    HW277739   2.894   1.904   1.859
22029SOL     OW77740   7.095   7.794   3.635
22029SOL    HW177741   7.054   7.778   3.725
22029SOL    HW277742   7.176   7.736   3.624
22030SOL     OW77743   7.217   9.525   3.252
22030SOL    HW177744   7.157   9.512   3.331
22030SOL    HW277745   7.198   9.614   3.210
22031SOL     OW77746   7.733   7.032   6.958
22031SOL    HW177747   7.754   7.120   6.917
22031SOL    HW277748   7.648   6.996   6.921
22032SOL     OW77749   2.423   9.018   2.818
22032SOL    HW177750   2.395   9.093   2.757
22032SOL    HW277751   2.350   9.002   2.885
22033SOL     OW77752   9.016   3.542   4.868
22033SOL    HW177753   9.047   3.473   4.801
22033SOL    HW277754   8.973   3.618   4.820
22034SOL     OW77755   0.063   5.484   1.605
22034SOL    HW177756   9.973   5.451   1.577
22034SOL    HW277757   0.116   5.511   1.525
22035SOL     OW77758   0.810   2.929   1.381
22035SOL    HW177759   0.872   2.941   1.303
22035SOL    HW277760   0.746   2.854   1.362
22036SOL     OW77761   7.760   7.714   7.784
22036SOL    HW177762   7.686   7.769   7.824
22036SOL    HW277763   7.831   7.775   7.749
22037SOL     OW77764   2.381   2.198   3.256
22037SOL    HW177765   2.357   2.105   3.285
22037SOL    HW277766   2.474   2.219   3.285
22038SOL     OW77767   4.582   6.137   1.290
22038SOL    HW177768   4.558   6.084   1.372
22038SOL    HW277769   4.501   6.147   1.232
22039SOL     OW77770   4.227   3.954   5.394
22039SOL    HW177771   4.228   4.053   5.411
22039SOL    HW277772   4.273   3.907   5.470
22040SOL     OW77773   0.256   6.142   2.272
22040SOL    HW177774   0.160   6.167   2.290
22040SOL    HW277775   0.265   6.043   2.275
22041SOL     OW77776   4.054   0.108   1.166
22041SOL    HW177777   4.118   0.186   1.166
22041SOL    HW277778   4.039   0.077   1.072
22042SOL     OW77779   8.841   6.079   1.544
22042SOL    HW177780   8.872   6.038   1.630
22042SOL    HW277781   8.742   6.071   1.536
22043SOL     OW77782   8.936   3.969   6.061
22043SOL    HW177783   8.901   4.060   6.039
22043SOL    HW277784   9.026   3.978   6.105
22044SOL     OW77785   7.853   1.048   7.675
22044SOL    HW177786   7.866   0.952   7.698
22044SOL    HW277787   7.923   1.104   7.720
22045SOL     OW77788   1.359   1.606   2.735
22045SOL    HW177789   1.369   1.588   2.637
22045SOL    HW277790   1.351   1.519   2.784
22046SOL     OW77791   4.284   4.813   2.433
22046SOL    HW177792   4.273   4.733   2.493
22046SOL    HW277793   4.335   4.884   2.481
22047SOL     OW77794   2.832   8.158   5.563
22047SOL    HW177795   2.845   8.059   5.574
22047SOL    HW277796   2.918   8.205   5.583
22048SOL     OW77797   0.881   9.517   3.439
22048SOL    HW177798   0.923   9.598   3.480
22048SOL    HW277799   0.933   9.489   3.359
22049SOL     OW77800   5.158   0.162   2.872
22049SOL    HW177801   5.135   0.213   2.789
22049SOL    HW277802   5.076   0.115   2.906
22050SOL     OW77803   2.088   5.269   3.847
22050SOL    HW177804   2.165   5.318   3.805
22050SOL    HW277805   2.006   5.283   3.792
22051SOL     OW77806   4.813   0.844   4.933
22051SOL    HW177807   4.717   0.851   4.906
22051SOL    HW277808   4.871   0.860   4.853
22052SOL     OW77809   4.051   9.912   5.818
22052SOL    HW177810   4.023   9.997   5.772
22052SOL    HW277811   4.151   9.907   5.822
22053SOL     OW77812   6.234   8.721   5.308
22053SOL    HW177813   6.255   8.703   5.404
22053SOL    HW277814   6.249   8.638   5.255
22054SOL     OW77815   2.988   1.978   5.872
22054SOL    HW177816   3.036   1.940   5.951
22054SOL    HW277817   2.891   1.989   5.893
22055SOL     OW77818   9.547   3.144   7.781
22055SOL    HW177819   9.645   3.162   7.794
22055SOL    HW277820   9.530   3.046   7.782
22056SOL     OW77821   5.237   8.766   7.746
22056SOL    HW177822   5.175   8.688   7.751
22056SOL    HW277823   5.195   8.839   7.692
22057SOL     OW77824   2.048   2.043   3.391
22057SOL    HW177825   1.990   2.033   3.311
22057SOL    HW277826   2.141   2.015   3.369
22058SOL     OW77827   4.028   6.420   3.682
22058SOL    HW177828   4.055   6.391   3.774
22058SOL    HW277829   3.935   6.389   3.662
22059SOL     OW77830   1.138   2.057   4.781
22059SOL    HW177831   1.094   2.136   4.740
22059SOL    HW277832   1.193   2.086   4.859
22060SOL     OW77833   6.625   2.029   3.711
22060SOL    HW177834   6.561   1.955   3.690
22060SOL    HW277835   6.578   2.099   3.764
22061SOL     OW77836   9.296   0.819   3.549
22061SOL    HW177837   9.326   0.725   3.566
22061SOL    HW277838   9.370   0.869   3.502
22062SOL     OW77839   1.728   4.663   6.377
22062SOL    HW177840   1.821   4.655   6.413
22062SOL    HW277841   1.704   4.760   6.368
22063SOL     OW77842   9.938   6.081   4.940
22063SOL    HW177843   9.964   6.078   5.036
22063SOL    HW277844   9.903   5.992   4.912
22064SOL     OW77845   9.603   1.525   7.366
22064SOL    HW177846   9.686   1.580   7.363
22064SOL    HW277847   9.619   1.436   7.325
22065SOL     OW77848   3.971   7.583   4.699
22065SOL    HW177849   4.036   7.633   4.641
22065SOL    HW277850   3.960   7.632   4.785
22066SOL     OW77851   8.575   2.514   0.534
22066SOL    HW177852   8.566   2.446   0.606
22066SOL    HW277853   8.494   2.573   0.534
22067SOL     OW77854   3.392   9.670   5.473
22067SOL    HW177855   3.454   9.734   5.428
22067SOL    HW277856   3.333   9.719   5.537
22068SOL     OW77857   3.429   2.725   5.137
22068SOL    HW177858   3.474   2.723   5.048
22068SOL    HW277859   3.411   2.632   5.168
22069SOL     OW77860   8.895   1.527   5.328
22069SOL    HW177861   8.822   1.520   5.396
22069SOL    HW277862   8.955   1.447   5.336
22070SOL     OW77863   6.809   2.440   4.065
22070SOL    HW177864   6.872   2.502   4.111
22070SOL    HW277865   6.845   2.347   4.068
22071SOL     OW77866   2.001   3.964   4.387
22071SOL    HW177867   2.023   3.957   4.484
22071SOL    HW277868   1.902   3.978   4.376
22072SOL     OW77869   5.927   3.414   1.489
22072SOL    HW177870   5.989   3.467   1.546
22072SOL    HW277871   5.859   3.369   1.546
22073SOL     OW77872   3.362   5.872   3.343
22073SOL    HW177873   3.447   5.849   3.296
22073SOL    HW277874   3.346   5.807   3.416
22074SOL     OW77875   2.662   3.095   6.276
22074SOL    HW177876   2.666   3.191   6.304
22074SOL    HW277877   2.730   3.043   6.327
22075SOL     OW77878   8.875   8.788   2.140
22075SOL    HW177879   8.962   8.825   2.105
22075SOL    HW277880   8.799   8.833   2.094
22076SOL     OW77881   7.583   3.685   2.831
22076SOL    HW177882   7.492   3.726   2.829
22076SOL    HW277883   7.651   3.755   2.808
22077SOL     OW77884   6.244   4.285   2.057
22077SOL    HW177885   6.275   4.241   1.973
22077SOL    HW277886   6.192   4.220   2.112
22078SOL     OW77887   0.852   9.540   2.808
22078SOL    HW177888   0.872   9.442   2.804
22078SOL    HW277889   0.897   9.586   2.731
22079SOL     OW77890   6.272   1.929   5.529
22079SOL    HW177891   6.305   1.858   5.468
22079SOL    HW277892   6.307   2.018   5.498
22080SOL     OW77893   9.851   9.778   0.482
22080SOL    HW177894   9.877   9.681   0.486
22080SOL    HW277895   9.896   9.821   0.404
22081SOL     OW77896   9.358   8.547   2.607
22081SOL    HW177897   9.305   8.606   2.669
22081SOL    HW277898   9.452   8.580   2.602
22082SOL     OW77899   1.871   3.784   5.094
22082SOL    HW177900   1.957   3.762   5.141
22082SOL    HW277901   1.800   3.721   5.123
22083SOL     OW77902   8.547   6.969   6.440
22083SOL    HW177903   8.636   6.989   6.483
22083SOL    HW277904   8.487   7.048   6.449
22084SOL     OW77905   2.044   2.401   0.488
22084SOL    HW177906   1.957   2.356   0.508
22084SOL    HW277907   2.074   2.377   0.396
22085SOL     OW77908   5.987   1.972   5.311
22085SOL    HW177909   5.976   1.874   5.297
22085SOL    HW277910   5.935   2.001   5.391
22086SOL     OW77911   2.332   5.069   6.994
22086SOL    HW177912   2.371   5.132   6.927
22086SOL    HW277913   2.406   5.016   7.036
22087SOL     OW77914   1.528   8.160   1.996
22087SOL    HW177915   1.550   8.072   2.038
22087SOL    HW277916   1.584   8.173   1.914
22088SOL     OW77917   9.882   1.175   5.407
22088SOL    HW177918   9.791   1.168   5.447
22088SOL    HW277919   9.916   1.084   5.384
22089SOL     OW77920   5.216   4.668   1.044
22089SOL    HW177921   5.226   4.767   1.038
22089SOL    HW277922   5.299   4.629   1.085
22090SOL     OW77923   3.162   9.106   4.094
22090SOL    HW177924   3.181   9.025   4.148
22090SOL    HW277925   3.067   9.104   4.063
22091SOL     OW77926   8.042   6.794   3.923
22091SOL    HW177927   7.990   6.863   3.974
22091SOL    HW277928   7.985   6.712   3.911
22092SOL     OW77929   7.066   0.186   4.491
22092SOL    HW177930   7.125   0.230   4.558
22092SOL    HW277931   7.075   0.087   4.499
22093SOL     OW77932   8.711   5.026   7.471
22093SOL    HW177933   8.661   5.097   7.522
22093SOL    HW277934   8.689   4.936   7.509
22094SOL     OW77935   1.121   2.317   5.164
22094SOL    HW177936   1.128   2.417   5.173
22094SOL    HW277937   1.146   2.274   5.251
22095SOL     OW77938   3.716   0.823   7.628
22095SOL    HW177939   3.712   0.770   7.543
22095SOL    HW277940   3.633   0.808   7.681
22096SOL     OW77941   2.484   7.342   0.949
22096SOL    HW177942   2.559   7.400   0.983
22096SOL    HW277943   2.400   7.365   0.998
22097SOL     OW77944   0.181   0.680   6.789
22097SOL    HW177945   0.140   0.608   6.733
22097SOL    HW277946   0.174   0.768   6.741
22098SOL     OW77947   6.627   4.785   2.579
22098SOL    HW177948   6.646   4.725   2.502
22098SOL    HW277949   6.648   4.737   2.664
22099SOL     OW77950   6.829   5.811   1.708
22099SOL    HW177951   6.856   5.715   1.702
22099SOL    HW277952   6.765   5.832   1.634
22100SOL     OW77953   8.546   2.885   2.564
22100SOL    HW177954   8.523   2.852   2.473
22100SOL    HW277955   8.539   2.809   2.630
22101SOL     OW77956   5.936   5.605   2.310
22101SOL    HW177957   5.854   5.594   2.253
22101SOL    HW277958   5.972   5.514   2.332
22102SOL     OW77959   1.662   1.461   5.941
22102SOL    HW177960   1.605   1.448   6.022
22102SOL    HW277961   1.670   1.559   5.921
22103SOL     OW77962   9.224   2.814   4.163
22103SOL    HW177963   9.225   2.913   4.155
22103SOL    HW277964   9.131   2.783   4.185
22104SOL     OW77965   8.680   0.853   4.048
22104SOL    HW177966   8.748   0.783   4.026
22104SOL    HW277967   8.726   0.940   4.066
22105SOL     OW77968   1.845   3.813   5.849
22105SOL    HW177969   1.926   3.863   5.819
22105SOL    HW277970   1.768   3.876   5.857
22106SOL     OW77971   3.334   3.905   1.870
22106SOL    HW177972   3.268   3.962   1.918
22106SOL    HW277973   3.380   3.959   1.800
22107SOL     OW77974   9.714   2.177   7.435
22107SOL    HW177975   9.699   2.180   7.336
22107SOL    HW277976   9.812   2.170   7.454
22108SOL     OW77977   9.818   7.991   7.358
22108SOL    HW177978   9.780   7.971   7.449
22108SOL    HW277979   9.774   7.933   7.290
22109SOL     OW77980   4.782   0.121   7.474
22109SOL    HW177981   4.847   0.046   7.461
22109SOL    HW277982   4.689   0.087   7.459
22110SOL     OW77983   1.742   2.260   6.327
22110SOL    HW177984   1.728   2.162   6.310
22110SOL    HW277985   1.818   2.292   6.270
22111SOL     OW77986   9.914   5.898   0.057
22111SOL    HW177987   9.868   5.910  10.050
22111SOL    HW277988   9.937   5.987   0.095
22112SOL     OW77989   1.092   5.406   1.468
22112SOL    HW177990   1.054   5.383   1.378
22112SOL    HW277991   1.127   5.323   1.511
22113SOL     OW77992   6.499   1.859   4.029
22113SOL    HW177993   6.505   1.923   4.105
22113SOL    HW277994   6.438   1.897   3.959
22114SOL     OW77995   2.723   4.538   2.353
22114SOL    HW177996   2.676   4.620   2.386
22114SOL    HW277997   2.786   4.562   2.279
22115SOL     OW77998   1.296   7.283   5.007
22115SOL    HW177999   1.369   7.317   5.067
22115SOL    HW278000   1.208   7.320   5.038
22116SOL     OW78001   4.910   0.380   1.947
22116SOL    HW178002   4.855   0.308   1.905
22116SOL    HW278003   4.863   0.467   1.939
22117SOL     OW78004   9.712   0.179   6.375
22117SOL    HW178005   9.629   0.143   6.418
22117SOL    HW278006   9.699   0.184   6.276
22118SOL     OW78007   6.661   1.186   6.518
22118SOL    HW178008   6.645   1.181   6.617
22118SOL    HW278009   6.584   1.231   6.474
22119SOL     OW78010   3.318   8.240   3.482
22119SOL    HW178011   3.248   8.222   3.413
22119SOL    HW278012   3.278   8.293   3.556
22120SOL     OW78013   3.301   1.604   2.662
22120SOL    HW178014   3.318   1.695   2.699
22120SOL    HW278015   3.206   1.578   2.678
22121SOL     OW78016   3.692   8.064   2.808
22121SOL    HW178017   3.735   8.128   2.872
22121SOL    HW278018   3.609   8.106   2.770
22122SOL     OW78019   2.689   3.131   6.007
22122SOL    HW178020   2.684   3.100   6.102
22122SOL    HW278021   2.705   3.229   6.004
22123SOL     OW78022   0.726   2.279   4.425
22123SOL    HW178023   0.676   2.208   4.475
22123SOL    HW278024   0.700   2.369   4.461
22124SOL     OW78025   1.774   9.281   3.055
22124SOL    HW178026   1.699   9.215   3.049
22124SOL    HW278027   1.772   9.326   3.145
22125SOL     OW78028   3.878   8.713   3.520
22125SOL    HW178029   3.929   8.771   3.584
22125SOL    HW278030   3.943   8.661   3.465
22126SOL     OW78031   8.862   0.649   4.001
22126SOL    HW178032   8.946   0.642   3.946
22126SOL    HW278033   8.822   0.558   4.012
22127SOL     OW78034   8.340   4.563   5.762
22127SOL    HW178035   8.374   4.633   5.700
22127SOL    HW278036   8.240   4.562   5.759
22128SOL     OW78037   7.686   7.254   3.347
22128SOL    HW178038   7.730   7.280   3.433
22128SOL    HW278039   7.633   7.170   3.360
22129SOL     OW78040   9.442   9.191   4.007
22129SOL    HW178041   9.417   9.094   4.007
22129SOL    HW278042   9.392   9.238   3.934
22130SOL     OW78043   8.768   2.033   7.410
22130SOL    HW178044   8.867   2.030   7.402
22130SOL    HW278045   8.742   2.100   7.480
22131SOL     OW78046   2.608   7.095   1.216
22131SOL    HW178047   2.675   7.033   1.258
22131SOL    HW278048   2.620   7.187   1.254
22132SOL     OW78049   5.932   0.169   7.176
22132SOL    HW178050   5.945   0.098   7.245
22132SOL    HW278051   5.840   0.162   7.138
22133SOL     OW78052   9.963   2.449   6.041
22133SOL    HW178053   9.938   2.531   5.988
22133SOL    HW278054   0.014   2.386   5.982
22134SOL     OW78055   1.118   9.923   7.193
22134SOL    HW178056   1.074   9.996   7.244
22134SOL    HW278057   1.215   9.918   7.219
22135SOL     OW78058   0.958   6.463   5.777
22135SOL    HW178059   1.036   6.412   5.741
22135SOL    HW278060   0.888   6.473   5.706
22136SOL     OW78061   4.647   4.430   1.984
22136SOL    HW178062   4.646   4.525   2.015
22136SOL    HW278063   4.698   4.374   2.050
22137SOL     OW78064   2.364   6.938   1.967
22137SOL    HW178065   2.420   6.916   1.887
22137SOL    HW278066   2.342   7.036   1.967
22138SOL     OW78067   7.668   3.814   7.485
22138SOL    HW178068   7.617   3.889   7.442
22138SOL    HW278069   7.681   3.741   7.418
22139SOL     OW78070   2.260   1.780   5.038
22139SOL    HW178071   2.173   1.732   5.034
22139SOL    HW278072   2.289   1.805   4.946
22140SOL     OW78073   7.386   5.091   7.719
22140SOL    HW178074   7.437   5.009   7.691
22140SOL    HW278075   7.445   5.171   7.711
22141SOL     OW78076  10.000   8.675   6.400
22141SOL    HW178077   0.011   8.758   6.454
22141SOL    HW278078   0.088   8.629   6.391
22142SOL     OW78079   2.381   6.416   2.185
22142SOL    HW178080   2.376   6.456   2.094
22142SOL    HW278081   2.322   6.467   2.248
22143SOL     OW78082   3.418   2.346   7.253
22143SOL    HW178083   3.455   2.408   7.322
22143SOL    HW278084   3.470   2.260   7.254
22144SOL     OW78085   4.795   7.006   0.853
22144SOL    HW178086   4.886   7.006   0.812
22144SOL    HW278087   4.757   7.098   0.852
22145SOL     OW78088   2.186   8.711   2.952
22145SOL    HW178089   2.270   8.670   2.916
22145SOL    HW278090   2.131   8.641   2.997
22146SOL     OW78091   9.388   9.562   1.202
22146SOL    HW178092   9.409   9.466   1.183
22146SOL    HW278093   9.328   9.598   1.131
22147SOL     OW78094   0.853   5.774   0.914
22147SOL    HW178095   0.867   5.744   0.820
22147SOL    HW278096   0.760   5.809   0.924
22148SOL     OW78097   7.333   4.558   1.429
22148SOL    HW178098   7.423   4.599   1.414
22148SOL    HW278099   7.342   4.477   1.487
22149SOL     OW78100   0.116   9.561   2.629
22149SOL    HW178101   0.165   9.633   2.678
22149SOL    HW278102   0.158   9.546   2.540
22150SOL     OW78103   2.136   2.273   7.842
22150SOL    HW178104   2.150   2.372   7.835
22150SOL    HW278105   2.220   2.230   7.876
22151SOL     OW78106   7.488   1.043   7.205
22151SOL    HW178107   7.493   1.131   7.252
22151SOL    HW278108   7.455   1.057   7.112
22152SOL     OW78109   2.093   5.822   2.224
22152SOL    HW178110   2.148   5.881   2.165
22152SOL    HW278111   2.151   5.781   2.294
22153SOL     OW78112   3.007   3.768   6.646
22153SOL    HW178113   2.934   3.821   6.604
22153SOL    HW278114   3.016   3.680   6.598
22154SOL     OW78115   6.977   9.996   7.249
22154SOL    HW178116   7.054   9.933   7.245
22154SOL    HW278117   7.011   0.089   7.261
22155SOL     OW78118   3.708   0.766   3.147
22155SOL    HW178119   3.640   0.839   3.146
22155SOL    HW278120   3.670   0.684   3.105
22156SOL     OW78121   1.322   1.716   6.124
22156SOL    HW178122   1.323   1.631   6.178
22156SOL    HW278123   1.341   1.695   6.028
22157SOL     OW78124   0.478   0.146   7.046
22157SOL    HW178125   0.379   0.130   7.048
22157SOL    HW278126   0.503   0.204   7.124
22158SOL     OW78127   9.076   4.778   4.739
22158SOL    HW178128   9.073   4.680   4.720
22158SOL    HW278129   9.013   4.826   4.678
22159SOL     OW78130   3.963   3.045   0.098
22159SOL    HW178131   3.982   3.143   0.087
22159SOL    HW278132   3.875   3.024   0.054
22160SOL     OW78133   2.996   2.967   0.747
22160SOL    HW178134   2.968   2.935   0.838
22160SOL    HW278135   3.090   2.936   0.728
22161SOL     OW78136   3.249   7.817   3.873
22161SOL    HW178137   3.235   7.788   3.778
22161SOL    HW278138   3.331   7.875   3.879
22162SOL     OW78139   3.271   1.290   1.162
22162SOL    HW178140   3.217   1.307   1.245
22162SOL    HW278141   3.212   1.302   1.082
22163SOL     OW78142   1.780   8.101   3.335
22163SOL    HW178143   1.843   8.044   3.388
22163SOL    HW278144   1.720   8.152   3.398
22164SOL     OW78145   2.763   4.261   3.333
22164SOL    HW178146   2.741   4.333   3.399
22164SOL    HW278147   2.714   4.279   3.247
22165SOL     OW78148   7.662   3.463   4.456
22165SOL    HW178149   7.739   3.508   4.410
22165SOL    HW278150   7.649   3.504   4.546
22166SOL     OW78151   6.013   1.022   2.353
22166SOL    HW178152   6.036   1.051   2.260
22166SOL    HW278153   6.045   1.090   2.419
22167SOL     OW78154   2.477   9.808   5.442
22167SOL    HW178155   2.444   9.715   5.430
22167SOL    HW278156   2.400   9.872   5.440
22168SOL     OW78157   1.783   2.017   7.184
22168SOL    HW178158   1.842   1.937   7.194
22168SOL    HW278159   1.832   2.088   7.133
22169SOL     OW78160   7.318   9.709   1.238
22169SOL    HW178161   7.234   9.657   1.225
22169SOL    HW278162   7.303   9.804   1.210
22170SOL     OW78163   9.355   8.201   0.174
22170SOL    HW178164   9.340   8.160   0.083
22170SOL    HW278165   9.354   8.129   0.243
22171SOL     OW78166   2.457   5.188   4.136
22171SOL    HW178167   2.507   5.135   4.067
22171SOL    HW278168   2.498   5.278   4.145
22172SOL     OW78169   3.376   3.484   6.503
22172SOL    HW178170   3.388   3.497   6.405
22172SOL    HW278171   3.352   3.571   6.545
22173SOL     OW78172   1.988   8.988   1.247
22173SOL    HW178173   2.016   8.897   1.216
22173SOL    HW278174   1.979   8.988   1.346
22174SOL     OW78175   7.996   7.325   5.923
22174SOL    HW178176   7.993   7.243   5.865
22174SOL    HW278177   8.014   7.405   5.867
22175SOL     OW78178   3.580   3.610   1.575
22175SOL    HW178179   3.675   3.624   1.546
22175SOL    HW278180   3.570   3.640   1.670
22176SOL     OW78181   2.235   7.385   5.625
22176SOL    HW178182   2.271   7.403   5.717
22176SOL    HW278183   2.229   7.471   5.574
22177SOL     OW78184   1.723   5.932   7.012
22177SOL    HW178185   1.629   5.901   7.024
22177SOL    HW278186   1.782   5.853   6.992
22178SOL     OW78187   8.877   7.934   3.708
22178SOL    HW178188   8.782   7.903   3.702
22178SOL    HW278189   8.935   7.858   3.739
22179SOL     OW78190   4.746   4.831   1.795
22179SOL    HW178191   4.657   4.786   1.800
22179SOL    HW278192   4.800   4.790   1.722
22180SOL     OW78193   8.972   9.005   2.686
22180SOL    HW178194   8.979   9.079   2.753
22180SOL    HW278195   8.923   9.039   2.605
22181SOL     OW78196   8.667   8.710   3.262
22181SOL    HW178197   8.567   8.713   3.258
22181SOL    HW278198   8.702   8.801   3.284
22182SOL     OW78199   7.773   9.899   2.456
22182SOL    HW178200   7.814   9.812   2.483
22182SOL    HW278201   7.725   9.939   2.534
22183SOL     OW78202   1.266   0.678   7.571
22183SOL    HW178203   1.231   0.703   7.661
22183SOL    HW278204   1.338   0.741   7.544
22184SOL     OW78205   2.411   1.747   3.192
22184SOL    HW178206   2.368   1.663   3.160
22184SOL    HW278207   2.502   1.726   3.228
22185SOL     OW78208   1.980   0.122   3.863
22185SOL    HW178209   1.896   0.175   3.870
22185SOL    HW278210   1.983   0.054   3.937
22186SOL     OW78211   6.125   7.365   3.149
22186SOL    HW178212   6.223   7.383   3.149
22186SOL    HW278213   6.078   7.432   3.093
22187SOL     OW78214   9.323   2.375   4.095
22187SOL    HW178215   9.344   2.457   4.042
22187SOL    HW278216   9.313   2.297   4.033
22188SOL     OW78217   9.404   6.546   3.504
22188SOL    HW178218   9.450   6.473   3.554
22188SOL    HW278219   9.472   6.600   3.454
22189SOL     OW78220   2.798   1.647   3.923
22189SOL    HW178221   2.897   1.656   3.935
22189SOL    HW278222   2.752   1.722   3.971
22190SOL     OW78223   9.068   6.058   0.376
22190SOL    HW178224   9.159   6.091   0.402
22190SOL    HW278225   9.064   5.958   0.388
22191SOL     OW78226   3.412   4.751   0.097
22191SOL    HW178227   3.441   4.775   0.190
22191SOL    HW278228   3.478   4.786   0.031
22192SOL     OW78229   4.236   6.735   3.307
22192SOL    HW178230   4.171   6.683   3.363
22192SOL    HW278231   4.236   6.697   3.214
22193SOL     OW78232   1.945   5.264   0.729
22193SOL    HW178233   1.855   5.291   0.763
22193SOL    HW278234   1.959   5.166   0.744
22194SOL     OW78235   3.003   0.501   1.742
22194SOL    HW178236   3.042   0.592   1.726
22194SOL    HW278237   3.071   0.441   1.783
22195SOL     OW78238   8.703   9.193   7.778
22195SOL    HW178239   8.612   9.189   7.737
22195SOL    HW278240   8.711   9.121   7.847
22196SOL     OW78241   3.600   0.691   5.683
22196SOL    HW178242   3.690   0.648   5.674
22196SOL    HW278243   3.604   0.784   5.645
22197SOL     OW78244   0.325   8.947   5.265
22197SOL    HW178245   0.236   8.916   5.233
22197SOL    HW278246   0.389   8.871   5.265
22198SOL     OW78247   8.645   9.664   3.241
22198SOL    HW178248   8.705   9.680   3.319
22198SOL    HW278249   8.561   9.718   3.252
22199SOL     OW78250   2.731   5.730   7.077
22199SOL    HW178251   2.787   5.656   7.040
22199SOL    HW278252   2.652   5.691   7.126
22200SOL     OW78253   9.488   3.874   3.985
22200SOL    HW178254   9.438   3.881   4.072
22200SOL    HW278255   9.483   3.779   3.952
22201SOL     OW78256   7.686   4.242   1.714
22201SOL    HW178257   7.748   4.320   1.716
22201SOL    HW278258   7.655   4.220   1.806
22202SOL     OW78259   7.002   5.494   7.073
22202SOL    HW178260   7.096   5.516   7.100
22202SOL    HW278261   6.994   5.396   7.054
22203SOL     OW78262   7.320   7.031   7.709
22203SOL    HW178263   7.243   7.095   7.708
22203SOL    HW278264   7.370   7.041   7.795
22204SOL     OW78265   9.628   7.311   6.728
22204SOL    HW178266   9.556   7.343   6.666
22204SOL    HW278267   9.631   7.212   6.727
22205SOL     OW78268   7.828   7.056   7.519
22205SOL    HW178269   7.920   7.069   7.555
22205SOL    HW278270   7.830   7.065   7.419
22206SOL     OW78271   3.882   9.992   0.647
22206SOL    HW178272   3.783   9.985   0.661
22206SOL    HW278273   3.903   0.075   0.595
22207SOL     OW78274   2.416   5.572   1.489
22207SOL    HW178275   2.383   5.650   1.542
22207SOL    HW278276   2.493   5.530   1.536
22208SOL     OW78277   2.841   6.092   0.205
22208SOL    HW178278   2.925   6.114   0.155
22208SOL    HW278279   2.786   6.028   0.151
22209SOL     OW78280   1.545   3.079   5.541
22209SOL    HW178281   1.639   3.094   5.572
22209SOL    HW278282   1.485   3.147   5.582
22210SOL     OW78283   6.593   1.710   2.242
22210SOL    HW178284   6.651   1.773   2.190
22210SOL    HW278285   6.649   1.636   2.280
22211SOL     OW78286   8.795   0.370   4.004
22211SOL    HW178287   8.767   0.289   3.952
22211SOL    HW278288   8.754   0.367   4.095
22212SOL     OW78289   7.880   3.588   4.349
22212SOL    HW178290   7.927   3.507   4.314
22212SOL    HW278291   7.874   3.657   4.276
22213SOL     OW78292   8.607   1.352   2.625
22213SOL    HW178293   8.547   1.431   2.611
22213SOL    HW278294   8.691   1.382   2.669
22214SOL     OW78295   4.111   0.717   1.534
22214SOL    HW178296   4.132   0.814   1.547
22214SOL    HW278297   4.141   0.665   1.614
22215SOL     OW78298   4.971   9.888   7.168
22215SOL    HW178299   5.053   9.831   7.162
22215SOL    HW278300   4.936   9.887   7.261
22216SOL     OW78301   4.287   4.763   1.239
22216SOL    HW178302   4.304   4.861   1.227
22216SOL    HW278303   4.240   4.748   1.326
22217SOL     OW78304   4.951   1.075   1.050
22217SOL    HW178305   4.980   1.149   1.111
22217SOL    HW278306   4.864   1.099   1.007
22218SOL     OW78307   7.338   4.068   3.308
22218SOL    HW178308   7.339   3.995   3.376
22218SOL    HW278309   7.402   4.140   3.335
22219SOL     OW78310   0.443   2.491   7.584
22219SOL    HW178311   0.390   2.493   7.499
22219SOL    HW278312   0.524   2.548   7.574
22220SOL     OW78313   1.401   7.332   5.426
22220SOL    HW178314   1.432   7.322   5.332
22220SOL    HW278315   1.413   7.427   5.455
22221SOL     OW78316   8.132   1.998   5.828
22221SOL    HW178317   8.205   2.003   5.896
22221SOL    HW278318   8.077   1.916   5.844
22222SOL     OW78319   3.594   6.115   2.741
22222SOL    HW178320   3.532   6.053   2.693
22222SOL    HW278321   3.688   6.095   2.715
22223SOL     OW78322   8.246   2.456   0.417
22223SOL    HW178323   8.315   2.425   0.352
22223SOL    HW278324   8.274   2.544   0.456
22224SOL     OW78325   5.164   1.365   6.162
22224SOL    HW178326   5.233   1.435   6.181
22224SOL    HW278327   5.090   1.373   6.229
22225SOL     OW78328   3.958   5.885   7.645
22225SOL    HW178329   3.891   5.867   7.574
22225SOL    HW278330   4.026   5.811   7.647
22226SOL     OW78331   7.245   1.627   1.615
22226SOL    HW178332   7.147   1.637   1.596
22226SOL    HW278333   7.272   1.531   1.602
22227SOL     OW78334   9.126   2.402   2.191
22227SOL    HW178335   9.137   2.406   2.091
22227SOL    HW278336   9.154   2.489   2.231
22228SOL     OW78337   4.073   3.437   4.110
22228SOL    HW178338   4.001   3.401   4.169
22228SOL    HW278339   4.044   3.431   4.014
22229SOL     OW78340   8.706   3.559   0.685
22229SOL    HW178341   8.703   3.459   0.691
22229SOL    HW278342   8.657   3.589   0.603
22230SOL     OW78343   0.718   1.814   5.711
22230SOL    HW178344   0.775   1.895   5.696
22230SOL    HW278345   0.771   1.732   5.691
22231SOL     OW78346   4.123   3.539   7.291
22231SOL    HW178347   4.132   3.596   7.209
22231SOL    HW278348   4.188   3.463   7.285
22232SOL     OW78349   3.086   1.994   3.062
22232SOL    HW178350   3.085   1.927   2.988
22232SOL    HW278351   3.152   1.965   3.132
22233SOL     OW78352   6.447   1.945   1.494
22233SOL    HW178353   6.489   1.876   1.436
22233SOL    HW278354   6.348   1.945   1.481
22234SOL     OW78355   1.604   3.713   3.465
22234SOL    HW178356   1.517   3.715   3.415
22234SOL    HW278357   1.636   3.807   3.479
22235SOL     OW78358   1.921   4.751   1.159
22235SOL    HW178359   2.013   4.754   1.122
22235SOL    HW278360   1.860   4.706   1.094
22236SOL     OW78361   9.473   2.382   6.794
22236SOL    HW178362   9.523   2.453   6.745
22236SOL    HW278363   9.406   2.340   6.732
22237SOL     OW78364   7.771   0.242   4.550
22237SOL    HW178365   7.850   0.264   4.607
22237SOL    HW278366   7.728   0.158   4.583
22238SOL     OW78367   5.831   8.791   2.034
22238SOL    HW178368   5.755   8.765   2.093
22238SOL    HW278369   5.817   8.752   1.943
22239SOL     OW78370   0.387   9.159   5.116
22239SOL    HW178371   0.420   9.121   5.029
22239SOL    HW278372   0.372   9.085   5.181
22240SOL     OW78373   1.471   4.887   0.451
22240SOL    HW178374   1.524   4.811   0.414
22240SOL    HW278375   1.466   4.961   0.383
22241SOL     OW78376   8.223   8.432   7.626
22241SOL    HW178377   8.245   8.497   7.554
22241SOL    HW278378   8.299   8.368   7.638
22242SOL     OW78379   3.161   6.582   3.323
22242SOL    HW178380   3.164   6.561   3.225
22242SOL    HW278381   3.173   6.498   3.376
22243SOL     OW78382   2.447   9.702   4.643
22243SOL    HW178383   2.480   9.624   4.590
22243SOL    HW278384   2.522   9.741   4.696
22244SOL     OW78385   8.830   6.081   3.523
22244SOL    HW178386   8.739   6.058   3.488
22244SOL    HW278387   8.824   6.162   3.581
22245SOL     OW78388   2.818   2.591   3.358
22245SOL    HW178389   2.897   2.538   3.327
22245SOL    HW278390   2.824   2.684   3.321
22246SOL     OW78391   8.541   1.547   1.250
22246SOL    HW178392   8.535   1.448   1.239
22246SOL    HW278393   8.635   1.577   1.233
22247SOL     OW78394   2.719   3.083   7.493
22247SOL    HW178395   2.756   3.154   7.553
22247SOL    HW278396   2.792   3.022   7.464
22248SOL     OW78397   8.520   5.905   4.097
22248SOL    HW178398   8.499   5.896   4.195
22248SOL    HW278399   8.513   6.001   4.070
22249SOL     OW78400   9.883   6.136   7.460
22249SOL    HW178401   9.814   6.147   7.389
22249SOL    HW278402   9.905   6.039   7.470
22250SOL     OW78403   1.247   6.423   2.993
22250SOL    HW178404   1.299   6.368   3.058
22250SOL    HW278405   1.190   6.489   3.043
22251SOL     OW78406   6.189   8.714   4.523
22251SOL    HW178407   6.269   8.663   4.554
22251SOL    HW278408   6.109   8.654   4.525
22252SOL     OW78409   9.484   8.650   3.909
22252SOL    HW178410   9.469   8.749   3.919
22252SOL    HW278411   9.548   8.633   3.835
22253SOL     OW78412   8.751   6.690   7.594
22253SOL    HW178413   8.736   6.788   7.610
22253SOL    HW278414   8.725   6.639   7.676
22254SOL     OW78415   7.134   5.399   3.087
22254SOL    HW178416   7.061   5.388   3.019
22254SOL    HW278417   7.166   5.494   3.086
22255SOL     OW78418   7.458   0.393   0.392
22255SOL    HW178419   7.425   0.304   0.424
22255SOL    HW278420   7.393   0.464   0.419
22256SOL     OW78421   5.954   9.829   4.386
22256SOL    HW178422   6.017   9.771   4.335
22256SOL    HW278423   5.929   9.909   4.330
22257SOL     OW78424   8.255   6.142   4.189
22257SOL    HW178425   8.168   6.189   4.203
22257SOL    HW278426   8.298   6.125   4.278
22258SOL     OW78427   7.860   1.706   6.150
22258SOL    HW178428   7.823   1.616   6.130
22258SOL    HW278429   7.937   1.698   6.214
22259SOL     OW78430   8.137   0.772   0.727
22259SOL    HW178431   8.173   0.691   0.682
22259SOL    HW278432   8.212   0.825   0.767
22260SOL     OW78433   6.797   2.812   1.288
22260SOL    HW178434   6.851   2.805   1.372
22260SOL    HW278435   6.845   2.873   1.224
22261SOL     OW78436   0.577   5.963   2.529
22261SOL    HW178437   0.648   5.893   2.534
22261SOL    HW278438   0.617   6.053   2.545
22262SOL     OW78439   3.265   3.596   7.017
22262SOL    HW178440   3.179   3.648   7.012
22262SOL    HW278441   3.342   3.659   7.005
22263SOL     OW78442   5.968   1.241   3.555
22263SOL    HW178443   5.986   1.166   3.492
22263SOL    HW278444   5.886   1.290   3.525
22264SOL     OW78445   7.650   7.074   1.994
22264SOL    HW178446   7.692   7.154   1.952
22264SOL    HW278447   7.662   7.078   2.093
22265SOL     OW78448   9.870   1.891   3.385
22265SOL    HW178449   9.771   1.890   3.367
22265SOL    HW278450   9.915   1.823   3.328
22266SOL     OW78451   8.686   6.917   5.799
22266SOL    HW178452   8.700   6.910   5.700
22266SOL    HW278453   8.768   6.885   5.847
22267SOL     OW78454   0.093   5.883   5.394
22267SOL    HW178455   0.115   5.802   5.449
22267SOL    HW278456   0.100   5.964   5.452
22268SOL     OW78457   5.090   9.895   3.582
22268SOL    HW178458   5.146   9.940   3.652
22268SOL    HW278459   5.005   9.861   3.624
22269SOL     OW78460   3.482   0.650   7.235
22269SOL    HW178461   3.508   0.587   7.161
22269SOL    HW278462   3.458   0.739   7.196
22270SOL     OW78463   5.455   4.576   1.157
22270SOL    HW178464   5.549   4.595   1.129
22270SOL    HW278465   5.441   4.607   1.251
22271SOL     OW78466   7.268   8.760   2.487
22271SOL    HW178467   7.258   8.825   2.563
22271SOL    HW278468   7.189   8.766   2.426
22272SOL     OW78469   2.319   0.746   5.323
22272SOL    HW178470   2.313   0.842   5.350
22272SOL    HW278471   2.245   0.694   5.366
22273SOL     OW78472   8.652   8.626   7.819
22273SOL    HW178473   8.655   8.526   7.827
22273SOL    HW278474   8.564   8.654   7.780
22274SOL     OW78475   1.940   2.116   2.858
22274SOL    HW178476   1.989   2.037   2.895
22274SOL    HW278477   1.972   2.199   2.903
22275SOL     OW78478   0.811   3.277   6.458
22275SOL    HW178479   0.789   3.269   6.361
22275SOL    HW278480   0.835   3.372   6.479
22276SOL     OW78481   0.659   8.332   2.123
22276SOL    HW178482   0.607   8.417   2.116
22276SOL    HW278483   0.661   8.287   2.033
22277SOL     OW78484   9.359   5.497   1.903
22277SOL    HW178485   9.393   5.411   1.943
22277SOL    HW278486   9.259   5.492   1.896
22278SOL     OW78487   1.825   9.830   3.066
22278SOL    HW178488   1.768   9.888   3.008
22278SOL    HW278489   1.910   9.808   3.019
22279SOL     OW78490   7.915   8.966   2.844
22279SOL    HW178491   7.947   9.000   2.756
22279SOL    HW278492   7.902   9.043   2.907
22280SOL     OW78493   4.888   7.926   6.193
22280SOL    HW178494   4.924   7.917   6.100
22280SOL    HW278495   4.960   7.963   6.252
22281SOL     OW78496   3.949   0.193   5.359
22281SOL    HW178497   4.047   0.182   5.347
22281SOL    HW278498   3.905   0.198   5.270
22282SOL     OW78499   0.110   6.364   0.551
22282SOL    HW178500   0.118   6.428   0.627
22282SOL    HW278501   0.025   6.383   0.501
22283SOL     OW78502   1.336   3.332   7.775
22283SOL    HW178503   1.405   3.397   7.807
22283SOL    HW278504   1.293   3.368   7.692
22284SOL     OW78505   2.246   9.276   6.665
22284SOL    HW178506   2.336   9.239   6.645
22284SOL    HW278507   2.186   9.203   6.697
22285SOL     OW78508   2.612   6.884   5.748
22285SOL    HW178509   2.711   6.891   5.737
22285SOL    HW278510   2.591   6.810   5.813
22286SOL     OW78511   0.691   9.327   5.931
22286SOL    HW178512   0.740   9.282   5.857
22286SOL    HW278513   0.719   9.287   6.019
22287SOL     OW78514   2.370   3.822   0.600
22287SOL    HW178515   2.317   3.906   0.613
22287SOL    HW278516   2.310   3.743   0.611
22288SOL     OW78517   1.920   1.066   4.816
22288SOL    HW178518   1.863   1.089   4.737
22288SOL    HW278519   1.874   1.095   4.900
22289SOL     OW78520   7.214   0.157   6.583
22289SOL    HW178521   7.248   0.204   6.502
22289SOL    HW278522   7.267   0.074   6.598
22290SOL     OW78523   1.096   2.122   1.487
22290SOL    HW178524   1.058   2.176   1.412
22290SOL    HW278525   1.194   2.142   1.495
22291SOL     OW78526   1.727   6.356   5.264
22291SOL    HW178527   1.798   6.425   5.251
22291SOL    HW278528   1.739   6.312   5.353
22292SOL     OW78529   5.898   7.655   4.277
22292SOL    HW178530   5.888   7.665   4.178
22292SOL    HW278531   5.940   7.566   4.297
22293SOL     OW78532   1.038   4.684   2.305
22293SOL    HW178533   0.969   4.626   2.262
22293SOL    HW278534   0.996   4.738   2.378
22294SOL     OW78535   8.839   1.674   2.416
22294SOL    HW178536   8.805   1.596   2.364
22294SOL    HW278537   8.799   1.673   2.508
22295SOL     OW78538   4.826   1.146   7.743
22295SOL    HW178539   4.822   1.244   7.763
22295SOL    HW278540   4.747   1.101   7.786
22296SOL     OW78541   7.914   3.346   2.125
22296SOL    HW178542   7.928   3.329   2.028
22296SOL    HW278543   7.927   3.444   2.143
22297SOL     OW78544   0.172   9.449   3.227
22297SOL    HW178545   0.192   9.437   3.324
22297SOL    HW278546   0.251   9.491   3.182
22298SOL     OW78547   2.499   2.366   7.379
22298SOL    HW178548   2.597   2.347   7.367
22298SOL    HW278549   2.450   2.346   7.294
22299SOL     OW78550   0.924   1.789   6.950
22299SOL    HW178551   1.019   1.757   6.955
22299SOL    HW278552   0.923   1.886   6.926
22300SOL     OW78553   0.355   1.812   1.952
22300SOL    HW178554   0.306   1.892   1.916
22300SOL    HW278555   0.347   1.810   2.051
22301SOL     OW78556   2.955   1.803   4.866
22301SOL    HW178557   2.959   1.745   4.947
22301SOL    HW278558   2.878   1.866   4.874
22302SOL     OW78559   8.464   3.082   0.494
22302SOL    HW178560   8.430   3.006   0.440
22302SOL    HW278561   8.510   3.047   0.576
22303SOL     OW78562   7.171   6.732   7.169
22303SOL    HW178563   7.203   6.801   7.104
22303SOL    HW278564   7.202   6.756   7.261
22304SOL     OW78565   4.348   9.410   4.883
22304SOL    HW178566   4.410   9.337   4.911
22304SOL    HW278567   4.271   9.371   4.832
22305SOL     OW78568   4.034   3.591   4.829
22305SOL    HW178569   4.082   3.504   4.833
22305SOL    HW278570   4.053   3.644   4.911
22306SOL     OW78571   1.302   5.499   5.186
22306SOL    HW178572   1.250   5.416   5.206
22306SOL    HW278573   1.238   5.575   5.170
22307SOL     OW78574   3.303   0.249   5.197
22307SOL    HW178575   3.295   0.348   5.201
22307SOL    HW278576   3.344   0.216   5.282
22308SOL     OW78577   4.669   1.411   5.877
22308SOL    HW178578   4.580   1.439   5.840
22308SOL    HW278579   4.662   1.320   5.916
22309SOL     OW78580   5.831   3.979   2.235
22309SOL    HW178581   5.790   4.023   2.314
22309SOL    HW278582   5.759   3.957   2.169
22310SOL     OW78583   8.515   1.758   5.116
22310SOL    HW178584   8.545   1.692   5.184
22310SOL    HW278585   8.424   1.792   5.140
22311SOL     OW78586   6.754   7.948   6.129
22311SOL    HW178587   6.677   7.989   6.080
22311SOL    HW278588   6.829   7.932   6.065
22312SOL     OW78589   3.661   0.945   0.738
22312SOL    HW178590   3.724   0.938   0.662
22312SOL    HW278591   3.625   0.854   0.761
22313SOL     OW78592   5.212   8.425   4.408
22313SOL    HW178593   5.304   8.399   4.439
22313SOL    HW278594   5.197   8.522   4.427
22314SOL     OW78595   9.259   9.622   3.557
22314SOL    HW178596   9.313   9.539   3.539
22314SOL    HW278597   9.172   9.597   3.598
22315SOL     OW78598   0.912   9.039   1.131
22315SOL    HW178599   1.009   9.026   1.109
22315SOL    HW278600   0.883   8.969   1.195
22316SOL     OW78601   1.205   2.863   1.966
22316SOL    HW178602   1.280   2.871   1.899
22316SOL    HW278603   1.120   2.894   1.923
22317SOL     OW78604   4.161   8.087   2.108
22317SOL    HW178605   4.120   8.012   2.159
22317SOL    HW278606   4.089   8.151   2.080
22318SOL     OW78607   1.876   1.211   1.489
22318SOL    HW178608   1.873   1.205   1.589
22318SOL    HW278609   1.819   1.139   1.449
22319SOL     OW78610   2.062   9.999   6.371
22319SOL    HW178611   1.991   0.065   6.343
22319SOL    HW278612   2.147   0.047   6.389
22320SOL     OW78613   7.969   7.385   1.607
22320SOL    HW178614   8.018   7.341   1.532
22320SOL    HW278615   7.915   7.316   1.656
22321SOL     OW78616   3.833   5.494   6.720
22321SOL    HW178617   3.811   5.501   6.623
22321SOL    HW278618   3.781   5.419   6.760
22322SOL     OW78619   4.625   8.857   6.204
22322SOL    HW178620   4.697   8.839   6.137
22322SOL    HW278621   4.665   8.859   6.296
22323SOL     OW78622   7.706   0.903   6.649
22323SOL    HW178623   7.738   0.883   6.742
22323SOL    HW278624   7.763   0.975   6.609
22324SOL     OW78625   0.279   1.698   5.088
22324SOL    HW178626   0.345   1.762   5.127
22324SOL    HW278627   0.211   1.749   5.035
22325SOL     OW78628   8.468   8.047   2.902
22325SOL    HW178629   8.537   7.977   2.885
22325SOL    HW278630   8.499   8.108   2.975
22326SOL     OW78631   0.079   9.053   3.237
22326SOL    HW178632   0.092   8.957   3.260
22326SOL    HW278633   0.092   9.109   3.318
22327SOL     OW78634   2.093   5.297   0.501
22327SOL    HW178635   2.044   5.260   0.422
22327SOL    HW278636   2.035   5.293   0.582
22328SOL     OW78637   4.267   5.338   6.822
22328SOL    HW178638   4.315   5.260   6.781
22328SOL    HW278639   4.201   5.375   6.756
22329SOL     OW78640   0.789   8.422   0.146
22329SOL    HW178641   0.699   8.397   0.182
22329SOL    HW278642   0.855   8.349   0.165
22330SOL     OW78643   1.462   9.541   4.199
22330SOL    HW178644   1.533   9.527   4.267
22330SOL    HW278645   1.384   9.587   4.241
22331SOL     OW78646   5.453   0.270   6.028
22331SOL    HW178647   5.389   0.229   6.094
22331SOL    HW278648   5.402   0.327   5.965
22332SOL     OW78649   5.045   9.919   5.352
22332SOL    HW178650   5.110   9.843   5.343
22332SOL    HW278651   5.087   9.993   5.406
22333SOL     OW78652   4.618   5.960   0.946
22333SOL    HW178653   4.581   6.009   0.868
22333SOL    HW278654   4.681   6.020   0.996
22334SOL     OW78655   2.399   8.686   6.244
22334SOL    HW178656   2.426   8.672   6.149
22334SOL    HW278657   2.307   8.649   6.259
22335SOL     OW78658   4.515   6.573   2.695
22335SOL    HW178659   4.486   6.655   2.744
22335SOL    HW278660   4.535   6.500   2.760
22336SOL     OW78661   4.758   1.084   3.891
22336SOL    HW178662   4.745   1.027   3.973
22336SOL    HW278663   4.669   1.101   3.848
22337SOL     OW78664   1.998   9.763   3.281
22337SOL    HW178665   1.940   9.786   3.203
22337SOL    HW278666   2.060   9.840   3.300
22338SOL     OW78667   8.530   4.018   3.801
22338SOL    HW178668   8.492   4.100   3.759
22338SOL    HW278669   8.553   3.952   3.729
22339SOL     OW78670   9.157   0.451   0.350
22339SOL    HW178671   9.129   0.477   0.257
22339SOL    HW278672   9.247   0.409   0.346
22340SOL     OW78673   8.987   5.718   0.661
22340SOL    HW178674   9.083   5.694   0.680
22340SOL    HW278675   8.962   5.799   0.713
22341SOL     OW78676   5.913   9.596   5.549
22341SOL    HW178677   5.983   9.633   5.609
22341SOL    HW278678   5.893   9.661   5.475
22342SOL     OW78679   3.622   2.559   3.600
22342SOL    HW178680   3.648   2.654   3.615
22342SOL    HW278681   3.587   2.549   3.506
22343SOL     OW78682   9.405   4.726   2.546
22343SOL    HW178683   9.388   4.642   2.495
22343SOL    HW278684   9.457   4.706   2.628
22344SOL     OW78685   5.327   1.575   6.757
22344SOL    HW178686   5.371   1.564   6.846
22344SOL    HW278687   5.286   1.488   6.728
22345SOL     OW78688   3.521   6.180   3.692
22345SOL    HW178689   3.538   6.085   3.715
22345SOL    HW278690   3.447   6.216   3.748
22346SOL     OW78691   8.271   2.826   5.602
22346SOL    HW178692   8.283   2.850   5.506
22346SOL    HW278693   8.181   2.856   5.633
22347SOL     OW78694   1.143   7.165   4.809
22347SOL    HW178695   1.169   7.195   4.717
22347SOL    HW278696   1.203   7.209   4.876
22348SOL     OW78697   5.449   9.207   7.643
22348SOL    HW178698   5.514   9.276   7.611
22348SOL    HW278699   5.356   9.243   7.634
22349SOL     OW78700   9.233   2.534   4.656
22349SOL    HW178701   9.275   2.443   4.658
22349SOL    HW278702   9.228   2.570   4.749
22350SOL     OW78703   0.380   7.864   4.066
22350SOL    HW178704   0.386   7.920   3.983
22350SOL    HW278705   0.362   7.769   4.040
22351SOL     OW78706   2.581   9.349   2.592
22351SOL    HW178707   2.499   9.296   2.611
22351SOL    HW278708   2.594   9.417   2.665
22352SOL     OW78709   8.029   4.920   2.665
22352SOL    HW178710   8.128   4.930   2.671
22352SOL    HW278711   8.002   4.832   2.704
22353SOL     OW78712   6.152   8.929   6.282
22353SOL    HW178713   6.130   8.835   6.257
22353SOL    HW278714   6.124   8.946   6.376
22354SOL     OW78715   0.913   2.367   3.571
22354SOL    HW178716   0.955   2.285   3.611
22354SOL    HW278717   0.981   2.416   3.517
22355SOL     OW78718   4.869   9.505   1.605
22355SOL    HW178719   4.932   9.508   1.528
22355SOL    HW278720   4.876   9.590   1.657
22356SOL     OW78721   8.113   7.063   2.760
22356SOL    HW178722   8.123   6.971   2.722
22356SOL    HW278723   8.050   7.116   2.703
22357SOL     OW78724   4.269   3.215   0.977
22357SOL    HW178725   4.188   3.222   1.035
22357SOL    HW278726   4.252   3.261   0.890
22358SOL     OW78727   3.300   1.647   0.671
22358SOL    HW178728   3.223   1.598   0.712
22358SOL    HW278729   3.370   1.582   0.643
22359SOL     OW78730   0.576   8.206   3.762
22359SOL    HW178731   0.544   8.274   3.696
22359SOL    HW278732   0.643   8.249   3.824
22360SOL     OW78733   5.639   1.806   4.369
22360SOL    HW178734   5.689   1.891   4.385
22360SOL    HW278735   5.701   1.737   4.334
22361SOL     OW78736   0.783   4.472   3.923
22361SOL    HW178737   0.693   4.464   3.966
22361SOL    HW278738   0.801   4.568   3.902
22362SOL     OW78739   8.862   9.271   6.373
22362SOL    HW178740   8.823   9.357   6.338
22362SOL    HW278741   8.917   9.228   6.302
22363SOL     OW78742   4.869   4.958   7.145
22363SOL    HW178743   4.818   4.880   7.182
22363SOL    HW278744   4.811   5.008   7.082
22364SOL     OW78745   2.191   7.989   4.265
22364SOL    HW178746   2.231   7.901   4.293
22364SOL    HW278747   2.137   7.975   4.182
22365SOL     OW78748   2.090   9.585   5.468
22365SOL    HW178749   2.024   9.654   5.497
22365SOL    HW278750   2.077   9.501   5.521
22366SOL     OW78751   0.118   1.290   7.551
22366SOL    HW178752   0.148   1.195   7.562
22366SOL    HW278753   0.139   1.321   7.458
22367SOL     OW78754   3.031   9.909   0.071
22367SOL    HW178755   3.049   9.911  10.055
22367SOL    HW278756   2.962   9.839   0.091
22368SOL     OW78757   7.526   6.490   1.784
22368SOL    HW178758   7.583   6.426   1.836
22368SOL    HW278759   7.448   6.518   1.841
22369SOL     OW78760   7.678   6.806   5.783
22369SOL    HW178761   7.594   6.800   5.730
22369SOL    HW278762   7.704   6.715   5.815
22370SOL     OW78763   3.581   5.486   1.561
22370SOL    HW178764   3.614   5.494   1.467
22370SOL    HW278765   3.504   5.548   1.575
22371SOL     OW78766   2.452   5.224   6.167
22371SOL    HW178767   2.436   5.126   6.180
22371SOL    HW278768   2.428   5.273   6.251
22372SOL     OW78769   3.735   5.772   6.724
22372SOL    HW178770   3.780   5.685   6.742
22372SOL    HW278771   3.641   5.755   6.695
22373SOL     OW78772   3.638   3.889   3.931
22373SOL    HW178773   3.540   3.905   3.932
22373SOL    HW278774   3.674   3.900   4.024
22374SOL     OW78775   5.167   8.683   4.467
22374SOL    HW178776   5.242   8.749   4.465
22374SOL    HW278777   5.092   8.718   4.523
22375SOL     OW78778   2.434   6.638   3.441
22375SOL    HW178779   2.476   6.585   3.514
22375SOL    HW278780   2.336   6.645   3.457
22376SOL     OW78781   2.846   3.858   5.817
22376SOL    HW178782   2.747   3.865   5.831
22376SOL    HW278783   2.890   3.942   5.849
22377SOL     OW78784   0.219   4.009   1.137
22377SOL    HW178785   0.267   3.922   1.148
22377SOL    HW278786   0.138   4.010   1.196
22378SOL     OW78787   0.513   3.581   7.194
22378SOL    HW178788   0.488   3.499   7.142
22378SOL    HW278789   0.431   3.626   7.228
22379SOL     OW78790   0.174   2.157   0.539
22379SOL    HW178791   0.156   2.176   0.635
22379SOL    HW278792   0.245   2.219   0.506
22380SOL     OW78793   1.914   2.817   4.632
22380SOL    HW178794   1.822   2.785   4.610
22380SOL    HW278795   1.981   2.749   4.604
22381SOL     OW78796   2.393   3.964   6.672
22381SOL    HW178797   2.432   4.040   6.724
22381SOL    HW278798   2.464   3.896   6.653
22382SOL     OW78799   4.224   1.224   4.168
22382SOL    HW178800   4.187   1.167   4.242
22382SOL    HW278801   4.164   1.216   4.088
22383SOL     OW78802   6.492   0.748   6.955
22383SOL    HW178803   6.501   0.693   6.872
22383SOL    HW278804   6.487   0.845   6.932
22384SOL     OW78805   0.174   4.120   6.103
22384SOL    HW178806   0.106   4.141   6.173
22384SOL    HW278807   0.151   4.032   6.060
22385SOL     OW78808   7.929   4.148   1.296
22385SOL    HW178809   7.895   4.080   1.232
22385SOL    HW278810   7.852   4.190   1.344
22386SOL     OW78811   1.286   6.330   3.661
22386SOL    HW178812   1.365   6.333   3.723
22386SOL    HW278813   1.208   6.291   3.709
22387SOL     OW78814   4.402   8.692   4.824
22387SOL    HW178815   4.471   8.626   4.855
22387SOL    HW278816   4.385   8.680   4.727
22388SOL     OW78817   6.637   9.476   4.326
22388SOL    HW178818   6.734   9.496   4.340
22388SOL    HW278819   6.601   9.538   4.256
22389SOL     OW78820   8.955   9.626   2.405
22389SOL    HW178821   8.865   9.625   2.361
22389SOL    HW278822   8.944   9.639   2.503
22390SOL     OW78823   1.729   1.456   4.927
22390SOL    HW178824   1.710   1.431   4.832
22390SOL    HW278825   1.811   1.408   4.958
22391SOL     OW78826   1.636   3.625   4.503
22391SOL    HW178827   1.670   3.532   4.490
22391SOL    HW278828   1.549   3.621   4.552
22392SOL     OW78829   1.677   5.655   1.980
22392SOL    HW178830   1.594   5.699   1.947
22392SOL    HW278831   1.743   5.724   2.008
22393SOL     OW78832   5.016   4.032   0.788
22393SOL    HW178833   4.990   4.108   0.729
22393SOL    HW278834   5.113   4.041   0.812
22394SOL     OW78835   6.876   9.891   3.995
22394SOL    HW178836   6.809   9.940   3.940
22394SOL    HW278837   6.915   9.816   3.942
22395SOL     OW78838   3.062   0.042   4.785
22395SOL    HW178839   3.034   0.012   4.876
22395SOL    HW278840   2.981   0.065   4.731
22396SOL     OW78841   8.276   7.403   2.428
22396SOL    HW178842   8.365   7.446   2.408
22396SOL    HW278843   8.285   7.304   2.421
  10.00000  10.00000  10.08169
